Control file title. For DL_FIELD 4.10
49660
    1MOL     C1    1   5.748   1.299   5.021  0.2472 -0.7826 -0.4106
    1MOL     C2    2   5.622   1.354   5.094  0.3778 -0.5588  0.8008
    1MOL     C3    3   5.489   1.347   5.016  0.1882 -0.0906 -0.0052
    1MOL     C4    4   5.473   1.445   4.904 -0.2983  0.3688  0.2507
    1MOL     C5    5   5.331   1.425   4.841 -0.3766 -0.1343 -0.3482
    1MOL     C6    6   5.295   1.532   4.733 -0.2158 -0.0504 -0.1699
    1MOL     O7    7   5.601   1.287   5.214 -0.3166  0.4314  0.4069
    1MOL     H8    8   5.751   1.348   4.924 -1.1479  1.1687  0.4925
    1MOL     H9    9   5.749   1.195   4.988  0.3434 -1.4981  1.7437
    1MOL    H10   10   5.637   1.458   5.124 -2.5053 -0.4431  1.9808
    1MOL    H11   11   5.476   1.241   4.993 -2.2850  0.2608 -0.3256
    1MOL    H12   12   5.403   1.366   5.080 -0.4402  1.4537 -1.2875
    1MOL    H13   13   5.487   1.550   4.931  0.0315 -0.0306  1.6926
    1MOL    H14   14   5.536   1.423   4.818 -0.0483 -0.8827  0.7331
    1MOL    H15   15   5.325   1.330   4.789  1.5227  0.4574 -1.7223
    1MOL    H16   16   5.247   1.432   4.910  0.2545 -0.1058  0.4289
    1MOL    H17   17   5.275   1.637   4.755 -3.7612 -0.7710  0.3250
    1MOL    H18   18   5.381   1.541   4.666  0.6623  0.1590  0.9782
    1MOL    H19   19   5.208   1.494   4.680 -1.2074  1.0734  0.6492
    1MOL    H20   20   5.841   1.332   5.066  0.1348 -3.3073  1.8143
    1MOL    C21   21   5.645   1.349   5.339  0.1935 -0.0859  0.0957
    1MOL    C22   22   5.782   1.299   5.385 -0.0296  1.2651  0.5937
    1MOL    C23   23   5.871   1.392   5.468 -0.1697 -0.8410 -0.0115
    1MOL    C24   24   5.980   1.460   5.387  0.6698  0.7723 -0.8838
    1MOL    C25   25   6.055   1.563   5.466  0.2846  0.8056  0.0718
    1MOL    C26   26   6.153   1.641   5.384 -0.5296 -0.3879  0.1770
    1MOL    O27   27   5.771   1.192   5.469  0.0311 -0.3258 -0.4704
    1MOL    H28   28   5.630   1.457   5.333 -2.4852 -0.3328  1.4854
    1MOL    H29   29   5.575   1.322   5.418  1.0614  1.2112  1.3181
    1MOL    H30   30   5.834   1.267   5.295 -1.1778  0.8324  0.0764
    1MOL    H31   31   5.915   1.341   5.554 -2.2311  1.4420  2.4714
    1MOL    H32   32   5.813   1.470   5.517  1.2029  1.0516 -1.3417
    1MOL    H33   33   5.945   1.506   5.295 -0.0908  0.1996 -0.8836
    1MOL    H34   34   6.054   1.384   5.361  1.1808  1.0087 -0.1412
    1MOL    H35   35   5.990   1.636   5.514  3.2969  3.2471  0.5922
    1MOL    H36   36   6.117   1.512   5.539  0.3249 -2.1430 -1.9366
    1MOL    H37   37   6.216   1.694   5.454  0.1353  0.5832 -1.1334
    1MOL    H38   38   6.109   1.714   5.316  1.4143 -0.0170 -0.7241
    1MOL    H39   39   6.227   1.586   5.325  0.9966  0.3637  1.3698
    1MOL    C40   40   5.718   1.071   5.415 -0.1589  0.2771 -0.4960
    1MOL    C41   41   5.690   0.981   5.537 -0.3264  0.0672  0.7028
    1MOL    C42   42   5.694   0.837   5.490  0.4253  0.5886 -0.2753
    1MOL    C43   43   5.709   0.727   5.605  0.2161 -0.0324  0.6096
    1MOL    C44   44   5.746   0.591   5.542 -0.0227 -0.3655  0.3315
    1MOL    C45   45   5.773   0.468   5.633 -0.2583 -0.2534 -0.3127
    1MOL    O46   46   5.563   1.003   5.608  0.3398 -0.3379  0.7418
    1MOL    H47   47   5.798   1.031   5.353  2.0674  0.7463  1.9393
    1MOL    H48   48   5.628   1.085   5.355 -0.7577 -1.5939 -0.0915
    1MOL    H49   49   5.766   0.993   5.615 -1.9911 -0.5353  2.4780
    1MOL    H50   50   5.602   0.812   5.436  1.1328 -1.8945 -0.3957
    1MOL    H51   51   5.780   0.819   5.427  0.5828  3.0844 -0.8235
    1MOL    H52   52   5.617   0.718   5.663 -1.0737 -1.9218 -1.6226
    1MOL    H53   53   5.784   0.768   5.672 -1.1110  1.2916  1.3213
    1MOL    H54   54   5.662   0.567   5.477  0.4150  0.9308 -0.7112
    1MOL    H55   55   5.836   0.607   5.482  0.5010  0.0685  1.2189
    1MOL    H56   56   5.678   0.447   5.683  1.5812 -3.4739  2.0437
    1MOL    H57   57   5.810   0.389   5.568  0.0610 -1.5774  1.4209
    1MOL    H58   58   5.853   0.467   5.708 -0.2575 -2.3825 -0.2954
    1MOL    C59   59   5.568   1.121   5.685  0.1114  0.5916 -0.5635
    1MOL    C60   60   5.458   1.119   5.802  0.1712 -0.4564  0.3191
    1MOL    C61   61   5.319   1.083   5.741  0.0983 -0.3474  0.2873
    1MOL    C62   62   5.206   1.103   5.847  0.6838  0.0655  0.4295
    1MOL    C63   63   5.058   1.090   5.794 -0.5167  0.2338  0.0318
    1MOL    C64   64   4.963   1.128   5.912  0.7676 -0.1063 -0.9381
    1MOL    O65   65   5.480   1.016   5.889  0.7560 -0.0958 -0.1581
    1MOL    H66   66   5.548   1.213   5.631  1.3124  0.9014 -0.5071
    1MOL    H67   67   5.665   1.139   5.731  0.4143  0.1922 -1.0420
    1MOL    H68   68   5.457   1.209   5.863  0.1847 -0.8946  0.9628
    1MOL    H69   69   5.321   0.984   5.695  1.0551  0.1507 -0.7686
    1MOL    H70   70   5.292   1.160   5.669 -1.4980  1.9050  3.1697
    1MOL    H71   71   5.210   1.200   5.896  0.4528  0.5884 -0.5620
    1MOL    H72   72   5.221   1.029   5.926 -0.5854 -2.1651 -1.3466
    1MOL    H73   73   5.038   0.985   5.771 -0.5313 -0.0978  1.5147
    1MOL    H74   74   5.048   1.154   5.706  1.1764  1.6921  0.8655
    1MOL    H75   75   5.001   1.215   5.965  0.7436 -0.6250 -0.0561
    1MOL    H76   76   4.866   1.160   5.872  0.4986  0.8752  0.4560
    1MOL    H77   77   4.963   1.050   5.988 -3.2696  0.7638  0.1111
    1MOL    C78   78   5.563   1.033   6.001  0.3521 -0.2886  0.2137
    1MOL    C79   79   5.588   0.890   6.061  0.0492 -0.1367  0.3891
    1MOL    C80   80   5.603   0.788   5.946  0.5408  0.0486  0.2389
    1MOL    C81   81   5.692   0.667   5.981  0.3629 -0.2905 -0.6369
    1MOL    C82   82   5.835   0.717   5.971 -0.4513 -0.8180  0.8064
    1MOL    C83   83   5.931   0.605   5.993 -1.0626 -0.2441  0.4420
    1MOL    O84   84   5.501   0.839   6.159  0.0006  0.1678 -0.4863
    1MOL    H85   85   5.517   1.098   6.075 -0.2313 -1.8555  1.2658
    1MOL    H86   86   5.658   1.081   5.977  0.2025  0.1443  0.4792
    1MOL    H87   87   5.680   0.891   6.119 -0.0487 -3.2082  0.6873
    1MOL    H88   88   5.504   0.753   5.916  1.3699 -1.3449 -0.9442
    1MOL    H89   89   5.637   0.837   5.855  0.9194 -1.0161 -0.1994
    1MOL    H90   90   5.657   0.581   5.924 -0.2508 -3.1531  3.8453
    1MOL    H91   91   5.680   0.638   6.085  0.5580  2.5638  0.2311
    1MOL    H92   92   5.860   0.757   5.873 -2.8232  0.3303  0.6184
    1MOL    H93   93   5.860   0.800   6.037  0.5881  1.0625 -1.8881
    1MOL    H94   94   5.914   0.535   5.911 -0.3553  0.8138 -0.6318
    1MOL    H95   95   5.924   0.559   6.091  1.0179 -0.7420  0.3810
    1MOL    H96   96   6.028   0.653   5.981 -1.3902  0.5331  0.8946
    1MOL    C97   97   5.368   0.856   6.119  0.2264  0.6892  0.4891
    1MOL    C98   98   5.269   0.777   6.205  0.6947 -0.2338 -0.1094
    1MOL    C99   99   5.134   0.851   6.215 -0.0907  0.0926  0.4194
    1MOL   C100  100   5.147   0.968   6.315 -0.5347 -0.3449 -0.0794
    1MOL   C101  101   5.036   1.070   6.311 -0.5374 -0.2849  0.2375
    1MOL   C102  102   4.904   1.025   6.368  0.0532  0.8351  0.0638
    1MOL   O103  103   5.248   0.648   6.148 -0.2617 -0.3318 -0.1867
    1MOL   H104  104   5.339   0.820   6.021  1.1190 -0.7421  0.7468
    1MOL   H105  105   5.336   0.960   6.113  2.8836  1.4163 -2.4221
    1MOL   H106  106   5.307   0.768   6.307 -0.9741  1.3359  0.6670
    1MOL   H107  107   5.050   0.786   6.236 -0.9585  0.8891 -0.5422
    1MOL   H108  108   5.117   0.888   6.113  2.2442 -0.0159 -0.0375
    1MOL   H109  109   5.243   1.020   6.304 -1.0336  0.5491 -0.2772
    1MOL   H110  110   5.145   0.926   6.416  2.0353 -3.7493 -1.3145
    1MOL   H111  111   5.015   1.115   6.214 -0.9110 -1.3011 -0.1598
    1MOL   H112  112   5.066   1.154   6.373 -0.6003  0.2235 -0.4127
    1MOL   H113  113   4.845   1.116   6.379 -1.0676 -0.1662  2.9397
    1MOL   H114  114   4.852   0.957   6.301 -2.3426  0.2029  2.4699
    1MOL   H115  115   4.913   0.981   6.467  0.5673 -0.7381 -0.6683
    1MOL   C116  116   5.345   0.547   6.180  0.2660 -0.2021 -1.0430
    1MOL   C117  117   5.298   0.413   6.129 -0.2905 -0.4948  0.2249
    1MOL   C118  118   5.377   0.294   6.187  0.0426 -0.1935  0.1145
    1MOL   C119  119   5.331   0.246   6.323 -0.2310  0.5386 -1.2861
    1MOL   C120  120   5.439   0.194   6.417 -0.5714  0.1356  0.5104
    1MOL   C121  121   5.377   0.152   6.551  0.3851  0.3154 -0.8082
    1MOL   O122  122   5.325   0.409   5.989 -0.1220  0.3325  0.4801
    1MOL   H123  123   5.441   0.572   6.135  1.7552 -3.8419  0.0214
    1MOL   H124  124   5.349   0.541   6.288  0.8491 -0.1956 -1.0651
    1MOL   H125  125   5.194   0.397   6.155 -0.6406 -1.1854 -1.5267
    1MOL   H126  126   5.371   0.204   6.126  2.0641  0.0792 -0.5367
    1MOL   H127  127   5.483   0.319   6.191  0.1293  0.3307 -3.4150
    1MOL   H128  128   5.236   0.193   6.325  0.1874 -0.1985  0.5360
    1MOL   H129  129   5.295   0.332   6.381  1.3556  0.0615  0.4772
    1MOL   H130  130   5.489   0.108   6.372 -0.1820  0.4425  0.3588
    1MOL   H131  131   5.519   0.267   6.428 -0.1112 -0.6285  2.3512
    1MOL   H132  132   5.449   0.135   6.632 -1.7469  0.9490  1.2759
    1MOL   H133  133   5.298   0.220   6.584  0.4741 -0.3250  0.7984
    1MOL   H134  134   5.319   0.060   6.546 -0.2692  0.7772 -1.7614
    1MOL   C135  135   5.213   0.464   5.913 -0.2583 -0.1404 -0.3877
    1MOL   C136  136   5.282   0.539   5.790  0.5826  0.1877 -0.6598
    1MOL   C137  137   5.178   0.641   5.714  0.1663 -0.1839 -0.2668
    1MOL   C138  138   5.229   0.693   5.587  0.3632  0.3297 -0.3371
    1MOL   C139  139   5.133   0.789   5.506 -0.3047 -0.7888 -0.6676
    1MOL   C140  140   5.182   0.852   5.377  0.3151  0.5373  0.0569
    1MOL   O141  141   5.351   0.451   5.700 -0.1629  0.2866 -0.3302
    1MOL   H142  142   5.159   0.375   5.882 -0.7606 -0.3296  0.9992
    1MOL   H143  143   5.146   0.525   5.973  0.0076  0.1919 -0.4274
    1MOL   H144  144   5.360   0.599   5.838 -0.6623  0.9707  0.4246
    1MOL   H145  145   5.090   0.581   5.690  1.0216 -1.5059 -0.1428
    1MOL   H146  146   5.162   0.717   5.790 -0.7536  0.9287 -1.5505
    1MOL   H147  147   5.244   0.608   5.521 -1.1142  0.4877 -0.9068
    1MOL   H148  148   5.327   0.740   5.597  0.4889 -0.3258  1.7182
    1MOL   H149  149   5.107   0.870   5.575 -0.0045 -1.1012 -0.1832
    1MOL   H150  150   5.039   0.738   5.491 -0.9785  0.2545 -0.0646
    1MOL   H151  151   5.095   0.896   5.327  0.3969 -0.1332 -0.6886
    1MOL   H152  152   5.249   0.933   5.406  0.3517  1.0959 -1.4987
    1MOL   H153  153   5.229   0.785   5.305  0.3432 -1.1777  1.6628
    1MOL   C154  154   5.275   0.354   5.630 -0.6240 -0.0035 -0.7762
    1MOL   C155  155   5.362   0.275   5.530  0.0450  0.2348  0.6480
    1MOL   C156  156   5.303   0.134   5.508 -0.6859 -0.3329  0.2509
    1MOL   C157  157   5.379   0.072   5.392  0.5272  0.2535  0.2474
    1MOL   C158  158   5.344   7.713   5.361  0.3044  0.6377  0.1645
    1MOL   C159  159   5.411   7.671   5.231  0.0713 -0.0795  0.0134
    1MOL   O160  160   5.366   0.341   5.400 -0.2893 -0.5021  0.1525
    1MOL   H161  161   5.188   0.397   5.580 -1.5157 -0.9484 -0.0379
    1MOL   H162  162   5.231   0.294   5.709 -1.9598  1.9900  0.0311
    1MOL   H163  163   5.465   0.269   5.568  0.9410  0.3638 -1.6620
    1MOL   H164  164   5.194   0.135   5.499 -0.7180  2.1102  0.7369
    1MOL   H165  165   5.322   0.081   5.601  2.3386  0.5181  0.1776
    1MOL   H166  166   5.486   0.078   5.409  0.7000 -1.1819 -0.2499
    1MOL   H167  167   5.352   0.131   5.305  3.6787  0.2042 -0.8070
    1MOL   H168  168   5.382   7.649   5.441  0.6566  1.8255  0.9717
    1MOL   H169  169   5.236   7.701   5.357  0.6425 -2.2230 -5.3226
    1MOL   H170  170   5.405   7.750   5.156  1.6679 -2.4940 -2.7556
    1MOL   H171  171   5.350   7.586   5.202  1.3540 -1.0522  0.0970
    1MOL   H172  172   5.519   7.653   5.239  0.5002  2.1264 -0.3895
    1MOL   C173  173   5.448   0.456   5.396  0.0195 -0.1484 -0.1458
    1MOL   C174  174   5.418   0.529   5.260 -0.2420 -0.7242  0.1632
    1MOL   C175  175   5.466   0.681   5.265 -0.3412  0.4197  0.0524
    1MOL   C176  176   5.456   0.748   5.130  0.2443  0.0270  0.1137
    1MOL   C177  177   5.531   0.887   5.124  0.1830  0.4957 -0.1806
    1MOL   C178  178   5.556   0.939   4.976  0.0749 -0.1388 -0.4703
    1MOL   O179  179   5.498   0.466   5.156 -0.3787 -0.1150 -0.2814
    1MOL   H180  180   5.550   0.415   5.397 -0.4477 -1.3385  1.2063
    1MOL   H181  181   5.436   0.524   5.481 -0.2515  1.1968 -1.2506
    1MOL   H182  182   5.316   0.511   5.228 -0.1916 -0.5604 -0.0915
    1MOL   H183  183   5.421   0.724   5.355 -0.7938  1.7121 -0.7798
    1MOL   H184  184   5.571   0.678   5.297 -0.3255 -1.4863 -0.1022
    1MOL   H185  185   5.512   0.681   5.065 -0.0782 -0.2799  0.1486
    1MOL   H186  186   5.351   0.746   5.100  0.0227  0.7585  0.8161
    1MOL   H187  187   5.470   0.955   5.183 -0.2036  0.0961 -0.1214
    1MOL   H188  188   5.624   0.884   5.181  1.4512 -0.4350 -2.2275
    1MOL   H189  189   5.638   0.876   4.939 -0.2603 -0.4398 -0.7108
    1MOL   H190  190   5.580   1.045   4.977 -1.2448  0.1567  0.6162
    1MOL   H191  191   5.468   0.925   4.914 -0.2842 -2.5940  0.5457
    1MOL   C192  192   5.445   0.355   5.084  0.3247  0.0583 -0.0442
    1MOL   C193  193   5.565   0.289   5.016  0.1382  0.8824  0.5284
    1MOL   C194  194   5.530   0.229   4.882 -0.6126 -0.7002  0.3227
    1MOL   C195  195   5.425   0.115   4.888 -0.0360 -0.1807 -0.1147
    1MOL   C196  196   5.389   0.055   4.750  0.5665 -0.6008  0.9169
    1MOL   C197  197   5.368   0.165   4.637 -0.1656 -0.1266  0.5136
    1MOL   O198  198   5.610   0.181   5.093 -0.4510  0.3852 -0.0585
    1MOL   H199  199   5.395   0.282   5.147  0.1782 -1.9869 -2.4454
    1MOL   H200  200   5.375   0.404   5.017  1.2840  3.0953  1.0994
    1MOL   H201  201   5.644   0.364   5.005  0.7532  0.2665  0.7583
    1MOL   H202  202   5.491   0.314   4.827 -0.6110 -1.4894 -0.9410
    1MOL   H203  203   5.622   0.206   4.827 -0.6739  2.6240 -1.3094
    1MOL   H204  204   5.332   0.150   4.933  0.1516  1.6287 -1.0813
    1MOL   H205  205   5.472   0.031   4.939 -0.7149 -1.5157 -1.6520
    1MOL   H206  206   5.459   7.762   4.720 -0.4852 -1.5265  0.8551
    1MOL   H207  207   5.295   0.000   4.759 -0.5940  0.5554 -3.3270
    1MOL   H208  208   5.455   0.220   4.600 -0.8888  1.3645  0.9840
    1MOL   H209  209   5.319   0.135   4.544  1.0064  0.1328 -0.2084
    1MOL   H210  210   5.309   0.247   4.678  0.1331  1.8207 -2.7116
    1MOL   C211  211   5.692   0.218   5.200 -0.1071  1.1674 -0.0178
    1MOL   C212  212   5.777   0.099   5.243 -0.0042  0.7280  0.3007
    1MOL   C213  213   5.835   0.116   5.391  0.1388 -0.1114  0.4031
    1MOL   C214  214   5.916   7.785   5.443  0.7009 -0.0139  0.9941
    1MOL   C215  215   5.973   0.038   5.586  0.0535 -0.6329  0.3682
    1MOL   C216  216   6.084   0.143   5.579 -0.0224  0.1217 -0.4124
    1MOL   O217  217   5.891   0.088   5.157  0.3208  0.5133 -0.0447
    1MOL   H218  218   5.629   0.253   5.281 -0.0312  0.4337  0.3654
    1MOL   H219  219   5.755   0.305   5.183  0.7155  0.2481 -1.8188
    1MOL   H220  220   5.725   0.005   5.224  0.8482  0.4264 -0.6149
    1MOL   H221  221   5.907   0.196   5.379  1.8302 -1.7239 -0.5481
    1MOL   H222  222   5.757   0.137   5.464 -0.3567 -3.2922  0.8578
    1MOL   H223  223   5.847   7.702   5.439 -1.0878  1.5164 -1.2043
    1MOL   H224  224   5.996   7.755   5.374 -0.5613 -0.8487 -0.1231
    1MOL   H225  225   5.896   0.072   5.654 -0.2308 -0.6376  0.0486
    1MOL   H226  226   6.011   7.732   5.632  0.0839 -1.4468 -1.2443
    1MOL   H227  227   6.163   0.099   5.519  1.5711  2.2640  0.0797
    1MOL   H228  228   6.122   0.158   5.680 -0.7499 -0.6120 -0.0210
    1MOL   H229  229   6.059   0.233   5.525  0.2694  1.0863  1.0296
    1MOL   C230  230   5.873   0.002   5.044  0.4432 -0.0182  0.0754
    1MOL   C231  231   6.016   7.745   5.006  0.0756 -0.5964 -0.0719
    1MOL   C232  232   6.133   0.037   5.066  0.0666  0.1348 -0.4799
    1MOL   C233  233   6.272   7.765   5.032  0.5274  0.6608  0.1754
    1MOL   C234  234   6.377   0.057   5.118 -0.0703 -1.2031 -0.0929
    1MOL   C235  235   6.511   7.776   5.106  0.3110  0.1563  0.1323
    1MOL   O236  236   6.032   7.773   4.866  0.3833 -0.1674 -0.0816
    1MOL   H237  237   5.800   7.710   5.065  1.0021 -0.1951  1.4558
    1MOL   H238  238   5.827   0.062   4.965  1.0614  0.0100 -0.2639
    1MOL   H239  239   6.036   7.639   5.023  1.5709 -0.1401  1.0676
    1MOL   H240  240   6.125   0.014   5.172  0.0403 -0.7561 -0.6713
    1MOL   H241  241   6.129   0.144   5.045 -3.0610  0.0072 -0.8092
    1MOL   H242  242   6.292   7.780   4.926 -0.6226 -1.0359 -0.2867
    1MOL   H243  243   6.281   7.658   5.047  1.2195  0.5245 -1.1817
    1MOL   H244  244   6.387   0.163   5.094 -0.3678 -0.7296  1.8014
    1MOL   H245  245   6.342   0.062   5.221  0.4758 -1.9964  0.1347
    1MOL   H246  246   6.520   7.675   5.147 -2.2498 -0.7736 -1.4613
    1MOL   H247  247   6.588   0.041   5.165  1.8504 -1.6394 -0.2552
    1MOL   H248  248   6.547   7.780   5.003 -0.6493 -0.6531 -0.2494
    1MOL   C249  249   5.963   7.680   4.787  0.3627 -0.4005  0.0319
    1MOL   C250  250   6.007   7.700   4.644 -0.5184 -0.4135  0.6873
    1MOL   C251  251   5.912   7.637   4.536 -0.1997  0.1994 -0.1596
    1MOL   C252  252   5.913   7.483   4.554 -0.5494 -0.0130 -0.6665
    1MOL   C253  253   5.835   7.416   4.446 -0.7525 -0.4752 -0.3872
    1MOL   C254  254   5.840   7.265   4.447 -0.5532  0.0504  0.5172
    1MOL   O255  255   6.138   7.641   4.629  0.5025 -0.4020  0.1677
    1MOL   H256  256   5.982   7.577   4.818 -1.2608 -1.1662 -1.3858
    1MOL   H257  257   5.857   7.701   4.799  0.2716  0.2527 -1.8170
    1MOL   H258  258   6.012   0.022   4.631 -2.0106 -0.3869  0.2228
    1MOL   H259  259   5.813   7.681   4.546  0.7230  1.5980  3.1725
    1MOL   H260  260   5.943   7.669   4.436 -2.3211  0.0355 -0.8968
    1MOL   H261  261   6.016   7.446   4.551 -1.0659 -1.5999  0.1770
    1MOL   H262  262   5.880   7.461   4.656  0.2783 -1.0615 -0.6168
    1MOL   H263  263   5.734   7.457   4.439 -0.4533  0.6066  1.4073
    1MOL   H264  264   5.884   7.447   4.353  0.4933  1.3364  0.8298
    1MOL   H265  265   5.795   7.229   4.355  1.9516 -1.0217 -0.3422
    1MOL   H266  266   5.779   7.216   4.523  0.2271 -0.5664  0.7602
    1MOL   H267  267   5.936   7.212   4.450 -1.8971 -2.4929 -0.1497
    1MOL   C268  268   6.253   7.706   4.581  0.1819  0.2083  0.1655
    1MOL   C269  269   6.353   7.593   4.537  0.4198 -0.1157  0.1103
    1MOL   C270  270   6.501   7.620   4.577  0.3619  0.7322 -0.5037
    1MOL   C271  271   6.602   7.508   4.547  0.5844  0.5077  0.3331
    1MOL   C272  272   6.741   7.536   4.602 -0.3101 -0.0873 -0.6242
    1MOL   C273  273   6.835   7.590   4.487  0.2019 -0.2292 -0.3459
    1MOL   O274  274   6.357   7.591   4.394  0.3938  0.5019  0.6246
    1MOL   H275  275   6.287   7.762   4.667 -0.8815  0.1523  0.6256
    1MOL   H276  276   6.226   7.774   4.500  0.3389  1.0210  0.7913
    1MOL   H277  277   6.317   7.499   4.577  0.8969 -1.8396 -3.3335
    1MOL   H278  278   6.523   7.710   4.520 -0.5747  0.2001 -1.7248
    1MOL   H279  279   6.506   7.651   4.681  3.9603  2.3107 -1.0587
    1MOL   H280  280   6.564   7.420   4.598  0.9643  1.3616  2.1583
    1MOL   H281  281   6.600   7.484   4.441 -0.1867 -0.1208  0.4945
    1MOL   H282  282   6.739   7.604   4.688  0.5125  1.9310 -2.1755
    1MOL   H283  283   6.781   7.442   4.640  0.9202  0.2063 -1.1659
    1MOL   H284  284   6.847   7.506   4.418  0.4308  0.8918 -1.6722
    1MOL   H285  285   6.798   7.672   4.425  0.2640  0.4415  0.5062
    1MOL   H286  286   6.926   7.631   4.530 -1.1776  1.7722  0.7329
    1MOL   C287  287   6.263   7.505   4.327  0.0514  0.1530  0.2168
    1MOL   C288  288   6.307   7.496   4.177 -0.2119 -0.6900  0.1274
    1MOL   C289  289   6.200   7.441   4.082 -1.0629 -0.2667 -0.2927
    1MOL   C290  290   6.149   7.303   4.127 -0.4238 -0.2064  0.0034
    1MOL   C291  291   6.072   7.236   4.020  0.1496  0.4585 -0.4305
    1MOL   C292  292   6.017   7.096   4.073 -0.9052  0.7033  0.1043
    1MOL   O293  293   6.421   7.417   4.162  0.1030 -0.0264 -0.4868
    1MOL   H294  294   6.163   7.543   4.350 -0.3795 -1.6672  1.5231
    1MOL   H295  295   6.250   7.408   4.375  0.9072 -0.7473 -1.3481
    1MOL   H296  296   6.342   7.596   4.151 -0.0400 -0.5862  0.7629
    1MOL   H297  297   6.118   7.511   4.065 -0.5113  0.2428 -0.9067
    1MOL   H298  298   6.241   7.424   3.983 -2.0838 -2.2169 -0.4118
    1MOL   H299  299   6.231   7.234   4.144  0.4652  0.8525  0.0840
    1MOL   H300  300   6.081   7.314   4.211 -0.4568 -1.8513  0.2044
    1MOL   H301  301   6.125   7.214   3.927 -0.0656 -0.6420 -0.2969
    1MOL   H302  302   5.985   7.290   3.983 -1.5485 -1.6147  0.4482
    1MOL   H303  303   5.966   7.046   3.991  0.2852 -1.1164  0.4554
    1MOL   H304  304   6.103   7.034   4.095 -2.1016 -0.4921  1.5317
    1MOL   H305  305   5.948   7.090   4.157  0.0454 -0.4368  0.8064
    1MOL   C306  306   6.514   7.452   4.055 -0.3790  0.0766  1.0734
    1MOL   C307  307   6.636   7.365   4.064 -0.1001  0.1871 -0.0524
    1MOL   C308  308   6.735   7.419   3.963 -0.5413 -0.2138 -0.2786
    1MOL   C309  309   6.874   7.339   3.963  0.2269  0.0312  0.3804
    1MOL   C310  310   6.957   7.367   4.087  0.2839 -0.1643 -0.3124
    1MOL   C311  311   6.994   7.515   4.111 -0.4782 -0.1167  0.9884
    1MOL   O312  312   6.620   7.227   4.026 -0.1762  0.0156 -0.7696
    1MOL   H313  313   6.464   7.431   3.960  2.0438  0.1559 -0.2563
    1MOL   H314  314   6.553   7.554   4.051  4.4428 -1.6582  0.4381
    1MOL   H315  315   6.669   7.372   4.167 -3.1650  0.3826  0.9695
    1MOL   H316  316   6.767   7.522   3.978 -2.9185  0.2070  2.3620
    1MOL   H317  317   6.692   7.407   3.864  0.7736  0.9499 -1.0036
    1MOL   H318  318   6.853   7.232   3.953  0.6916  0.0990 -1.4824
    1MOL   H319  319   6.923   7.376   3.873  1.1322  0.3516  0.9966
    1MOL   H320  320   7.047   7.306   4.084  0.3359 -0.1172  0.1689
    1MOL   H321  321   6.907   7.317   4.170  2.7634 -1.4331  0.4684
    1MOL   H322  322   7.053   7.554   4.028 -1.3585 -0.4982  0.1705
    1MOL   H323  323   6.909   7.581   4.125 -2.2224 -1.5141 -2.5340
    1MOL   H324  324   7.056   7.535   4.198  1.0786  0.6646 -0.2636
    1MOL   C325  325   6.521   7.153   4.097  0.1165 -0.5096 -0.4612
    1MOL   C326  326   6.539   7.003   4.062 -0.0662 -0.0422 -0.5062
    1MOL   C327  327   6.408   6.931   4.075 -1.1270 -0.1852 -0.2835
    1MOL   C328  328   6.411   6.775   4.042 -0.2167 -1.0797 -0.4347
    1MOL   C329  329   6.276   6.709   4.021  0.0397 -0.2458  0.6491
    1MOL   C330  330   6.294   6.556   4.023  0.3368 -0.2371 -0.4703
    1MOL   O331  331   6.630   6.944   4.155  0.2151 -0.1630  0.0349
    1MOL   H332  332   6.426   7.189   4.057 -0.6895 -2.5498 -0.4646
    1MOL   H333  333   6.518   7.174   4.204  0.2667 -0.1022 -0.5409
    1MOL   H334  334   6.576   6.993   3.960 -0.0762  0.0728 -0.5214
    1MOL   H335  335   6.365   6.946   4.174  1.0636  1.2761  0.4746
    1MOL   H336  336   6.332   6.987   4.022  0.4524  0.9152 -1.4205
    1MOL   H337  337   6.466   6.770   3.949  1.0828 -0.6412  0.3004
    1MOL   H338  338   6.453   6.717   4.124 -0.2965 -1.6974 -0.8283
    1MOL   H339  339   6.195   6.735   4.088 -0.4070 -0.3098  0.1358
    1MOL   H340  340   6.249   6.738   3.919  0.4594 -1.7856  0.0881
    1MOL   H341  341   6.228   6.498   3.958  3.8211 -1.3350 -3.1892
    1MOL   H342  342   6.393   6.532   3.984  1.1956 -1.5082  2.3775
    1MOL   H343  343   6.278   6.509   4.120  3.0336 -3.3260 -1.4598
    1MOL   C344  344   6.768   6.961   4.123  0.1569 -0.3366  0.0660
    1MOL   C345  345   6.828   6.865   4.017 -0.6699  0.3580  0.1173
    1MOL   C346  346   6.968   6.915   3.965  0.4094  0.1919 -0.2059
    1MOL   C347  347   7.043   6.816   3.885  0.0122 -0.5083 -0.3150
    1MOL   C348  348   7.192   6.863   3.876 -0.7382  0.6011 -0.4500
    1MOL   C349  349   7.276   6.782   3.783  0.2922  0.7207  0.0314
    1MOL   O350  350   6.859   6.738   4.066 -0.7490  0.2978  0.1840
    1MOL   H351  351   6.819   6.930   4.215  2.6689  3.4158  0.0108
    1MOL   H352  352   6.794   7.065   4.103  1.3445 -1.0278 -2.0520
    1MOL   H353  353   6.763   6.863   3.930 -0.4257 -0.2367 -0.0561
    1MOL   H354  354   7.030   6.942   4.051 -0.6096  2.8838 -0.2668
    1MOL   H355  355   6.956   7.009   3.912  0.6063  1.3330  1.7114
    1MOL   H356  356   6.997   6.808   3.786  1.9806  0.8886 -1.3944
    1MOL   H357  357   7.043   6.725   3.944  0.2245  0.2782  0.9131
    1MOL   H358  358   7.230   6.863   3.978 -2.0866  1.1177  0.0581
    1MOL   H359  359   7.188   6.966   3.841  0.1782  0.7654 -0.0872
    1MOL   H360  360   7.285   6.675   3.803 -0.5723  0.3651 -1.4143
    1MOL   H361  361   7.380   6.813   3.790  1.0477 -1.8503  0.7087
    1MOL   H362  362   7.254   6.796   3.677 -0.1959 -0.1302  0.0172
    1MOL   C363  363   6.757   6.657   4.113 -0.0789  0.5412 -0.0275
    1MOL   C364  364   6.822   6.516   4.111  0.4798  1.0256 -0.2780
    1MOL   C365  365   6.794   6.439   4.243 -0.0731 -0.2403  0.2785
    1MOL   C366  366   6.854   6.300   4.238 -0.7868 -0.5556  0.2859
    1MOL   C367  367   6.839   6.231   4.373  0.2437 -0.1153 -0.4266
    1MOL   C368  368   6.888   6.089   4.375  0.4757 -0.5854 -0.0242
    1MOL   O369  369   6.772   6.437   4.001  0.5541  0.6080  0.0052
    1MOL   H370  370   6.672   6.661   4.045  1.4347  1.2754 -1.9401
    1MOL   H371  371   6.724   6.678   4.215  2.3413  0.5374  0.7954
    1MOL   H372  372   6.929   6.511   4.090  0.1970 -2.1748 -1.2535
    1MOL   H373  373   6.827   6.505   4.324 -2.5159 -0.2348  1.3158
    1MOL   H374  374   6.687   6.440   4.266  0.6143  2.3415  3.9153
    1MOL   H375  375   6.815   6.240   4.156 -1.0404 -0.9918  0.7261
    1MOL   H376  376   6.962   6.299   4.222 -0.3166  2.7658  2.7583
    1MOL   H377  377   6.881   6.290   4.454  0.7823  1.4830 -1.8373
    1MOL   H378  378   6.730   6.231   4.385  0.3913 -0.6738  0.9991
    1MOL   H379  379   6.853   6.032   4.460  0.0993 -1.7901 -0.9689
    1MOL   H380  380   6.849   6.030   4.292  0.5549 -0.9817  0.2203
    1MOL   H381  381   6.997   6.086   4.367  0.3151 -1.6041 -2.2540
    1MOL   H382  382   6.768   6.487   3.920 -0.1566 -0.1943 -0.4674
    2MOL     C1  383   6.261   4.376   2.415  0.1278 -0.1519 -0.6879
    2MOL     C2  384   6.406   4.437   2.420  0.2450  0.3277 -0.2793
    2MOL     C3  385   6.409   4.551   2.510 -0.1134  0.6261 -1.2370
    2MOL     C4  386   6.537   4.632   2.527 -0.3492  0.1372  0.6535
    2MOL     C5  387   6.587   4.704   2.404  0.3231 -0.3066 -0.1410
    2MOL     C6  388   6.695   4.803   2.454  0.3675 -0.6838 -0.4460
    2MOL     O7  389   6.496   4.335   2.461 -0.1418  0.1540  0.6188
    2MOL     H8  390   6.253   4.303   2.335  0.0300 -1.3667  0.4146
    2MOL     H9  391   6.180   4.446   2.394 -0.5412 -1.1260 -1.4032
    2MOL    H10  392   6.439   4.475   2.323  0.5573  1.2083  0.1586
    2MOL    H11  393   6.328   4.621   2.488 -0.8725 -0.5200 -2.1300
    2MOL    H12  394   6.375   4.520   2.609 -3.3419  0.5282 -2.3074
    2MOL    H13  395   6.511   4.699   2.608  0.0258  0.4067  0.5523
    2MOL    H14  396   6.613   4.559   2.555 -0.1502  0.2853  0.4913
    2MOL    H15  397   6.632   4.630   2.338 -0.0749  0.9447 -1.8514
    2MOL    H16  398   6.506   4.754   2.351  0.0000 -0.2748  0.3702
    2MOL    H17  399   6.780   4.747   2.492 -0.1369  0.2770  2.2441
    2MOL    H18  400   6.747   4.855   2.373  0.9451  0.3406  0.5632
    2MOL    H19  401   6.660   4.878   2.525  0.6587 -1.6386  0.7141
    2MOL    H20  402   6.233   4.326   2.508 -0.3699 -1.1543 -1.3680
    2MOL    C21  403   6.527   4.227   2.369  0.6213 -0.5977 -1.0047
    2MOL    C22  404   6.633   4.128   2.431  0.1576  0.0306  0.1441
    2MOL    C23  405   6.629   3.997   2.364  0.0453 -0.6307  0.4462
    2MOL    C24  406   6.707   3.881   2.428  0.6291  0.0900  0.5425
    2MOL    C25  407   6.703   3.745   2.354  0.5972  0.2393  0.0476
    2MOL    C26  408   6.766   3.630   2.428  0.0175 -0.3845 -0.6469
    2MOL    O27  409   6.756   4.174   2.387 -1.2012  0.2149  0.2275
    2MOL    H28  410   6.440   4.169   2.338  0.4976 -0.6626 -0.5295
    2MOL    H29  411   6.573   4.263   2.277  2.0969  0.5420  0.1498
    2MOL    H30  412   6.620   4.111   2.538  1.4518  2.7637  0.7938
    2MOL    H31  413   6.662   4.013   2.262  0.4650  0.8634  0.8087
    2MOL    H32  414   6.527   3.958   2.358  0.6462 -1.9470 -1.6725
    2MOL    H33  415   6.674   3.874   2.532 -0.6506 -2.5144  0.0131
    2MOL    H34  416   6.811   3.912   2.439  0.2800  1.8851 -1.0642
    2MOL    H35  417   6.596   3.726   2.349  0.4009  0.8859  1.4550
    2MOL    H36  418   6.736   3.767   2.252  2.8126 -0.7228  0.5429
    2MOL    H37  419   6.874   3.634   2.421  0.1397 -0.4048  1.1266
    2MOL    H38  420   6.735   3.529   2.403 -0.1381 -0.5494  0.2212
    2MOL    H39  421   6.727   3.631   2.529 -0.9009 -4.2844 -0.8751
    2MOL    C40  422   6.821   4.282   2.462 -1.0089 -0.2183  0.1697
    2MOL    C41  423   6.972   4.309   2.436 -0.2845  0.4163 -0.4503
    2MOL    C42  424   7.055   4.171   2.435 -0.1383 -1.2436  0.4711
    2MOL    C43  425   7.195   4.196   2.382  0.6265  0.1433  0.7491
    2MOL    C44  426   7.283   4.066   2.392 -0.0332  0.1393  0.1682
    2MOL    C45  427   7.436   4.088   2.389  0.2222 -0.5551 -0.2204
    2MOL    O46  428   7.025   4.394   2.540 -0.3738  0.2573 -0.1915
    2MOL    H47  429   6.816   4.248   2.566 -1.2746  0.5760  0.4183
    2MOL    H48  430   6.754   4.367   2.466 -0.5584  0.1446  0.0806
    2MOL    H49  431   6.976   4.362   2.341 -1.9790  0.0438 -0.7593
    2MOL    H50  432   7.057   4.115   2.529  1.1833 -0.3706  0.9681
    2MOL    H51  433   7.012   4.106   2.358  2.6957 -2.1683 -0.3745
    2MOL    H52  434   7.243   4.268   2.448 -3.3746 -0.0055  4.0005
    2MOL    H53  435   7.199   4.238   2.282 -0.5519 -2.8523 -0.5921
    2MOL    H54  436   7.258   4.007   2.480 -0.8586  0.7528  0.3517
    2MOL    H55  437   7.261   4.000   2.309  0.2320  0.7924 -0.4286
    2MOL    H56  438   7.496   4.000   2.415 -0.5413 -1.0331 -0.0280
    2MOL    H57  439   7.461   4.131   2.293 -0.8939  1.5249  0.3837
    2MOL    H58  440   7.464   4.158   2.468  0.7775  0.1244 -1.0253
    2MOL    C59  441   7.067   4.524   2.482 -0.1317  0.1540  0.3463
    2MOL    C60  442   7.155   4.597   2.582 -0.3755  0.0349 -0.0305
    2MOL    C61  443   7.294   4.540   2.606 -0.3469  0.1920  0.2149
    2MOL    C62  444   7.348   4.598   2.733  0.2186 -0.2520 -0.0158
    2MOL    C63  445   7.477   4.540   2.775  0.4474 -0.4891  0.6112
    2MOL    C64  446   7.523   4.612   2.893  0.4061  0.3730  0.0159
    2MOL    O65  447   7.170   4.733   2.536 -0.2688  0.1358 -0.4404
    2MOL    H66  448   6.985   4.584   2.443 -1.7591 -3.1133 -1.5266
    2MOL    H67  449   7.123   4.507   2.389 -0.2096 -0.0738  0.3405
    2MOL    H68  450   7.095   4.599   2.673 -1.4727  0.3065 -0.7520
    2MOL    H69  451   7.361   4.550   2.520 -0.3085  0.2026  0.2462
    2MOL    H70  452   7.281   4.432   2.616 -0.6086  0.3326  1.4058
    2MOL    H71  453   7.269   4.598   2.808 -0.5855 -1.6147 -0.8430
    2MOL    H72  454   7.360   4.706   2.721 -1.7421 -0.0726 -0.4219
    2MOL    H73  455   7.554   4.548   2.698 -0.8258  0.9564 -0.5357
    2MOL    H74  456   7.451   4.436   2.793  1.1486 -0.8069 -0.1428
    2MOL    H75  457   7.617   4.579   2.939 -1.0015 -0.8138  2.1264
    2MOL    H76  458   7.548   4.716   2.870 -1.1705  0.8231  0.2995
    2MOL    H77  459   7.441   4.613   2.965 -0.9886 -3.4079 -1.4229
    2MOL    C78  460   7.091   4.824   2.617 -0.2972  0.2503  0.7609
    2MOL    C79  461   7.122   4.959   2.551 -0.3895 -0.0888 -0.4442
    2MOL    C80  462   7.082   5.074   2.641 -0.3687  0.6392  0.2665
    2MOL    C81  463   6.930   5.098   2.668  0.1346 -0.3522  0.8516
    2MOL    C82  464   6.916   5.215   2.769 -0.3858  0.0903  0.4153
    2MOL    C83  465   6.772   5.253   2.788  0.1929 -0.2709 -0.8792
    2MOL    O84  466   7.056   4.967   2.425  0.5520  0.2915 -0.2480
    2MOL    H85  467   7.129   4.819   2.720  2.4623 -1.8786 -0.2895
    2MOL    H86  468   6.983   4.812   2.624 -0.4163  1.9135  1.9499
    2MOL    H87  469   7.231   4.965   2.543 -0.3537 -1.5393 -1.2228
    2MOL    H88  470   7.145   5.043   2.725 -0.5313 -1.4635 -0.3673
    2MOL    H89  471   7.121   5.167   2.599 -1.0662 -0.0793 -2.0536
    2MOL    H90  472   6.876   5.011   2.705 -4.8226  1.1716 -2.2987
    2MOL    H91  473   6.880   5.121   2.574  0.6059 -2.0969  0.1671
    2MOL    H92  474   6.958   5.192   2.867  2.7142  1.5992 -0.4714
    2MOL    H93  475   6.966   5.302   2.726 -1.6321 -0.2130 -1.6970
    2MOL    H94  476   6.721   5.160   2.813  2.2714 -1.5297 -1.1782
    2MOL    H95  477   6.723   5.284   2.696 -0.6051 -1.0940 -0.7328
    2MOL    H96  478   6.748   5.320   2.871  0.1975 -2.9977  1.4034
    2MOL    C97  479   7.132   5.042   2.327  0.1478 -0.4722 -1.0079
    2MOL    C98  480   7.056   5.043   2.189  0.4790 -0.5525 -0.6533
    2MOL    C99  481   7.114   5.146   2.090  0.1092  0.4249  0.8144
    2MOL   C100  482   7.054   5.156   1.952  0.6102 -0.6507  0.6952
    2MOL   C101  483   7.138   5.261   1.876  0.5406 -0.6169  0.2208
    2MOL   C102  484   7.097   5.291   1.736 -0.1973 -0.2209 -0.5898
    2MOL   O103  485   7.067   4.923   2.114  0.7247 -0.7295 -0.3384
    2MOL   H104  486   7.228   4.993   2.307  0.2705 -1.5936  2.0036
    2MOL   H105  487   7.148   5.145   2.359 -0.0490 -0.7441 -0.0088
    2MOL   H106  488   6.953   5.071   2.212  1.1032  0.0921  1.5541
    2MOL   H107  489   7.221   5.131   2.076  0.2017  1.4904  0.3249
    2MOL   H108  490   7.119   5.242   2.141  1.8965  1.4319 -1.1741
    2MOL   H109  491   6.950   5.188   1.955  0.7214  0.3951 -3.4757
    2MOL   H110  492   7.056   5.055   1.912  0.1225 -0.5796  0.4817
    2MOL   H111  493   7.243   5.234   1.865  1.7559  3.3935  0.9600
    2MOL   H112  494   7.144   5.351   1.938 -1.6784  1.3726 -2.3541
    2MOL   H113  495   7.159   5.359   1.678 -0.6778 -2.3075 -3.7489
    2MOL   H114  496   7.078   5.198   1.681 -2.0255 -2.0851  3.0577
    2MOL   H115  497   6.996   5.331   1.743 -0.2367 -0.5055  0.4433
    2MOL   C116  498   7.009   4.810   2.177 -0.7768  0.3771  0.1117
    2MOL   C117  499   6.971   4.704   2.070 -0.1554 -0.3150  0.3570
    2MOL   C118  500   6.884   4.594   2.125 -0.5942 -0.1197 -0.5026
    2MOL   C119  501   6.816   4.510   2.021 -0.3316  0.1213  0.4623
    2MOL   C120  502   6.764   4.371   2.073  0.2358 -0.2646  0.0775
    2MOL   C121  503   6.855   4.253   2.064  0.4748 -0.0292 -0.3959
    2MOL   O122  504   7.081   4.632   1.999  0.2010 -0.6421 -0.5226
    2MOL   H123  505   7.083   4.763   2.242 -2.8568 -1.0477  1.5206
    2MOL   H124  506   6.932   4.843   2.247  0.1324 -0.9592  1.7741
    2MOL   H125  507   6.912   4.742   1.987 -1.1366 -1.6362  0.4466
    2MOL   H126  508   6.942   4.527   2.189  2.4469  1.5919 -1.3598
    2MOL   H127  509   6.800   4.641   2.177 -1.2222 -0.9376 -0.7679
    2MOL   H128  510   6.869   4.506   1.926 -1.1020 -0.2999  0.0498
    2MOL   H129  511   6.728   4.559   1.977 -0.5460 -2.3040 -1.8892
    2MOL   H130  512   6.743   4.382   2.179  1.1036 -0.5064  0.2792
    2MOL   H131  513   6.676   4.340   2.017 -0.0345 -0.6182  0.7014
    2MOL   H132  514   6.955   4.285   2.094 -0.3428  1.6911  0.6171
    2MOL   H133  515   6.826   4.167   2.125  0.9819  0.2222  0.2111
    2MOL   H134  516   6.866   4.211   1.965  1.0939 -0.1250 -0.2854
    2MOL   C135  517   7.156   4.703   1.906 -0.4237 -0.0858  0.5414
    2MOL   C136  518   7.288   4.762   1.958  0.5878 -0.1068 -0.2398
    2MOL   C137  519   7.340   4.879   1.883  0.2482  0.1176 -0.1444
    2MOL   C138  520   7.353   4.886   1.731  0.4464  0.9261 -0.1813
    2MOL   C139  521   7.438   4.773   1.675  0.3759  0.1366  0.4119
    2MOL   C140  522   7.585   4.769   1.730  0.1318 -0.6547  0.3185
    2MOL   O141  523   7.383   4.666   1.962 -0.3242 -0.3232 -0.1896
    2MOL   H142  524   7.181   4.633   1.826 -1.1609 -0.5758  0.7349
    2MOL   H143  525   7.104   4.778   1.847  0.4592 -1.0696 -1.5313
    2MOL   H144  526   7.278   4.812   2.054  0.5798  1.1594 -0.8910
    2MOL   H145  527   7.277   4.963   1.909 -0.4191 -0.6425  0.7064
    2MOL   H146  528   7.438   4.906   1.924 -0.7101 -0.6392  2.7318
    2MOL   H147  529   7.384   4.982   1.692  0.3753  0.9482 -0.1831
    2MOL   H148  530   7.255   4.864   1.689  0.1909  1.1699  0.2829
    2MOL   H149  531   7.438   4.794   1.568 -0.7160  0.9281  0.5642
    2MOL   H150  532   7.391   4.678   1.702 -0.1151  0.2945  0.1089
    2MOL   H151  533   7.584   4.767   1.839 -0.8987  4.1732  0.5179
    2MOL   H152  534   7.643   4.696   1.674  0.6765  0.8171 -1.0761
    2MOL   H153  535   7.644   4.858   1.709 -0.1485 -0.7733 -1.0528
    2MOL   C154  536   7.369   4.569   2.060  0.5229  0.0572  0.4486
    2MOL   C155  537   7.508   4.498   2.067  0.4195  0.2049 -0.3385
    2MOL   C156  538   7.520   4.425   2.207  0.0353  0.2809  0.3580
    2MOL   C157  539   7.665   4.356   2.224  0.2678 -0.3072 -0.4352
    2MOL   C158  540   0.008   4.449   2.206  0.1911  0.1829 -0.5493
    2MOL   C159  541   0.127   4.364   2.245 -0.0103  0.4056  0.6957
    2MOL   O160  542   7.511   4.387   1.970  0.0102 -0.3239 -0.2854
    2MOL   H161  543   7.286   4.505   2.030  1.8175 -0.9332 -1.1449
    2MOL   H162  544   7.348   4.635   2.144 -3.2626 -1.4723  0.7896
    2MOL   H163  545   7.598   4.558   2.052  0.7170 -0.3356 -0.7672
    2MOL   H164  546   7.441   4.349   2.211  0.0133  0.0891 -2.6841
    2MOL   H165  547   7.504   4.498   2.286 -2.5800 -0.6817  0.7707
    2MOL   H166  548   7.671   4.269   2.159  1.0527  0.7573 -1.8082
    2MOL   H167  549   7.660   4.328   2.329 -0.3718  1.8372  0.1284
    2MOL   H168  550   0.017   4.486   2.104  1.6768  1.4677  0.0449
    2MOL   H169  551   7.772   4.532   2.273  0.0002 -2.1936  2.4653
    2MOL   H170  552   0.107   4.327   2.346  1.7224  0.9958  1.2775
    2MOL   H171  553   0.214   4.429   2.242  1.6692 -1.6666  2.2942
    2MOL   H172  554   0.152   4.285   2.173  0.6194 -1.2918  2.7246
    2MOL   C173  555   7.557   4.429   1.843 -0.0908  0.0230 -0.5573
    2MOL   C174  556   7.535   4.310   1.743  0.4553 -0.0811 -0.1500
    2MOL   C175  557   7.491   4.354   1.602 -0.6203  0.2685 -0.4829
    2MOL   C176  558   7.609   4.397   1.511  0.2383 -0.1201  0.0393
    2MOL   C177  559   7.562   4.493   1.400 -0.2620 -0.1089  0.8918
    2MOL   C178  560   7.681   4.521   1.308 -0.8553 -0.4910 -0.1376
    2MOL   O179  561   7.646   4.228   1.731 -0.1583  0.1345  0.1857
    2MOL   H180  562   7.658   4.469   1.853 -0.1715 -0.6094  3.2248
    2MOL   H181  563   7.486   4.508   1.817 -1.1470 -0.7302  0.0021
    2MOL   H182  564   7.456   4.243   1.776  0.0115  1.1694  1.3860
    2MOL   H183  565   7.457   4.267   1.546  1.4176  0.0523 -1.4162
    2MOL   H184  566   7.406   4.422   1.599 -1.1499 -0.4048 -0.8818
    2MOL   H185  567   7.669   4.461   1.574  1.8260  0.6724 -2.1917
    2MOL   H186  568   7.669   4.312   1.480 -0.4598 -1.1863  1.5740
    2MOL   H187  569   7.479   4.451   1.344  1.9035 -0.6961 -2.0615
    2MOL   H188  570   7.531   4.587   1.445 -0.8980 -0.7710  1.8374
    2MOL   H189  571   7.651   4.578   1.220 -1.6461 -1.3850 -0.4550
    2MOL   H190  572   7.742   4.438   1.271 -0.4281 -0.1150 -0.2857
    2MOL   H191  573   7.760   4.583   1.352  0.1653 -0.0344 -2.5164
    2MOL   C192  574   7.681   4.149   1.842  0.2412  0.1733 -0.9900
    2MOL   C193  575   0.052   4.136   1.853  0.2601  0.9387  0.0923
    2MOL   C194  576   0.090   4.057   1.980 -0.0865  0.3354 -0.1437
    2MOL   C195  577   0.239   4.007   1.978 -0.0980  0.0898 -0.1497
    2MOL   C196  578   0.294   3.941   2.102 -0.1897 -0.1660 -0.6000
    2MOL   C197  579   0.362   4.042   2.187  0.1010  0.4675  0.4348
    2MOL   O198  580   0.110   4.260   1.865 -0.1708 -0.6930 -0.1666
    2MOL   H199  581   7.651   4.194   1.937  3.1995  1.9601 -0.8655
    2MOL   H200  582   7.642   4.047   1.835 -1.7473  1.0187 -3.0398
    2MOL   H201  583   0.086   4.092   1.759  0.8466  0.2717  0.6163
    2MOL   H202  584   0.081   4.117   2.070  1.7292 -2.2929  1.8566
    2MOL   H203  585   0.024   3.972   1.992  1.7029 -0.9235  1.0066
    2MOL   H204  586   0.305   4.082   1.932  1.4130 -0.5146  0.9957
    2MOL   H205  587   0.245   3.937   1.895 -0.9067 -0.0589 -0.0847
    2MOL   H206  588   0.220   3.886   2.161 -0.9903 -0.6156 -1.9729
    2MOL   H207  589   0.363   3.863   2.069  1.6015  0.7439  0.9537
    2MOL   H208  590   0.410   4.109   2.116 -0.7959  0.0759 -0.5764
    2MOL   H209  591   0.299   4.094   2.258 -0.2216  1.5286 -0.6094
    2MOL   H210  592   0.437   3.989   2.246 -0.0760  0.3521  0.5540
    2MOL   C211  593   0.146   4.320   1.741  0.1966 -0.8272  0.0973
    2MOL   C212  594   0.197   4.461   1.770 -0.4522 -0.2511  0.0820
    2MOL   C213  595   0.197   4.547   1.642  0.2598  0.1381  0.7229
    2MOL   C214  596   0.168   4.688   1.674 -0.1183  0.6970 -0.0328
    2MOL   C215  597   0.167   4.792   1.566  0.5909  0.0199  0.3392
    2MOL   C216  598   0.157   4.943   1.605  0.7477 -0.0158  0.4997
    2MOL   O217  599   0.329   4.482   1.821 -0.0711 -0.5231 -0.3289
    2MOL   H218  600   0.055   4.331   1.682  0.7070  0.6042 -0.4361
    2MOL   H219  601   0.217   4.257   1.686  0.1806 -0.1422 -0.7237
    2MOL   H220  602   0.128   4.494   1.848 -0.2752  0.0430  0.1134
    2MOL   H221  603   0.283   4.530   1.576 -0.8439  0.5290 -0.8402
    2MOL   H222  604   0.118   4.514   1.575 -0.7884 -0.2239  2.1206
    2MOL   H223  605   0.064   4.684   1.705 -0.7664  0.2053 -2.1435
    2MOL   H224  606   0.243   4.720   1.746 -2.2896  2.2873  1.6027
    2MOL   H225  607   0.257   4.791   1.504  0.0102  1.4229 -0.5250
    2MOL   H226  608   0.088   4.775   1.494  0.1838  1.3628  0.4589
    2MOL   H227  609   0.109   5.003   1.528  0.3146  1.7732  2.1198
    2MOL   H228  610   0.255   4.987   1.624  1.1286 -0.7389  0.2322
    2MOL   H229  611   0.102   4.966   1.696  0.5634  0.6508  0.2211
    2MOL   C230  612   0.347   4.404   1.941  0.2291  0.9675 -0.4734
    2MOL   C231  613   0.454   4.450   2.037 -0.3170 -0.0658  0.3400
    2MOL   C232  614   0.451   4.596   2.069  0.6429 -0.0198 -0.1355
    2MOL   C233  615   0.536   4.645   2.188 -0.0099  0.3926  0.0487
    2MOL   C234  616   0.527   4.793   2.235 -0.0872 -0.0965 -0.2029
    2MOL   C235  617   0.595   4.808   2.376 -0.5336  0.3832 -0.1207
    2MOL   O236  618   0.581   4.408   1.989  0.0761 -0.5116 -0.1744
    2MOL   H237  619   0.258   4.411   2.003  1.3141  0.5504  1.1566
    2MOL   H238  620   0.362   4.302   1.907 -2.2217  0.1887  0.6919
    2MOL   H239  621   0.436   4.398   2.131  1.6227 -2.1547 -0.4061
    2MOL   H240  622   0.352   4.630   2.098  1.6193  1.4953  1.5173
    2MOL   H241  623   0.475   4.654   1.980  0.8108 -1.5449 -1.1078
    2MOL   H242  624   0.639   4.627   2.157  0.5537 -0.3493  2.2215
    2MOL   H243  625   0.529   4.581   2.276  1.7702  0.2322  0.0961
    2MOL   H244  626   0.588   4.853   2.167 -0.1671 -0.2142 -0.3778
    2MOL   H245  627   0.424   4.831   2.235 -0.0667 -0.0418  0.0130
    2MOL   H246  628   0.554   4.742   2.452 -1.0735  0.9183  0.0614
    2MOL   H247  629   0.568   4.912   2.398  0.3510  0.5393  0.2775
    2MOL   H248  630   0.703   4.799   2.386 -0.3973  0.2981 -1.6096
    2MOL   C249  631   0.659   4.321   2.068  0.1448  0.0877 -0.2097
    2MOL   C250  632   0.791   4.289   1.998  0.4491  0.3519 -1.0055
    2MOL   C251  633   0.856   4.167   2.065 -0.3359  0.4272  0.1617
    2MOL   C252  634   1.000   4.148   2.024  0.0548  0.3813  0.1295
    2MOL   C253  635   1.070   4.017   2.062 -0.1413 -0.1814 -1.3355
    2MOL   C254  636   1.033   3.900   1.976  0.0587  0.3935  0.7180
    2MOL   O255  637   0.876   4.407   2.027 -0.6796 -0.4181  0.8895
    2MOL   H256  638   0.676   4.349   2.172 -0.9202  3.1566 -0.8176
    2MOL   H257  639   0.598   4.230   2.066  0.0882  0.1136  0.2667
    2MOL   H258  640   0.780   4.270   1.891  3.5970 -1.6003 -1.0450
    2MOL   H259  641   0.860   4.166   2.174  2.4425  2.3462  0.1136
    2MOL   H260  642   0.804   4.077   2.033 -0.9406  0.2291  1.6636
    2MOL   H261  643   0.996   4.162   1.916  0.3462 -1.0920 -0.0778
    2MOL   H262  644   1.057   4.232   2.063  0.2364  1.2871 -2.0029
    2MOL   H263  645   1.175   4.043   2.051 -0.0080 -1.3288 -2.9505
    2MOL   H264  646   1.057   3.992   2.168 -1.6622  1.8638 -0.9992
    2MOL   H265  647   1.093   3.902   1.885  0.3422  0.1147  0.8965
    2MOL   H266  648   0.928   3.901   1.948  0.2773 -0.5536 -0.1585
    2MOL   H267  649   1.059   3.803   2.018 -2.8648 -1.4770 -1.5923
    2MOL   C268  650   0.867   4.511   1.924  0.8173 -0.1041 -0.1542
    2MOL   C269  651   0.958   4.638   1.958  0.4885  0.5106  0.3981
    2MOL   C270  652   0.908   4.760   1.876  0.6540  0.2594  0.7666
    2MOL   C271  653   0.979   4.897   1.888  0.7442  0.2635 -0.3432
    2MOL   C272  654   0.919   5.021   1.817  1.0833 -0.1401 -0.0153
    2MOL   C273  655   0.972   5.154   1.868 -0.3127 -0.1680 -0.2449
    2MOL   O274  656   1.098   4.604   1.930  0.3782 -0.3767  0.4743
    2MOL   H275  657   0.766   4.552   1.920  0.9919  0.2870 -0.5676
    2MOL   H276  658   0.889   4.463   1.829 -3.0228 -0.9154 -0.7076
    2MOL   H277  659   0.950   4.666   2.063  0.4116  0.0650  0.5135
    2MOL   H278  660   0.910   4.737   1.769  3.3413  1.0248  0.6398
    2MOL   H279  661   0.806   4.778   1.910  0.5774 -0.1724  0.7748
    2MOL   H280  662   0.986   4.918   1.995  1.5493  0.2394 -0.3892
    2MOL   H281  663   1.073   4.870   1.840  1.3732 -1.0520  1.5962
    2MOL   H282  664   0.945   5.012   1.711  2.0711  1.2449  0.0955
    2MOL   H283  665   0.812   5.030   1.831  1.1896  1.0599  0.0159
    2MOL   H284  666   1.080   5.163   1.856 -0.2591  1.5233  1.2309
    2MOL   H285  667   0.922   5.236   1.816 -1.8409 -1.3170 -0.6292
    2MOL   H286  668   0.956   5.166   1.975  0.8134  0.0655 -0.0932
    2MOL   C287  669   1.160   4.511   2.016 -0.2012  0.7608 -0.3381
    2MOL   C288  670   1.318   4.538   2.003  0.6389  0.0965 -0.0814
    2MOL   C289  671   1.394   4.410   2.035  0.4853  0.4811  0.1324
    2MOL   C290  672   1.547   4.410   2.009  0.5961  0.2235 -0.6550
    2MOL   C291  673   1.626   4.283   2.055 -0.2091 -0.5627  0.0959
    2MOL   C292  674   1.777   4.284   2.036  0.0681 -0.4526 -0.7264
    2MOL   O293  675   1.350   4.647   2.086  0.2353  0.1739 -0.2926
    2MOL   H294  676   1.142   4.414   1.970 -1.2163  2.1363 -3.0011
    2MOL   H295  677   1.123   4.513   2.118 -0.6040  1.5701 -0.4900
    2MOL   H296  678   1.338   4.560   1.898 -1.9214  0.1044 -0.6083
    2MOL   H297  679   1.366   4.381   2.136  2.0294  0.8118  0.6674
    2MOL   H298  680   1.348   4.332   1.974 -1.2560  1.5168  0.0740
    2MOL   H299  681   1.559   4.431   1.902  0.0430  0.7788 -0.6126
    2MOL   H300  682   1.587   4.494   2.065  0.9411 -1.1636  1.1984
    2MOL   H301  683   1.575   4.197   2.010  0.5665 -1.6042  1.1640
    2MOL   H302  684   1.602   4.288   2.161 -1.1190  1.2267 -0.1795
    2MOL   H303  685   1.833   4.352   2.099  1.2632 -0.7265 -1.4746
    2MOL   H304  686   1.811   4.184   2.063 -0.8445 -0.1795  1.5822
    2MOL   H305  687   1.804   4.305   1.932  0.9871  1.8307 -0.0600
    2MOL   C306  688   1.295   4.775   2.050  0.2967 -0.1928  0.4744
    2MOL   C307  689   1.351   4.897   2.128 -0.1054  0.5106  0.4409
    2MOL   C308  690   1.271   5.019   2.088  0.4681  0.1616  0.0131
    2MOL   C309  691   1.285   5.136   2.178  0.4350  0.2320  0.6865
    2MOL   C310  692   1.195   5.248   2.140  0.1018  0.4941  0.9911
    2MOL   C311  693   1.209   5.372   2.229 -0.0452  0.3549 -0.0319
    2MOL   O312  694   1.488   4.925   2.084 -0.5628 -0.4594 -0.1077
    2MOL   H313  695   1.308   4.792   1.943 -0.9138  0.5128  0.4275
    2MOL   H314  696   1.190   4.778   2.080 -0.3028  0.2930 -1.6064
    2MOL   H315  697   1.336   4.894   2.236  1.0789 -0.9365  0.5864
    2MOL   H316  698   1.163   5.007   2.101  0.2976  1.0515 -0.5407
    2MOL   H317  699   1.297   5.051   1.987  0.7076  0.5340  0.1923
    2MOL   H318  700   1.255   5.108   2.279 -3.1429 -0.4445 -0.4915
    2MOL   H319  701   1.393   5.151   2.178  0.5835 -0.7821 -0.0028
    2MOL   H320  702   1.088   5.231   2.147  0.0313  1.0842  1.4225
    2MOL   H321  703   1.211   5.266   2.034 -0.7659 -0.2428  0.7360
    2MOL   H322  704   1.136   5.448   2.202 -0.5874  0.5140  1.8231
    2MOL   H323  705   1.195   5.342   2.333  2.2708 -3.2059 -0.6820
    2MOL   H324  706   1.310   5.412   2.221  0.5030 -1.4675 -2.8487
    2MOL   C325  707   1.594   4.871   2.159 -0.0232  0.8264 -0.0503
    2MOL   C326  708   1.733   4.931   2.112 -0.1105  0.3069  0.1788
    2MOL   C327  709   1.848   4.850   2.180 -0.0671 -0.8416 -0.5028
    2MOL   C328  710   1.988   4.909   2.153 -0.0282 -0.0293 -0.1727
    2MOL   C329  711   2.048   4.899   2.015  0.5283  0.2754 -0.0597
    2MOL   C330  712   2.195   4.938   2.016 -0.2295 -0.1407 -0.1624
    2MOL   O331  713   1.755   5.063   2.155 -0.1269 -0.0757 -0.1133
    2MOL   H332  714   1.603   4.764   2.140 -1.6479  0.6989 -0.1574
    2MOL   H333  715   1.579   4.901   2.262  1.4658 -0.8940  0.6823
    2MOL   H334  716   1.757   4.921   2.006  1.6286 -4.3369  0.8563
    2MOL   H335  717   1.834   4.852   2.288  0.1783  2.4291 -0.4771
    2MOL   H336  718   1.846   4.746   2.148 -0.9415 -1.3622  1.2320
    2MOL   H337  719   1.989   5.011   2.192  0.4403  1.2602 -3.3571
    2MOL   H338  720   2.053   4.860   2.225 -0.5708  0.2525  0.5037
    2MOL   H339  721   2.029   4.798   1.978  3.0757 -0.1076 -0.3803
    2MOL   H340  722   1.996   4.967   1.947  1.6860 -0.0219 -1.2438
    2MOL   H341  723   2.214   5.045   2.031 -4.3851  1.0999 -2.7416
    2MOL   H342  724   2.239   4.871   2.089 -1.4300 -0.0369  0.6678
    2MOL   H343  725   2.242   4.916   1.920 -1.4556 -2.1383 -0.3348
    2MOL   C344  726   1.710   5.165   2.076  0.0599 -0.2333 -0.1248
    2MOL   C345  727   1.697   5.288   2.162 -0.2129 -0.5217 -0.1307
    2MOL   C346  728   1.636   5.403   2.078 -1.1209  0.6017  0.1756
    2MOL   C347  729   1.617   5.531   2.158 -0.5905 -0.8081  0.5200
    2MOL   C348  730   1.601   5.658   2.071 -0.3384 -0.2890 -0.0823
    2MOL   C349  731   1.578   5.774   2.167 -0.0520  0.0064  0.1087
    2MOL   O350  732   1.618   5.260   2.276 -0.0669 -0.8966 -0.1320
    2MOL   H351  733   1.621   5.135   2.020 -0.1813 -1.2708  0.7926
    2MOL   H352  734   1.781   5.187   1.996 -0.7569 -0.2504 -0.8628
    2MOL   H353  735   1.796   5.327   2.186  0.6953 -1.7266 -1.8020
    2MOL   H354  736   1.536   5.377   2.044 -1.6251  3.2049 -0.4624
    2MOL   H355  737   1.698   5.423   1.991 -1.7187  0.1871 -0.3478
    2MOL   H356  738   1.704   5.543   2.222 -0.8446 -0.7519  0.8573
    2MOL   H357  739   1.534   5.538   2.229  0.8958  1.1922  2.1081
    2MOL   H358  740   1.514   5.640   2.009 -0.4806  0.7022 -0.1679
    2MOL   H359  741   1.681   5.676   1.999 -0.7439  1.1530 -0.1675
    2MOL   H360  742   1.484   5.782   2.222  0.6555  4.3317  0.8865
    2MOL   H361  743   1.570   5.868   2.111  2.5325  1.5315  2.1905
    2MOL   H362  744   1.669   5.791   2.224 -1.4251  0.6790  2.1654
    2MOL   C363  745   1.696   5.243   2.400 -0.4793 -0.1765  0.6510
    2MOL   C364  746   1.599   5.217   2.516 -0.0785  0.0918 -0.7942
    2MOL   C365  747   1.512   5.341   2.552 -0.1105 -0.5224 -0.2955
    2MOL   C366  748   1.428   5.319   2.681  0.4428  0.0867  0.3349
    2MOL   C367  749   1.345   5.440   2.722 -0.1934 -0.2513  0.5775
    2MOL   C368  750   1.239   5.480   2.622 -0.0320 -0.5021  0.0482
    2MOL   O369  751   1.531   5.098   2.474 -0.4232 -0.2249 -0.0912
    2MOL   H370  752   1.741   5.340   2.423  1.1951 -1.2997  2.1785
    2MOL   H371  753   1.763   5.158   2.386  0.8471  0.9977 -0.3408
    2MOL   H372  754   1.657   5.194   2.606  1.9965  1.0258 -1.8361
    2MOL   H373  755   1.569   5.430   2.580 -1.5251  0.5540 -0.8097
    2MOL   H374  756   1.448   5.379   2.473  0.8616  1.9087  0.0339
    2MOL   H375  757   1.370   5.232   2.648  0.9896 -0.5240  0.9589
    2MOL   H376  758   1.495   5.282   2.758 -0.9496 -2.0458  0.5638
    2MOL   H377  759   1.291   5.423   2.816 -1.9026 -1.0362 -0.5145
    2MOL   H378  760   1.413   5.524   2.727 -2.3772  1.6441 -0.4582
    2MOL   H379  761   1.282   5.502   2.524  0.8271  1.7321  0.8910
    2MOL   H380  762   1.160   5.406   2.613 -0.5305 -0.1692  1.5931
    2MOL   H381  763   1.186   5.567   2.660  1.4266  0.2813  0.3340
    2MOL   H382  764   1.524   5.101   2.380  0.4612  0.0079 -0.1551
    3MOL     C1  765   3.632   5.632   6.528  0.4458 -0.2723 -0.8119
    3MOL     C2  766   3.724   5.591   6.644  0.5415  0.2765  0.4907
    3MOL     C3  767   3.771   5.444   6.623  0.0031  0.2439  0.0771
    3MOL     C4  768   3.655   5.346   6.631 -0.1351  0.7061  0.2116
    3MOL     C5  769   3.708   5.199   6.634 -1.0303 -0.5042 -0.0986
    3MOL     C6  770   3.751   5.147   6.495 -0.0904 -0.1324  0.0842
    3MOL     O7  771   3.827   5.693   6.640 -0.8366 -0.3743  0.1858
    3MOL     H8  772   3.604   5.737   6.537 -3.3271 -1.2001 -0.5615
    3MOL     H9  773   3.541   5.576   6.552  1.6815 -1.9031  0.1894
    3MOL    H10  774   3.663   5.597   6.733 -0.2385  0.4371 -0.0510
    3MOL    H11  775   3.817   5.423   6.526 -1.0061 -1.2743 -0.0903
    3MOL    H12  776   3.848   5.406   6.691 -0.4096  0.4561  0.6632
    3MOL    H13  777   3.602   5.346   6.727 -2.1172 -2.7994 -0.8170
    3MOL    H14  778   3.580   5.359   6.553  0.0008  0.3808  0.0268
    3MOL    H15  779   3.798   5.195   6.696 -0.6419 -1.0713 -0.6902
    3MOL    H16  780   3.642   5.125   6.677  1.2057 -2.2751  0.3473
    3MOL    H17  781   3.665   5.173   6.434  0.4893  1.4176 -0.0874
    3MOL    H18  782   3.838   5.207   6.469 -0.6405  1.0696  0.9674
    3MOL    H19  783   3.787   5.044   6.493  3.8529  1.1800 -0.1779
    3MOL    H20  784   3.660   5.594   6.430  3.2251 -3.6174  1.1432
    3MOL    C21  785   3.923   5.689   6.741 -0.0758  0.5231  0.4285
    3MOL    C22  786   4.034   5.783   6.704  0.1555 -0.1123  0.0369
    3MOL    C23  787   4.095   5.848   6.832 -0.1492  0.8491  0.2177
    3MOL    C24  788   4.026   5.984   6.870 -0.1583 -0.1477 -0.2282
    3MOL    C25  789   4.094   6.055   6.987 -0.3773 -0.3547  0.6071
    3MOL    C26  790   4.066   5.997   7.121  0.0118 -0.2315 -0.0002
    3MOL    O27  791   4.136   5.712   6.639 -0.3230 -0.4862  0.1980
    3MOL    H28  792   3.865   5.720   6.828 -1.6154 -0.1017 -0.3444
    3MOL    H29  793   3.976   5.596   6.763  0.2603  0.8038  0.8106
    3MOL    H30  794   3.993   5.860   6.640 -0.0555  1.8492  2.4712
    3MOL    H31  795   4.201   5.865   6.812 -0.0865  0.4832  0.2327
    3MOL    H32  796   4.093   5.782   6.919 -1.8748  2.4975  1.4683
    3MOL    H33  797   3.926   5.971   6.910  0.2696  0.3913  1.0720
    3MOL    H34  798   4.032   6.056   6.789  2.2099  0.6886  0.6275
    3MOL    H35  799   4.201   6.048   6.970 -0.5881 -1.2042 -0.4113
    3MOL    H36  800   4.056   6.157   6.990  1.0135  0.2817 -1.9250
    3MOL    H37  801   4.128   6.038   7.201 -0.8310  1.4012 -0.1659
    3MOL    H38  802   4.088   5.890   7.119 -1.2662 -0.5326  1.1967
    3MOL    H39  803   3.962   6.006   7.154  0.0154 -0.0134 -0.0499
    3MOL    C40  804   4.102   5.661   6.509 -0.7428  0.0975 -0.1216
    3MOL    C41  805   4.221   5.595   6.446 -0.1415 -0.5927  0.0319
    3MOL    C42  806   4.234   5.607   6.295 -0.4598 -0.6897 -0.4203
    3MOL    C43  807   4.127   5.538   6.214 -0.2557  0.0391 -0.3267
    3MOL    C44  808   4.140   5.566   6.063 -0.0876 -0.0227  0.1913
    3MOL    C45  809   4.061   5.468   5.980  0.1685  0.1035  0.4278
    3MOL    O46  810   4.228   5.456   6.486  0.1372 -0.7102  0.2596
    3MOL    H47  811   4.081   5.756   6.458 -0.5415 -0.6688 -1.6446
    3MOL    H48  812   4.016   5.594   6.513  0.4413 -1.3647  1.4655
    3MOL    H49  813   4.311   5.640   6.488  0.6613 -2.0239 -0.0931
    3MOL    H50  814   4.234   5.714   6.277  0.1638 -0.3246  1.5933
    3MOL    H51  815   4.329   5.567   6.260  0.7186  0.9346  0.8416
    3MOL    H52  816   4.031   5.574   6.251  0.6402  1.5365  0.5888
    3MOL    H53  817   4.127   5.432   6.241  0.9667 -0.3708 -1.8588
    3MOL    H54  818   4.114   5.670   6.046  1.8107  0.4599  0.1572
    3MOL    H55  819   4.243   5.569   6.026 -0.6939 -1.3305 -1.6956
    3MOL    H56  820   4.074   5.485   5.873  0.5438  0.5637  0.5453
    3MOL    H57  821   4.085   5.363   6.000 -0.2901 -0.1914 -0.5567
    3MOL    H58  822   3.956   5.483   6.005 -0.0826  1.2536 -1.2824
    3MOL    C59  823   4.360   5.405   6.511 -0.3064  0.0096 -0.6544
    3MOL    C60  824   4.351   5.271   6.586 -0.6527 -0.0676 -0.4655
    3MOL    C61  825   4.336   5.151   6.493  0.0803 -0.9475  0.2120
    3MOL    C62  826   4.213   5.142   6.396 -0.6125 -0.1790 -0.4673
    3MOL    C63  827   4.155   5.003   6.363  0.4084  0.3409  0.5727
    3MOL    C64  828   4.272   4.907   6.332  0.2866  0.1451 -0.0653
    3MOL    O65  829   4.469   5.241   6.662  0.1895 -0.6579  0.0222
    3MOL    H66  830   4.406   5.486   6.568 -3.4510  1.9646 -0.7845
    3MOL    H67  831   4.432   5.386   6.431  2.0421 -0.5750  1.5034
    3MOL    H68  832   4.265   5.272   6.654 -0.6278 -2.9884 -0.2948
    3MOL    H69  833   4.319   5.075   6.568  0.3255 -4.5813 -3.2847
    3MOL    H70  834   4.428   5.111   6.450  0.3666  1.3461 -1.4484
    3MOL    H71  835   4.234   5.206   6.310  2.5163 -1.5505 -0.8118
    3MOL    H72  836   4.131   5.199   6.439  0.0639  0.3219  0.1595
    3MOL    H73  837   4.096   5.008   6.272  1.1827 -1.4002 -0.0444
    3MOL    H74  838   4.097   4.971   6.450  0.7053 -1.1971  0.2276
    3MOL    H75  839   4.322   4.868   6.421 -1.3676  0.5004  1.0433
    3MOL    H76  840   4.237   4.814   6.288  1.8623 -0.6506  0.3262
    3MOL    H77  841   4.346   4.950   6.265  1.3575  0.1204  1.0694
    3MOL    C78  842   4.484   5.303   6.788  0.1691  0.0925  0.1254
    3MOL    C79  843   4.619   5.272   6.864  0.8115  0.6159  0.4657
    3MOL    C80  844   4.734   5.241   6.763 -0.1466 -0.5664  0.0783
    3MOL    C81  845   4.859   5.180   6.820  0.1657  0.5694 -0.0199
    3MOL    C82  846   4.963   5.152   6.721 -0.3574 -0.3048  0.6149
    3MOL    C83  847   5.099   5.105   6.776  0.1331  0.1525  0.4114
    3MOL    O84  848   4.583   5.165   6.940 -0.7689 -0.4940 -0.4269
    3MOL    H85  849   4.399   5.273   6.849  0.6622 -2.0670 -0.2016
    3MOL    H86  850   4.484   5.409   6.760  1.4161 -0.8957 -3.9364
    3MOL    H87  851   4.646   5.354   6.931  1.8911  0.4939  0.1920
    3MOL    H88  852   4.690   5.162   6.702 -2.3820  0.3391  0.4719
    3MOL    H89  853   4.742   5.328   6.697 -0.1627 -1.1833 -0.7426
    3MOL    H90  854   4.828   5.080   6.850 -2.1753  1.1795 -0.2967
    3MOL    H91  855   4.902   5.233   6.905 -0.0206  1.9696 -0.7813
    3MOL    H92  856   4.932   5.084   6.641 -1.1708 -2.5637  2.7810
    3MOL    H93  857   4.977   5.251   6.676  0.2801 -0.3286  0.7528
    3MOL    H94  858   5.176   5.090   6.700 -0.1343  1.6230 -0.1492
    3MOL    H95  859   5.097   5.013   6.836  0.2135  0.0556  0.2671
    3MOL    H96  860   5.125   5.189   6.840  0.6346 -0.1037  0.5513
    3MOL    C97  861   4.614   5.177   7.080  0.8815  0.6918 -0.5626
    3MOL    C98  862   4.544   5.063   7.161 -0.3743  0.2532 -0.3621
    3MOL    C99  863   4.606   5.040   7.297 -1.1487  0.2357  0.0348
    3MOL   C100  864   4.544   4.921   7.367 -0.6072  0.4804 -0.2822
    3MOL   C101  865   4.630   4.853   7.472 -0.5691 -0.7803  0.5692
    3MOL   C102  866   4.723   4.756   7.413  0.0406 -0.0190  0.3583
    3MOL   O103  867   4.410   5.096   7.187  0.2986 -0.0791  0.3204
    3MOL   H104  868   4.595   5.272   7.132 -1.5487  0.6616 -1.3348
    3MOL   H105  869   4.721   5.160   7.090  0.2657 -2.7718  0.7016
    3MOL   H106  870   4.544   4.969   7.105 -1.6948  0.1416 -0.1864
    3MOL   H107  871   4.611   5.117   7.374  0.9240 -0.4453  0.6277
    3MOL   H108  872   4.712   5.036   7.269 -1.0300  0.4239  0.4498
    3MOL   H109  873   4.520   4.848   7.290 -4.4571  1.7582 -0.4304
    3MOL   H110  874   4.441   4.946   7.393 -0.6698 -0.6752  0.6042
    3MOL   H111  875   4.566   4.789   7.533 -0.7912  0.9098  2.1852
    3MOL   H112  876   4.687   4.927   7.529  0.0620  0.8943 -2.1340
    3MOL   H113  877   4.682   4.672   7.356 -1.9650  2.5055 -2.1103
    3MOL   H114  878   4.800   4.787   7.342 -0.0228  0.0960  0.3385
    3MOL   H115  879   4.787   4.725   7.495  1.3561  2.6172  0.3794
    3MOL   C116  880   4.311   5.055   7.097 -0.1242 -0.0523 -0.6276
    3MOL   C117  881   4.168   5.118   7.120 -0.3354  0.5527  0.2621
    3MOL   C118  882   4.066   5.032   7.041 -0.2389 -0.0176 -0.5962
    3MOL   C119  883   3.917   5.069   7.042  0.3193 -0.6354 -0.8313
    3MOL   C120  884   3.833   4.955   6.991  0.2079  0.0464  0.4015
    3MOL   C121  885   3.693   5.017   6.953  0.2623  0.3668 -0.1966
    3MOL   O122  886   4.162   5.252   7.062  0.3439 -0.2402 -0.0162
    3MOL   H123  887   4.339   5.063   6.991 -1.2044  0.0189 -0.9116
    3MOL   H124  888   4.307   4.947   7.111 -4.4721 -0.0612 -1.3407
    3MOL   H125  889   4.137   5.105   7.224 -1.6907 -0.6763 -0.2666
    3MOL   H126  890   4.101   5.024   6.938 -0.1190  0.7633 -0.6171
    3MOL   H127  891   4.079   4.929   7.075 -0.8672  0.5572  1.4510
    3MOL   H128  892   3.898   5.156   6.979 -0.6115 -0.6928 -0.6270
    3MOL   H129  893   3.883   5.093   7.142 -2.1421 -1.1232 -1.5349
    3MOL   H130  894   3.884   4.914   6.904 -0.1054  3.0822 -1.2963
    3MOL   H131  895   3.819   4.874   7.063 -0.3965  0.5888  0.9022
    3MOL   H132  896   3.643   4.959   6.876 -0.3221  0.4678  0.1021
    3MOL   H133  897   3.629   5.051   7.034  1.0842  0.1509  0.5470
    3MOL   H134  898   3.707   5.112   6.901 -0.1086  0.1513 -0.6944
    3MOL   C135  899   4.214   5.349   7.151 -0.1348  0.8530 -0.1272
    3MOL   C136  900   4.205   5.495   7.101 -0.1027 -0.2186 -0.1781
    3MOL   C137  901   4.336   5.567   7.137 -0.0441  0.3905  0.3783
    3MOL   C138  902   4.350   5.703   7.066 -0.8408 -0.2186 -0.5880
    3MOL   C139  903   4.479   5.774   7.100  0.8618 -0.3160 -0.7371
    3MOL   C140  904   4.512   5.892   7.012 -0.0040 -0.6351 -0.0030
    3MOL   O141  905   4.098   5.570   7.156 -0.5878 -0.6054  0.2045
    3MOL   H142  906   4.153   5.344   7.241 -1.6787  3.4432 -0.9725
    3MOL   H143  907   4.317   5.317   7.168  0.0939 -0.4660 -3.6228
    3MOL   H144  908   4.190   5.493   6.993  0.0753 -0.9292 -0.1939
    3MOL   H145  909   4.328   5.577   7.245  0.9402  0.4005  0.4602
    3MOL   H146  910   4.420   5.503   7.109 -0.4151  0.3420 -0.6705
    3MOL   H147  911   4.261   5.764   7.080 -0.9032 -0.2208 -0.9615
    3MOL   H148  912   4.361   5.666   6.964 -2.1889  0.3790 -0.9626
    3MOL   H149  913   4.562   5.704   7.087  0.8488 -0.6766  0.9576
    3MOL   H150  914   4.472   5.801   7.205  0.0138  0.1726 -0.9157
    3MOL   H151  915   4.443   5.976   7.011  0.4497 -0.2387  1.2746
    3MOL   H152  916   4.606   5.931   7.050 -0.3816 -0.4841  0.7775
    3MOL   H153  917   4.538   5.862   6.910 -0.5344 -0.5689 -0.1614
    3MOL   C154  918   3.968   5.527   7.114 -0.3008  0.5053 -0.1056
    3MOL   C155  919   3.856   5.625   7.153 -0.2259 -0.3895 -0.4379
    3MOL   C156  920   3.726   5.586   7.080 -0.0897  0.2097 -0.2002
    3MOL   C157  921   3.612   5.691   7.114 -0.6116 -0.0094  0.2796
    3MOL   C158  922   3.470   5.646   7.064 -0.6531  0.5194  1.1437
    3MOL   C159  923   3.414   5.523   7.127  0.0222 -0.9076 -0.2636
    3MOL   O160  924   3.840   5.620   7.299  0.0847  0.1066  0.3476
    3MOL   H161  925   3.944   5.429   7.155 -0.4039  0.4514 -0.2928
    3MOL   H162  926   3.971   5.514   7.006 -1.9961 -2.8896  0.1748
    3MOL   H163  927   3.888   5.726   7.129 -0.1465 -0.1876  0.4847
    3MOL   H164  928   3.694   5.494   7.127  3.4921  0.8724  3.8084
    3MOL   H165  929   3.743   5.581   6.972 -1.2415 -1.2413 -0.3325
    3MOL   H166  930   3.636   5.788   7.071 -0.8416  0.0051  0.1815
    3MOL   H167  931   3.602   5.703   7.222 -2.6536  1.5387 -0.0513
    3MOL   H168  932   3.398   5.728   7.068  1.5123  2.5200  0.1374
    3MOL   H169  933   3.471   5.611   6.961 -0.1103  0.0632  1.3007
    3MOL   H170  934   3.472   5.436   7.099  1.3858 -0.9415  2.5201
    3MOL   H171  935   3.308   5.502   7.108 -0.9270  2.4669  0.8533
    3MOL   H172  936   3.417   5.517   7.235  1.5588  1.6445 -0.1280
    3MOL   C173  937   3.935   5.709   7.368 -0.0711 -0.1036 -0.0155
    3MOL   C174  938   3.909   5.700   7.521 -0.9209  0.0985 -0.1014
    3MOL   C175  939   4.043   5.747   7.594  0.0847 -0.3140 -0.2832
    3MOL   C176  940   4.152   5.639   7.608  0.9555  0.0514 -0.6389
    3MOL   C177  941   4.262   5.682   7.696  0.1305 -0.1911  0.4233
    3MOL   C178  942   4.388   5.597   7.693 -0.0233 -0.6596 -0.2034
    3MOL   O179  943   3.805   5.781   7.572  0.4406 -0.1515  0.1409
    3MOL   H180  944   3.918   5.811   7.334 -2.9124 -0.9096 -1.2140
    3MOL   H181  945   4.040   5.690   7.347  0.0871  1.4165 -0.6875
    3MOL   H182  946   3.905   5.599   7.560 -0.0961  0.7465  1.6974
    3MOL   H183  947   4.077   5.842   7.554 -3.7059  0.2923 -2.2506
    3MOL   H184  948   4.006   5.770   7.694  1.0888  0.8750 -0.1814
    3MOL   H185  949   4.088   5.567   7.659  0.3591  1.0760  0.0855
    3MOL   H186  950   4.184   5.590   7.516 -0.6225 -1.3936 -0.4437
    3MOL   H187  951   4.292   5.779   7.658  1.7014 -0.7702  0.1638
    3MOL   H188  952   4.226   5.689   0.013  0.1352 -0.7953  0.4714
    3MOL   H189  953   4.454   5.638   7.769 -0.7546  0.7775 -0.3393
    3MOL   H190  954   4.443   5.599   7.600  0.8395 -1.4453  0.2837
    3MOL   H191  955   4.380   5.491   7.721  0.2435  0.1287  3.0888
    3MOL   C192  956   3.674   5.722   7.571 -0.4884 -0.1039 -0.0965
    3MOL   C193  957   3.566   5.826   7.615 -0.6163 -0.8803 -0.0996
    3MOL   C194  958   3.433   5.756   7.658  0.0748 -0.3212  0.2055
    3MOL   C195  959   3.327   5.861   7.714 -0.3144  0.0343  0.1352
    3MOL   C196  960   3.197   5.805   7.753  0.3563 -0.3522  0.7005
    3MOL   C197  961   3.070   5.900   7.765  0.2825  0.0527 -0.8055
    3MOL   O198  962   3.534   5.920   7.511  0.2782 -0.3201 -0.0726
    3MOL   H199  963   3.654   5.691   7.468  0.3196  2.4495 -1.0587
    3MOL   H200  964   3.678   5.631   7.632 -2.6318 -0.4747 -0.4728
    3MOL   H201  965   3.608   5.880   7.700  0.4247 -0.2523 -1.0103
    3MOL   H202  966   3.390   5.704   7.573  0.3845 -0.7555  0.3095
    3MOL   H203  967   3.449   5.675   7.730 -0.3375  0.3383  1.0497
    3MOL   H204  968   3.302   5.924   7.630 -1.1219 -0.1208  0.2549
    3MOL   H205  969   3.371   5.932   7.784 -0.3137  1.0227 -0.8592
    3MOL   H206  970   3.173   5.724   7.685 -1.9942  0.7906  0.1467
    3MOL   H207  971   3.207   5.757   0.065  3.0004  0.9196  1.0919
    3MOL   H208  972   3.048   5.924   7.661 -0.3081 -3.2659 -1.5263
    3MOL   H209  973   2.983   5.841   0.008  1.0993 -0.1748  1.2891
    3MOL   H210  974   3.097   5.989   0.036  0.7852  1.3092 -2.9443
    3MOL   C211  975   3.642   5.994   7.463  0.0976 -0.5748 -0.4156
    3MOL   C212  976   3.591   6.130   7.394  1.1722 -0.1471 -0.2749
    3MOL   C213  977   3.700   6.179   7.291 -0.4480 -0.2825  0.2500
    3MOL   C214  978   3.663   6.308   7.221  0.1748  0.3705  0.1560
    3MOL   C215  979   3.763   6.353   7.111  0.0393  0.3511 -0.5052
    3MOL   C216  980   3.718   6.476   7.034 -0.2582  0.3534  0.1412
    3MOL   O217  981   3.563   6.237   7.491  0.1358 -0.0646  0.4361
    3MOL   H218  982   3.698   5.934   7.392 -0.4263 -1.8958  0.2749
    3MOL   H219  983   3.719   6.023   7.535  0.3954 -0.3323 -0.8281
    3MOL   H220  984   3.500   6.110   7.339  0.4653  1.1319  0.3919
    3MOL   H221  985   3.791   6.200   7.346 -0.4481  1.0013 -0.2331
    3MOL   H222  986   3.723   6.113   7.207  0.7781  2.4877 -1.6710
    3MOL   H223  987   3.560   6.290   7.190  0.8780  0.1331 -2.0810
    3MOL   H224  988   3.665   6.393   7.290 -0.5727  2.3371 -2.1739
    3MOL   H225  989   3.861   6.377   7.153  1.0851 -0.3588 -2.4771
    3MOL   H226  990   3.772   6.266   7.047 -0.6681 -0.2858  0.2467
    3MOL   H227  991   3.751   6.561   7.093 -0.5310 -0.2090  1.1128
    3MOL   H228  992   3.613   6.481   7.008  0.1226  2.2524 -1.1128
    3MOL   H229  993   3.764   6.481   6.935 -0.5169 -1.2749 -0.0833
    3MOL   C230  994   3.428   6.232   7.535  0.0387  0.1102  0.1267
    3MOL   C231  995   3.410   6.353   7.630  0.1403  0.8417  0.1580
    3MOL   C232  996   3.305   6.332   7.749 -0.0025  0.4943  0.0012
    3MOL   C233  997   3.162   6.304   7.697 -0.8377  0.4125  0.1562
    3MOL   C234  998   3.061   6.290   0.026  0.8268 -0.0262  0.0047
    3MOL   C235  999   2.917   6.278   7.753  0.1986 -0.1179 -0.7424
    3MOL   O236 1000   3.375   6.477   7.564  0.1188 -0.5294 -0.9948
    3MOL   H237 1001   3.365   6.243   7.446 -0.0958  0.2550  0.2385
    3MOL   H238 1002   3.403   6.139   7.585 -0.6926  0.1874 -0.0805
    3MOL   H239 1003   3.502   6.374   7.685  0.0043 -3.3355  2.1758
    3MOL   H240 1004   3.316   6.416   0.032 -1.2435  0.4287  0.2958
    3MOL   H241 1005   3.318   6.236   0.014  0.0754  1.4478  1.8436
    3MOL   H242 1006   3.168   6.202   7.658  0.4263  1.1893 -1.7490
    3MOL   H243 1007   3.125   6.375   7.623 -0.5740  0.1041 -0.2708
    3MOL   H244 1008   3.082   6.198   0.080  1.3264 -1.6473 -2.7988
    3MOL   H245 1009   3.050   6.372   0.096  1.5598 -1.1074  1.4028
    3MOL   H246 1010   2.914   6.190   7.690 -0.8244  0.0226 -0.9022
    3MOL   H247 1011   2.876   6.365   7.702  0.6556  0.1892 -0.5937
    3MOL   H248 1012   2.848   6.244   0.045  1.9886 -1.6813  0.1958
    3MOL   C249 1013   3.478   6.535   7.477 -0.0977 -0.4019  0.0289
    3MOL   C250 1014   3.436   6.679   7.430 -0.2891  0.0514 -0.7551
    3MOL   C251 1015   3.438   6.775   7.548  1.0426  0.5045  0.6410
    3MOL   C252 1016   3.414   6.923   7.507 -0.1104  0.1666 -0.5687
    3MOL   C253 1017   3.420   7.014   7.635 -0.2732 -0.8195  0.0623
    3MOL   C254 1018   3.312   7.000   7.740 -0.1210  0.0011 -0.0579
    3MOL   O255 1019   3.305   6.671   7.364  0.1418 -0.6356 -0.1100
    3MOL   H256 1020   3.571   6.539   7.534  0.9380 -3.1384 -1.3895
    3MOL   H257 1021   3.493   6.476   7.386 -1.0394  2.5491 -2.1186
    3MOL   H258 1022   3.503   6.725   7.358  0.8697 -4.0411 -2.4484
    3MOL   H259 1023   3.355   6.740   7.610 -0.1471  1.2513 -0.5069
    3MOL   H260 1024   3.534   6.770   7.599  0.3910 -0.2448  1.8199
    3MOL   H261 1025   3.490   6.951   7.434 -0.0028  0.9481 -0.1628
    3MOL   H262 1026   3.318   6.939   7.457  0.5683 -0.1885 -2.0224
    3MOL   H263 1027   3.517   7.005   7.683 -1.4318  0.2694  2.6928
    3MOL   H264 1028   3.402   7.115   7.598 -1.9913 -0.9190  0.5915
    3MOL   H265 1029   3.298   6.893   7.755  0.4496  0.0210  0.6306
    3MOL   H266 1030   3.218   7.035   7.697 -0.6469 -2.3750 -0.8696
    3MOL   H267 1031   3.338   7.052   0.047 -1.2359  0.8286 -0.1951
    3MOL   C268 1032   3.305   6.592   7.246 -0.3083 -0.0508 -0.2318
    3MOL   C269 1033   3.161   6.532   7.227  0.2378 -0.1433  0.3782
    3MOL   C270 1034   3.148   6.387   7.278  0.1309 -0.8796  0.3981
    3MOL   C271 1035   3.000   6.336   7.284 -0.8976  0.1417  0.3612
    3MOL   C272 1036   2.974   6.206   7.366  0.0248  0.0335  0.7765
    3MOL   C273 1037   2.826   6.163   7.374 -0.1183  0.6641 -0.2433
    3MOL   O274 1038   3.129   6.533   7.088 -0.5079  0.2342  0.0098
    3MOL   H275 1039   3.382   6.516   7.241  0.6120  0.8206  0.4348
    3MOL   H276 1040   3.338   6.665   7.171  0.6591  0.9193  1.1159
    3MOL   H277 1041   3.099   6.598   7.288  0.1126 -0.4610  0.5983
    3MOL   H278 1042   3.207   6.326   7.210 -1.7796 -2.5938  0.2312
    3MOL   H279 1043   3.198   6.378   7.374 -0.6301 -0.7701  0.8085
    3MOL   H280 1044   2.931   6.418   7.303 -1.0893  0.4769 -1.6710
    3MOL   H281 1045   2.995   6.308   7.179  0.3356  1.1683  0.0098
    3MOL   H282 1046   3.036   6.121   7.339  1.0976  0.6596  1.2292
    3MOL   H283 1047   3.011   6.233   7.465  0.3481 -0.1800  0.7166
    3MOL   H284 1048   2.776   6.253   7.409  0.2179  0.1849  1.4873
    3MOL   H285 1049   2.777   6.142   7.279  2.4509 -1.0253 -1.2476
    3MOL   H286 1050   2.804   6.086   7.447  0.0387 -0.9468 -1.8689
    3MOL   C287 1051   3.054   6.649   7.040 -0.1133  0.6764  0.7891
    3MOL   C288 1052   3.031   6.633   6.890 -0.2816 -0.3863 -0.2938
    3MOL   C289 1053   2.985   6.762   6.824 -0.2816  0.1419  0.3960
    3MOL   C290 1054   3.026   6.769   6.670 -0.4177  0.5864 -0.8704
    3MOL   C291 1055   3.175   6.778   6.638  0.7423 -0.1886  0.1879
    3MOL   C292 1056   3.189   6.824   6.495 -0.1205 -0.6524 -0.3348
    3MOL   O293 1057   2.955   6.526   6.854 -0.4365  0.4150 -0.2919
    3MOL   H294 1058   3.120   6.736   7.040  1.1217 -0.2217 -1.7877
    3MOL   H295 1059   2.956   6.662   7.086 -1.3633 -2.3069 -0.8777
    3MOL   H296 1060   3.131   6.607   6.855 -0.1090 -0.9607  0.5980
    3MOL   H297 1061   2.877   6.771   6.836 -0.2419 -0.2367  1.1368
    3MOL   H298 1062   3.020   6.848   6.881 -0.4405  0.9308 -0.7121
    3MOL   H299 1063   2.985   6.695   6.601 -1.3487  1.2996 -1.0882
    3MOL   H300 1064   2.980   6.863   6.641 -1.1788  0.6502  0.5065
    3MOL   H301 1065   3.207   6.675   6.647  2.2907  0.4875  2.6214
    3MOL   H302 1066   3.231   6.824   6.720  1.3682 -1.4641  0.4810
    3MOL   H303 1067   3.285   6.798   6.452 -0.0323 -2.2037  0.7678
    3MOL   H304 1068   3.112   6.770   6.440 -0.0714 -0.3085 -0.7431
    3MOL   H305 1069   3.165   6.928   6.472 -1.0543 -0.3860  1.7279
    3MOL   C306 1070   2.986   6.392   6.890  0.4864  0.3231 -0.2508
    3MOL   C307 1071   2.910   6.303   6.790 -0.3088  0.0652 -0.6111
    3MOL   C308 1072   2.859   6.173   6.861  0.5079  0.6650  0.0917
    3MOL   C309 1073   2.770   6.077   6.781 -0.5205  0.1898  0.8221
    3MOL   C310 1074   2.658   6.003   6.864  0.7642  0.4142  0.2266
    3MOL   C311 1075   2.552   5.930   6.782 -0.4234  0.9658 -0.0283
    3MOL   O312 1076   2.996   6.266   6.684 -0.3073 -0.5850 -0.2959
    3MOL   H313 1077   3.095   6.390   6.881  0.7451  2.7871  1.8178
    3MOL   H314 1078   2.954   6.393   6.995 -0.7466  0.2120 -0.6170
    3MOL   H315 1079   2.825   6.365   6.763  0.1339 -0.2298 -2.7884
    3MOL   H316 1080   2.798   6.207   6.945 -0.2466 -1.3143  0.3730
    3MOL   H317 1081   2.945   6.109   6.884 -1.4194 -2.7115 -1.6295
    3MOL   H318 1082   2.722   6.139   6.706 -2.1587 -1.7778  0.1946
    3MOL   H319 1083   2.837   6.009   6.729 -1.3828  0.3670 -0.5363
    3MOL   H320 1084   2.608   6.081   6.922 -0.7800 -0.6079  0.2908
    3MOL   H321 1085   2.706   5.930   6.929 -0.4850 -1.5071 -0.9793
    3MOL   H322 1086   2.479   5.876   6.843 -0.7920  1.8847  0.3576
    3MOL   H323 1087   2.504   6.007   6.722 -0.8318 -0.9515 -2.2126
    3MOL   H324 1088   2.592   5.850   6.720 -1.6925 -0.8309  1.4276
    3MOL   C325 1089   3.013   6.375   6.592 -0.1696  0.6789  0.7809
    3MOL   C326 1090   3.102   6.322   6.471 -0.5430 -0.3155 -0.1942
    3MOL   C327 1091   3.188   6.439   6.411  0.0017 -0.4073  0.0218
    3MOL   C328 1092   3.276   6.399   6.288  0.2823  0.3870  0.8258
    3MOL   C329 1093   3.338   6.508   6.204  0.3281  0.4654  0.2021
    3MOL   C330 1094   3.257   6.564   6.087 -0.0190  0.1964  0.6893
    3MOL   O331 1095   3.018   6.276   6.369 -0.1874  0.3544  0.2273
    3MOL   H332 1096   3.077   6.448   6.643 -0.8417  1.6292  0.2744
    3MOL   H333 1097   2.917   6.411   6.556  0.2919 -2.6480 -4.2323
    3MOL   H334 1098   3.186   6.264   6.510 -0.4547 -0.3772 -0.4718
    3MOL   H335 1099   3.112   6.516   6.397  0.8491  0.5118  0.4802
    3MOL   H336 1100   3.261   6.476   6.483  0.3977 -1.8762  0.3997
    3MOL   H337 1101   3.354   6.335   6.329 -0.7367 -1.2332  0.3168
    3MOL   H338 1102   3.223   6.331   6.221 -0.7629  1.0866  0.9256
    3MOL   H339 1103   3.378   6.583   6.273  0.7401 -0.7679  1.3414
    3MOL   H340 1104   3.431   6.471   6.162 -1.8257 -4.0817 -0.7620
    3MOL   H341 1105   3.154   6.590   6.114  0.5282  2.3830  0.7552
    3MOL   H342 1106   3.309   6.651   6.047 -1.4748 -1.0255 -4.3470
    3MOL   H343 1107   3.265   6.495   6.002  1.7413 -1.4548  2.1770
    3MOL   C344 1108   3.005   6.138   6.357  0.0819 -0.4955  0.3786
    3MOL   C345 1109   2.896   6.102   6.255 -0.0414  0.7300 -0.9671
    3MOL   C346 1110   2.909   5.960   6.206 -0.1191 -0.1516 -0.0886
    3MOL   C347 1111   3.002   5.958   6.083  0.1839 -0.1936 -0.7669
    3MOL   C348 1112   3.029   5.818   6.032 -0.0730  0.0523 -0.2047
    3MOL   C349 1113   2.908   5.759   5.961  0.0880 -0.1498 -0.4498
    3MOL   O350 1114   2.775   6.087   6.330  0.5682 -0.2256 -0.0886
    3MOL   H351 1115   2.975   6.102   6.456  2.0516 -0.4923  0.9947
    3MOL   H352 1116   3.104   6.097   6.341 -1.3076 -3.7536 -0.2581
    3MOL   H353 1117   2.885   6.181   6.181  1.3547  0.5864 -1.3334
    3MOL   H354 1118   2.810   5.929   6.170  1.1040 -0.7449 -3.0505
    3MOL   H355 1119   2.934   5.886   6.282  2.4858  1.7422  0.9591
    3MOL   H356 1120   3.101   5.998   6.105 -0.5244  2.5811 -2.3881
    3MOL   H357 1121   2.955   6.025   6.011 -1.4190 -0.4046  0.0696
    3MOL   H358 1122   3.055   5.745   6.109 -0.7948 -1.3606 -1.2718
    3MOL   H359 1123   3.120   5.818   5.971 -0.6389 -2.3294 -1.1181
    3MOL   H360 1124   2.925   5.654   5.934  0.0359 -0.2679 -0.0249
    3MOL   H361 1125   2.893   5.820   5.872  1.1075  1.2724  0.3412
    3MOL   H362 1126   2.815   5.750   6.017 -1.8899  1.4479 -3.3386
    3MOL   C363 1127   2.718   6.217   6.371  0.3879 -0.7423 -0.0264
    3MOL   C364 1128   2.562   6.194   6.374  0.6814  0.1282  0.4651
    3MOL   C365 1129   2.484   6.307   6.434  0.6531 -0.1231  0.1726
    3MOL   C366 1130   2.498   6.308   6.587  0.0211 -0.1938 -0.2249
    3MOL   C367 1131   2.396   6.400   6.662  0.3244  0.0469  0.2995
    3MOL   C368 1132   2.430   6.413   6.813  0.1229 -0.0822  0.8465
    3MOL   O369 1133   2.546   6.173   6.238 -0.3901  0.0907  0.0807
    3MOL   H370 1134   2.743   6.296   6.300 -1.4411 -0.8410 -0.7993
    3MOL   H371 1135   2.763   6.253   6.464  1.8451 -1.7096 -0.3359
    3MOL   H372 1136   2.523   6.108   6.428  1.1828 -1.8465 -2.2138
    3MOL   H373 1137   2.494   6.404   6.385 -0.7536  0.0497  0.1942
    3MOL   H374 1138   2.380   6.281   6.413  1.3305 -1.5752 -1.5418
    3MOL   H375 1139   2.483   6.207   6.625  0.6960  0.4177  1.7594
    3MOL   H376 1140   2.597   6.337   6.624 -0.2157  0.0239  0.2438
    3MOL   H377 1141   2.390   6.497   6.611  2.0337  1.1375  2.1090
    3MOL   H378 1142   2.300   6.354   6.638  1.3273 -0.6647 -2.6620
    3MOL   H379 1143   2.536   6.433   6.830  0.1112  0.1122  0.6979
    3MOL   H380 1144   2.365   6.479   6.870 -2.0163 -0.5669 -0.9456
    3MOL   H381 1145   2.406   6.314   6.851  1.6693 -1.1542 -0.9032
    3MOL   H382 1146   2.591   6.091   6.222 -0.4625  0.0438  0.1153
    4MOL     C1 1147   2.581   2.563   0.969  0.0231 -0.4036 -0.0520
    4MOL     C2 1148   2.523   2.443   1.049 -0.5860 -0.6343  0.1639
    4MOL     C3 1149   2.635   2.342   1.086  0.2442  1.2050  0.3437
    4MOL     C4 1150   2.583   2.211   1.147 -0.2001  0.4512 -0.0822
    4MOL     C5 1151   2.693   2.116   1.199  0.0741 -0.6182 -0.1908
    4MOL     C6 1152   2.744   2.010   1.102 -0.9797  0.6229 -0.4219
    4MOL     O7 1153   2.457   2.479   1.169 -0.1324 -0.2758  0.4358
    4MOL     H8 1154   2.503   2.636   0.947 -0.8824 -1.1855  0.5304
    4MOL     H9 1155   2.633   2.531   0.879  1.7734  0.4704  0.6243
    4MOL    H10 1156   2.451   2.393   0.985 -1.6782  1.7236 -0.5096
    4MOL    H11 1157   2.693   2.321   0.996  0.0908 -0.6111  0.6363
    4MOL    H12 1158   2.697   2.382   1.166  0.3169 -0.0833  0.9491
    4MOL    H13 1159   2.513   2.226   1.229 -2.5720 -5.1372 -0.8455
    4MOL    H14 1160   2.528   2.161   1.067  1.8710 -0.1511 -1.1495
    4MOL    H15 1161   2.776   2.165   1.249  3.1487 -3.8767 -1.8142
    4MOL    H16 1162   2.643   2.064   1.281 -2.6824  1.8910 -0.2090
    4MOL    H17 1163   2.652   1.955   1.081  1.0030 -2.2542 -2.0040
    4MOL    H18 1164   2.785   2.060   1.014 -0.4459  1.0239  0.0539
    4MOL    H19 1165   2.824   1.944   1.136 -0.7938  1.1341  0.1342
    4MOL    H20 1166   2.657   2.615   1.028  0.6116 -0.8067 -0.4432
    4MOL    C21 1167   2.331   2.543   1.150 -0.2369 -0.1917  0.3591
    4MOL    C22 1168   2.233   2.478   1.252 -0.2045  0.2487  0.1435
    4MOL    C23 1169   2.115   2.562   1.299 -0.3498 -0.1174  0.0733
    4MOL    C24 1170   2.031   2.506   1.413 -0.2033  0.2770  0.2216
    4MOL    C25 1171   1.925   2.604   1.461 -0.6489  0.5843  0.2186
    4MOL    C26 1172   1.821   2.629   1.353  0.9421  0.6299  0.3292
    4MOL    O27 1173   2.192   2.346   1.217  0.1972  0.8230 -0.0454
    4MOL    H28 1174   2.343   2.650   1.169 -0.1022  0.4370 -2.8976
    4MOL    H29 1175   2.294   2.544   1.047  1.7135 -0.2658 -0.3804
    4MOL    H30 1176   2.289   2.467   1.345 -1.1567 -1.7581  0.5033
    4MOL    H31 1177   2.051   2.589   1.214  0.0057 -1.4313 -0.6258
    4MOL    H32 1178   2.148   2.661   1.328  0.5887 -0.7169  1.0707
    4MOL    H33 1179   2.101   2.485   1.494  0.2215  1.2835  0.1165
    4MOL    H34 1180   1.980   2.413   1.385 -2.0249  1.0487  0.9061
    4MOL    H35 1181   1.881   2.560   1.551  1.2160 -0.3664  0.6820
    4MOL    H36 1182   1.967   2.703   1.480  1.2290 -0.1384 -0.0867
    4MOL    H37 1183   1.740   2.691   1.391 -0.0012 -1.3267  1.5877
    4MOL    H38 1184   1.774   2.538   1.315 -0.1058  0.2240  2.5244
    4MOL    H39 1185   1.858   2.687   1.269 -0.1092 -0.1800 -0.6979
    4MOL    C40 1186   2.117   2.324   1.101  0.3049 -0.4384 -0.8885
    4MOL    C41 1187   2.108   2.169   1.092  0.2048  0.1003 -0.1168
    4MOL    C42 1188   2.246   2.099   1.070  0.0406  0.0902 -0.6737
    4MOL    C43 1189   2.243   1.946   1.044 -0.3901  0.5741 -0.3772
    4MOL    C44 1190   2.221   1.868   1.170 -0.6987  0.3539  0.2781
    4MOL    C45 1191   2.342   1.845   1.261  0.0234 -0.2746 -0.3915
    4MOL    O46 1192   2.021   2.131   0.988 -0.2582  0.1122  0.3399
    4MOL    H47 1193   2.170   2.369   1.017 -3.0027  0.4036 -2.6053
    4MOL    H48 1194   2.017   2.365   1.115  0.3110 -0.9417  0.7767
    4MOL    H49 1195   2.076   2.140   1.193 -0.0250  0.8818  0.0361
    4MOL    H50 1196   2.291   2.147   0.983 -2.5493  2.9227 -0.5279
    4MOL    H51 1197   2.308   2.100   1.159 -0.7514 -0.0578 -0.1150
    4MOL    H52 1198   2.339   1.911   1.006 -1.0679 -0.6608 -0.9625
    4MOL    H53 1199   2.169   1.925   0.967 -1.3730  1.2940  0.3653
    4MOL    H54 1200   2.142   1.911   1.231 -1.4095 -1.8600  0.9376
    4MOL    H55 1201   2.195   1.765   1.146  1.5863 -0.0229 -0.6938
    4MOL    H56 1202   2.438   1.832   1.211  1.1678 -0.3779  1.7489
    4MOL    H57 1203   2.358   1.931   1.326  2.5318 -1.3387  0.4892
    4MOL    H58 1204   2.328   1.769   1.337 -2.7890 -0.9021 -1.4901
    4MOL    C59 1205   1.917   2.046   1.033 -0.3275 -0.3390  0.1375
    4MOL    C60 1206   1.826   2.002   0.912  0.4943  0.3305 -0.3999
    4MOL    C61 1207   1.747   1.881   0.962 -0.1897  0.4347 -0.3569
    4MOL    C62 1208   1.653   1.907   1.080 -0.0734  0.3915 -0.7033
    4MOL    C63 1209   1.581   1.789   1.135 -0.3049 -0.0343  0.3927
    4MOL    C64 1210   1.677   1.668   1.171 -0.2410 -1.0615  0.8523
    4MOL    O65 1211   1.735   2.109   0.891 -0.4480  0.0209  0.2125
    4MOL    H66 1212   1.853   2.105   1.099  0.4977 -1.6653  2.1920
    4MOL    H67 1213   1.958   1.956   1.078 -0.6759 -0.6583 -0.1850
    4MOL    H68 1214   1.893   1.969   0.833  0.3524 -2.1193  0.4726
    4MOL    H69 1215   1.817   1.799   0.978 -1.5165 -0.8842 -1.1452
    4MOL    H70 1216   1.675   1.849   0.886 -0.3308  1.1906 -0.5467
    4MOL    H71 1217   1.583   1.987   1.052 -0.8622  0.9021  2.5550
    4MOL    H72 1218   1.709   1.954   1.160  0.2873 -1.8551  0.3943
    4MOL    H73 1219   1.502   1.750   1.070  0.8143  1.8266 -2.1552
    4MOL    H74 1220   1.527   1.822   1.224 -1.3566 -2.5398  0.7386
    4MOL    H75 1221   1.723   1.636   1.078  1.6648  2.3778  0.5356
    4MOL    H76 1222   1.756   1.701   1.238 -0.5615 -1.0677  1.2360
    4MOL    H77 1223   1.624   1.591   1.227 -1.9248 -1.5959 -1.4276
    4MOL    C78 1224   1.769   2.221   0.812 -0.6405 -0.0294 -0.1399
    4MOL    C79 1225   1.652   2.320   0.813 -0.2130  0.1003  0.3356
    4MOL    C80 1226   1.654   2.392   0.677  0.1328 -0.5866 -0.5480
    4MOL    C81 1227   1.534   2.491   0.650 -0.1428 -0.5595 -0.8802
    4MOL    C82 1228   1.396   2.429   0.603 -0.2271 -0.2485  0.1948
    4MOL    C83 1229   1.398   2.377   0.460  0.1154  0.1117 -0.1833
    4MOL    O84 1230   1.663   2.423   0.916 -0.3173  0.3375  0.2489
    4MOL    H85 1231   1.805   2.184   0.715 -0.7011  0.5476 -0.3814
    4MOL    H86 1232   1.856   2.269   0.857 -2.1080  2.5601 -0.0034
    4MOL    H87 1233   1.562   2.259   0.815 -0.9138  1.1360  1.1474
    4MOL    H88 1234   1.748   2.446   0.660 -0.6744  0.4623 -1.7918
    4MOL    H89 1235   1.649   2.319   0.597  0.7593  0.1214 -1.2445
    4MOL    H90 1236   1.554   2.568   0.576  0.1914  0.0584 -0.1624
    4MOL    H91 1237   1.519   2.549   0.742 -0.2499  0.8700 -1.7794
    4MOL    H92 1238   1.367   2.352   0.675 -0.0279 -1.3579 -0.8991
    4MOL    H93 1239   1.325   2.512   0.605 -1.3411 -1.1442 -1.6585
    4MOL    H94 1240   1.466   2.439   0.401 -0.7085  0.5247 -0.7011
    4MOL    H95 1241   1.304   2.395   0.408  0.5031 -1.5760 -1.5092
    4MOL    H96 1242   1.426   2.272   0.471 -2.7046 -0.4628  1.8594
    4MOL    C97 1243   1.649   2.374   1.047 -0.1302  0.3963  1.0908
    4MOL    C98 1244   1.512   2.310   1.081 -0.7258  0.8791 -0.3197
    4MOL    C99 1245   1.502   2.249   1.221 -0.3553  0.5591 -0.0575
    4MOL   C100 1246   1.376   2.173   1.246 -0.4184 -0.3085  0.4750
    4MOL   C101 1247   1.385   2.103   1.384  0.8799  0.1203 -0.1633
    4MOL   C102 1248   1.298   1.980   1.399 -0.2520 -0.4690 -0.0969
    4MOL   O103 1249   1.406   2.411   1.081  0.2467 -0.3595  0.2513
    4MOL   H104 1250   1.667   2.462   1.109  1.8483 -0.3712  1.6344
    4MOL   H105 1251   1.732   2.308   1.072 -0.5150 -0.0080  1.2895
    4MOL   H106 1252   1.482   2.229   1.015 -0.0673 -1.0718  1.7041
    4MOL   H107 1253   1.505   2.333   1.291  2.0964 -0.9169  1.6866
    4MOL   H108 1254   1.595   2.197   1.242 -0.3709 -0.0395 -1.4261
    4MOL   H109 1255   1.364   2.098   1.167  2.2385  0.2640 -0.4976
    4MOL   H110 1256   1.284   2.231   1.252  1.1533  2.1905  1.1121
    4MOL   H111 1257   1.359   2.169   1.466 -3.9255  2.3523 -3.2380
    4MOL   H112 1258   1.486   2.077   1.417  1.9898  0.9618 -2.7092
    4MOL   H113 1259   1.192   1.996   1.418  0.0178  0.3169  0.7652
    4MOL   H114 1260   1.316   1.900   1.328 -1.6095 -1.1987  0.3558
    4MOL   H115 1261   1.338   1.934   1.489 -2.1881 -0.4889  0.7954
    4MOL   C116 1262   1.313   2.401   0.972  0.1237 -0.1784  0.3641
    4MOL   C117 1263   1.198   2.503   0.993  0.0212 -0.0444  0.1736
    4MOL   C118 1264   1.075   2.489   0.902 -0.2390  0.1702 -0.2635
    4MOL   C119 1265   0.957   2.572   0.954 -0.8196  0.1670  0.5116
    4MOL   C120 1266   0.830   2.521   0.883 -0.6835 -0.4304 -0.5162
    4MOL   C121 1267   0.711   2.602   0.926  0.1693 -0.0584  0.5616
    4MOL   O122 1268   1.243   2.634   0.966  0.0647  0.1296 -0.0354
    4MOL   H123 1269   1.372   2.423   0.883 -1.4842 -0.3318 -0.7621
    4MOL   H124 1270   1.261   2.307   0.954  1.7618 -0.7116 -1.7980
    4MOL   H125 1271   1.168   2.490   1.097 -1.0553  0.3730 -0.0681
    4MOL   H126 1272   1.101   2.525   0.802 -1.7367  0.7931 -0.4516
    4MOL   H127 1273   1.044   2.385   0.889  0.9011 -0.2963  0.6618
    4MOL   H128 1274   0.981   2.678   0.946 -1.4744  0.5172  2.7705
    4MOL   H129 1275   0.942   2.545   1.059 -0.0743  0.4028  0.6804
    4MOL   H130 1276   0.831   2.534   0.774 -1.0467 -2.0349 -0.7240
    4MOL   H131 1277   0.815   2.415   0.906  0.1434 -0.2091  1.1229
    4MOL   H132 1278   0.676   2.579   1.027 -1.7574  0.7476  0.0842
    4MOL   H133 1279   0.717   2.710   0.915 -0.4111 -0.0695  0.1458
    4MOL   H134 1280   0.627   2.569   0.865 -0.0780  0.9040  0.3712
    4MOL   C135 1281   1.258   2.719   1.078  0.2291 -0.7284 -0.1636
    4MOL   C136 1282   1.404   2.723   1.146 -0.2655 -0.6206  0.6207
    4MOL   C137 1283   1.402   2.760   1.293 -0.4258 -0.0407 -0.2622
    4MOL   C138 1284   1.390   2.627   1.373 -0.6139 -0.5663 -0.0268
    4MOL   C139 1285   1.384   2.647   1.523 -0.5280  0.5936  0.1204
    4MOL   C140 1286   1.452   2.536   1.605  0.3000  0.6085 -0.3392
    4MOL   O141 1287   1.476   2.825   1.079 -0.0202 -0.0637  0.3087
    4MOL   H142 1288   1.235   2.818   1.038 -0.7646 -0.8311  0.1401
    4MOL   H143 1289   1.185   2.707   1.158 -2.9252  2.1676 -2.4641
    4MOL   H144 1290   1.463   2.633   1.129 -1.8048 -1.8835  1.7539
    4MOL   H145 1291   1.499   2.804   1.316 -0.7429 -0.5253  2.2042
    4MOL   H146 1292   1.328   2.836   1.319  0.3149  0.8354 -0.7234
    4MOL   H147 1293   1.477   2.562   1.363  1.0151  1.1472  2.1948
    4MOL   H148 1294   1.300   2.573   1.345 -2.3313  2.5815 -0.7178
    4MOL   H149 1295   1.283   2.668   1.557 -1.6905 -2.1529 -1.4758
    4MOL   H150 1296   1.455   2.727   1.545  0.0740  0.3722 -0.9872
    4MOL   H151 1297   1.402   2.443   1.579 -2.0290  1.3417  1.3747
    4MOL   H152 1298   1.554   2.530   1.568  0.2276  0.8676 -0.5872
    4MOL   H153 1299   1.442   2.549   1.713  1.4678 -1.3265  0.0181
    4MOL   C154 1300   1.493   2.814   0.935 -0.6106 -0.3992  0.1623
    4MOL   C155 1301   1.603   2.903   0.875 -0.4628  0.5073  0.1265
    4MOL   C156 1302   1.633   2.862   0.735  0.7969  0.7475  0.3526
    4MOL   C157 1303   1.749   2.924   0.658  0.1886  0.4127 -0.0360
    4MOL   C158 1304   1.741   2.878   0.513  0.4849 -0.0973  0.8168
    4MOL   C159 1305   1.842   2.941   0.417  0.2951 -0.0182 -0.0561
    4MOL   O160 1306   1.569   3.039   0.880  0.5116  0.1556 -0.2585
    4MOL   H161 1307   1.402   2.850   0.888  1.5867  3.1113 -1.6488
    4MOL   H162 1308   1.512   2.708   0.924  3.0979 -0.1158  2.6670
    4MOL   H163 1309   1.698   2.887   0.928 -1.6672  2.6057  3.0586
    4MOL   H164 1310   1.538   2.891   0.689  0.1383 -0.5011  0.8885
    4MOL   H165 1311   1.643   2.753   0.732 -0.6694  0.5757  1.0322
    4MOL   H166 1312   1.846   2.903   0.702  0.1587 -1.6208 -0.9046
    4MOL   H167 1313   1.740   3.033   0.657 -0.2408  0.4031  1.1812
    4MOL   H168 1314   1.746   2.769   0.511 -2.9490 -0.3309  2.0596
    4MOL   H169 1315   1.638   2.903   0.487  0.5500 -0.2379  0.4224
    4MOL   H170 1316   1.813   2.912   0.317  0.0237  0.8175 -0.2205
    4MOL   H171 1317   1.939   2.894   0.439  0.6598 -0.1652 -1.9504
    4MOL   H172 1318   1.838   3.048   0.436  0.7360  0.1224 -0.7435
    4MOL   C173 1319   1.570   3.103   1.011  1.0010  0.4820  0.0628
    4MOL   C174 1320   1.597   3.256   1.005 -0.2060 -0.1109  0.5150
    4MOL   C175 1321   1.521   3.333   1.117  0.6183 -0.3367  0.2472
    4MOL   C176 1322   1.583   3.310   1.252 -0.0589  0.1425  0.1008
    4MOL   C177 1323   1.491   3.363   1.364  0.3084 -0.2564 -0.4529
    4MOL   C178 1324   1.374   3.280   1.393  0.1882  0.2488  0.1471
    4MOL   O179 1325   1.746   3.275   1.018 -0.4924  0.4852 -0.0383
    4MOL   H180 1326   1.655   3.063   1.067 -0.0978 -2.4207 -0.2671
    4MOL   H181 1327   1.481   3.080   1.070  0.3393  2.1909 -0.2642
    4MOL   H182 1328   1.556   3.297   0.912  2.0442 -1.7132 -1.2359
    4MOL   H183 1329   1.501   3.436   1.088 -0.2514 -0.4965  0.2543
    4MOL   H184 1330   1.421   3.290   1.119  1.1746 -1.6549  0.1251
    4MOL   H185 1331   1.610   3.206   1.274  1.8286  0.7785  0.8531
    4MOL   H186 1332   1.673   3.371   1.260  0.0345 -0.1237  1.1419
    4MOL   H187 1333   1.544   3.373   1.459 -0.0232 -1.1604 -0.1629
    4MOL   H188 1334   1.468   3.465   1.335  0.7525  0.5119  1.8286
    4MOL   H189 1335   1.316   3.247   1.307  1.7335 -2.5906  0.1458
    4MOL   H190 1336   1.311   3.347   1.452  0.1892  2.8373 -2.6589
    4MOL   H191 1337   1.395   3.189   1.449  0.1129 -0.5706 -1.1471
    4MOL   C192 1338   1.833   3.206   0.920 -0.3053 -0.5286  0.0212
    4MOL   C193 1339   1.983   3.237   0.931  0.0350  0.3954 -0.2333
    4MOL   C194 1340   2.055   3.215   0.799  0.5029  0.0567 -0.1887
    4MOL   C195 1341   2.195   3.294   0.808 -0.1861  0.0384  0.3871
    4MOL   C196 1342   2.295   3.258   0.699 -0.3780 -0.4645 -0.6088
    4MOL   C197 1343   2.431   3.322   0.715  0.5673  0.2061 -0.7359
    4MOL   O198 1344   2.042   3.156   1.035  0.3374  0.8456 -0.2669
    4MOL   H199 1345   1.835   3.097   0.910 -2.7260 -1.0062  3.5642
    4MOL   H200 1346   1.808   3.238   0.819  1.8510  0.3877 -0.2403
    4MOL   H201 1347   1.990   3.342   0.957 -0.6916  0.0892  1.2585
    4MOL   H202 1348   2.083   3.110   0.792  1.3748  0.2078  0.8878
    4MOL   H203 1349   1.997   3.250   0.714 -0.6257  1.5233  1.1711
    4MOL   H204 1350   2.233   3.251   0.901 -1.6459 -0.0718  0.9455
    4MOL   H205 1351   2.181   3.402   0.811 -1.3459 -0.1372  2.3588
    4MOL   H206 1352   2.319   3.153   0.685  2.9326  0.6136 -3.6020
    4MOL   H207 1353   2.247   3.294   0.608 -1.8748 -1.7418 -0.3397
    4MOL   H208 1354   2.502   3.272   0.649  2.3154  1.0657  0.4388
    4MOL   H209 1355   2.419   3.426   0.685 -0.8314  0.4261  0.5201
    4MOL   H210 1356   2.458   3.314   0.821  0.4614 -1.2952 -0.8139
    4MOL   C211 1357   2.064   3.224   1.152  0.1372  0.1661  0.2201
    4MOL   C212 1358   2.108   3.115   1.255 -0.1103 -0.3578 -0.3550
    4MOL   C213 1359   2.207   3.018   1.188  0.1347  0.2079 -0.3382
    4MOL   C214 1360   2.340   3.079   1.126  0.2774 -0.0623 -0.5106
    4MOL   C215 1361   2.441   2.975   1.089  0.1921 -0.8007 -0.6694
    4MOL   C216 1362   2.400   2.935   0.944 -0.6258  0.2209  0.1697
    4MOL   O217 1363   2.001   3.037   1.312  0.0240  0.1196 -0.4466
    4MOL   H218 1364   1.985   3.293   1.184  0.4690 -0.3019  2.1316
    4MOL   H219 1365   2.145   3.294   1.132  1.5433 -1.6082 -0.3859
    4MOL   H220 1366   2.156   3.166   1.339  1.1512 -2.8108  0.4702
    4MOL   H221 1367   2.237   2.950   1.267 -2.0195 -0.4693 -0.0529
    4MOL   H222 1368   2.162   2.949   1.116  0.7601  1.0524 -1.5703
    4MOL   H223 1369   2.322   3.158   1.054 -1.6289  0.1475  0.1696
    4MOL   H224 1370   2.391   3.133   1.207 -2.5653 -0.4206  1.5927
    4MOL   H225 1371   2.544   3.010   1.088  0.4988 -1.6530  0.2505
    4MOL   H226 1372   2.440   2.881   1.144 -2.1759 -0.3120  0.1720
    4MOL   H227 1373   2.312   2.871   0.931 -0.7246  0.0596  1.5907
    4MOL   H228 1374   2.473   2.866   0.901  2.6005  2.5923  1.7085
    4MOL   H229 1375   2.387   3.018   0.874 -0.9406  0.3261  0.3535
    4MOL   C230 1376   1.893   3.115   1.367 -0.7606  0.2970  0.2712
    4MOL   C231 1377   1.839   3.048   1.495  0.0846  0.4763 -0.9269
    4MOL   C232 1378   1.685   3.061   1.519 -0.7654  0.2116 -0.0025
    4MOL   C233 1379   1.640   2.986   1.645  0.8566  0.0872 -0.5283
    4MOL   C234 1380   1.488   2.987   1.663  0.8985 -0.5077 -0.1062
    4MOL   C235 1381   1.426   2.924   1.796 -0.4011  0.7647 -0.4834
    4MOL   O236 1382   1.911   3.111   1.611 -0.0770 -0.7210  0.3124
    4MOL   H237 1383   1.925   3.218   1.381 -1.7473  0.7211 -0.4855
    4MOL   H238 1384   1.823   3.105   1.284  1.6524 -0.4096 -1.7468
    4MOL   H239 1385   1.864   2.942   1.495 -1.7758 -0.0690  2.9331
    4MOL   H240 1386   1.637   3.004   1.439 -1.2512  0.4016  0.1476
    4MOL   H241 1387   1.639   3.160   1.515 -1.4318  0.0077  1.9565
    4MOL   H242 1388   1.692   3.020   1.735 -1.7442 -1.2373  1.5801
    4MOL   H243 1389   1.657   2.878   1.641 -1.3956 -0.2669 -1.5498
    4MOL   H244 1390   1.459   3.091   1.648  2.1445 -0.2019 -0.4384
    4MOL   H245 1391   1.447   2.929   1.581 -1.4718  1.6032 -0.4631
    4MOL   H246 1392   1.319   2.945   1.799 -0.4305  0.5587  0.0847
    4MOL   H247 1393   1.475   2.978   1.877  0.1562 -0.2155 -0.1553
    4MOL   H248 1394   1.447   2.818   1.811 -0.1406  0.9584  0.5980
    4MOL   C249 1395   2.047   3.077   1.623  1.2428  0.0132  0.0601
    4MOL   C250 1396   2.072   3.056   1.769  0.1023  0.0705  0.1311
    4MOL   C251 1397   2.226   3.056   1.798 -0.0913 -0.3672  0.1852
    4MOL   C252 1398   2.298   3.192   1.782  0.8753  0.5301  0.2490
    4MOL   C253 1399   2.439   3.189   1.831  0.3816  0.2759  0.0190
    4MOL   C254 1400   2.510   3.322   1.859 -0.0952 -0.6597  0.1287
    4MOL   O255 1401   2.035   2.922   1.805 -0.6499  0.0464  0.8895
    4MOL   H256 1402   2.072   2.988   1.565  1.9424  0.4559 -0.3225
    4MOL   H257 1403   2.112   3.154   1.582  0.2506  0.2101 -1.1650
    4MOL   H258 1404   2.023   3.130   1.831 -0.8084 -0.6607  0.3010
    4MOL   H259 1405   2.229   3.035   1.905 -1.1507 -0.3391  0.2281
    4MOL   H260 1406   2.279   2.978   1.743 -0.6063 -1.4290  1.1585
    4MOL   H261 1407   2.288   3.211   1.675 -1.7031 -3.1349 -0.2804
    4MOL   H262 1408   2.238   3.260   1.843 -2.8973 -1.6015 -0.9052
    4MOL   H263 1409   2.437   3.125   1.919  0.5461  1.1313  0.6534
    4MOL   H264 1410   2.498   3.135   1.757  1.3033  0.2975  0.7127
    4MOL   H265 1411   2.611   3.300   1.892  0.7837  1.3804 -1.1269
    4MOL   H266 1412   2.463   3.379   1.939  2.0837 -0.9196  1.6283
    4MOL   H267 1413   2.520   3.386   1.772  2.9631 -1.6197 -0.2683
    4MOL   C268 1414   1.944   2.912   1.914 -0.9085 -0.3505  0.2650
    4MOL   C269 1415   1.881   2.771   1.908 -0.3115  0.0825 -0.1440
    4MOL   C270 1416   1.764   2.755   2.004 -0.4484  0.5355 -0.1728
    4MOL   C271 1417   1.664   2.643   1.970 -0.1988  0.3565 -0.4117
    4MOL   C272 1418   1.543   2.644   2.069  0.5190 -0.5478  0.1794
    4MOL   C273 1419   1.438   2.541   2.024  0.1793  0.1864  0.1113
    4MOL   O274 1420   1.961   2.659   1.949  0.9980  0.2531 -0.0235
    4MOL   H275 1421   1.874   2.996   1.902  0.1997  0.3565 -1.4743
    4MOL   H276 1422   2.010   2.934   1.998  1.9145 -4.3374 -0.7832
    4MOL   H277 1423   1.848   2.757   1.806 -0.6260 -0.6383  0.0601
    4MOL   H278 1424   1.811   2.730   2.099 -0.9856 -0.2504 -0.1079
    4MOL   H279 1425   1.711   2.850   2.004 -0.5388  0.4994  1.2962
    4MOL   H280 1426   1.642   2.665   1.865  1.7845 -1.5630 -1.2579
    4MOL   H281 1427   1.715   2.547   1.966 -2.6718 -1.0178 -0.2701
    4MOL   H282 1428   1.579   2.620   2.169  0.1754 -0.6966  0.2670
    4MOL   H283 1429   1.494   2.741   2.067 -0.3036 -0.9566  0.1397
    4MOL   H284 1430   1.415   2.546   1.918 -2.8738 -1.1020  0.6730
    4MOL   H285 1431   1.460   2.436   2.043 -1.4449 -0.3037 -0.6742
    4MOL   H286 1432   1.341   2.556   2.072 -0.8757  0.8352 -2.1737
    4MOL   C287 1433   2.064   2.620   1.863 -0.3641  0.3280  0.2505
    4MOL   C288 1434   2.125   2.486   1.897 -0.3242 -0.1107  0.1372
    4MOL   C289 1435   2.024   2.376   1.920  0.1782 -0.1997 -0.6016
    4MOL   C290 1436   2.079   2.239   1.942  0.3856 -0.1966 -0.2625
    4MOL   C291 1437   1.973   2.131   1.983  0.4056  0.1324 -0.3541
    4MOL   C292 1438   2.029   2.003   2.031 -0.4444 -0.2869 -0.3279
    4MOL   O293 1439   2.221   2.495   2.005  0.3113 -0.6115  0.1834
    4MOL   H294 1440   2.148   2.689   1.862  2.7214 -3.3337 -0.6518
    4MOL   H295 1441   2.015   2.605   1.767  0.2245  0.4784 -0.0710
    4MOL   H296 1442   2.187   2.460   1.811  1.1986  3.9350 -0.1100
    4MOL   H297 1443   1.972   2.396   2.013  0.2202  0.3448 -0.6955
    4MOL   H298 1444   1.941   2.380   1.850 -0.1329 -0.2945 -0.2366
    4MOL   H299 1445   2.134   2.208   1.853 -0.5425 -0.5511 -0.7209
    4MOL   H300 1446   2.153   2.241   2.023  0.5051  0.3110 -0.3793
    4MOL   H301 1447   1.893   2.110   1.911 -0.3149  0.0147  0.4747
    4MOL   H302 1448   1.921   2.166   2.072  1.9081  0.8377  0.2662
    4MOL   H303 1449   1.955   1.924   2.039 -0.5737 -0.2568 -1.1184
    4MOL   H304 1450   2.095   1.970   1.950 -0.8255  0.7360 -1.0696
    4MOL   H305 1451   2.075   2.006   2.129 -0.0329 -1.6491 -0.4681
    4MOL   C306 1452   2.188   2.540   2.130 -0.0533 -0.1314  0.0116
    4MOL   C307 1453   2.317   2.539   2.221  0.1826  0.1542 -0.6850
    4MOL   C308 1454   2.272   2.548   2.377 -0.8048 -0.0086  0.2200
    4MOL   C309 1455   2.397   2.535   2.470  0.5332  0.4079  0.5226
    4MOL   C310 1456   2.355   2.526   2.612 -0.0379  0.1448  0.1542
    4MOL   C311 1457   2.470   2.546   2.707  0.3075 -0.3260 -0.3336
    4MOL   O312 1458   2.394   2.653   2.201  0.7136  0.7016  0.6076
    4MOL   H313 1459   2.150   2.642   2.118 -0.0933 -0.1223  0.2215
    4MOL   H314 1460   2.104   2.480   2.163  0.1628 -1.7664 -2.2816
    4MOL   H315 1461   2.372   2.445   2.224 -0.6370 -0.3675 -1.6220
    4MOL   H316 1462   2.206   2.464   2.398  1.5633 -2.0030 -0.2010
    4MOL   H317 1463   2.208   2.635   2.393  0.8594  1.4262 -0.7732
    4MOL   H318 1464   2.452   2.446   2.439  1.2603  0.9091  0.3555
    4MOL   H319 1465   2.456   2.626   2.453  0.7080  0.3126  0.6212
    4MOL   H320 1466   2.305   2.432   2.636 -1.3889  1.5620  3.1396
    4MOL   H321 1467   2.281   2.603   2.636  0.6263  1.0121 -0.5578
    4MOL   H322 1468   2.453   2.518   2.811  0.7942  0.6023 -0.0021
    4MOL   H323 1469   2.560   2.492   2.677  2.0437  1.3808  1.6322
    4MOL   H324 1470   2.507   2.648   2.719  0.1666 -0.4939  1.8103
    4MOL   C325 1471   2.479   2.641   2.088 -0.2462  0.3794  0.1921
    4MOL   C326 1472   2.558   2.767   2.073 -0.0498  0.1248 -0.4441
    4MOL   C327 1473   2.580   2.797   1.920  0.3792 -0.1748 -0.0842
    4MOL   C328 1474   2.680   2.909   1.904 -0.7225 -0.1144 -0.3687
    4MOL   C329 1475   2.729   2.924   1.755 -0.8255  0.2175  0.0243
    4MOL   C330 1476   2.822   3.050   1.745  0.1709  0.3015 -0.7619
    4MOL   O331 1477   2.678   2.749   2.141  0.3003  0.3774 -0.3601
    4MOL   H332 1478   2.426   2.641   1.993 -0.0537 -0.3684  0.0805
    4MOL   H333 1479   2.544   2.554   2.101  0.0229  0.7272  1.2219
    4MOL   H334 1480   2.497   2.851   2.106  1.5781  1.2298 -0.1579
    4MOL   H335 1481   2.611   2.713   1.859 -0.8178  0.1069 -1.1014
    4MOL   H336 1482   2.488   2.834   1.874  0.0310  0.3445  1.0045
    4MOL   H337 1483   2.655   3.001   1.957  0.5789 -1.3118  2.4292
    4MOL   H338 1484   2.774   2.886   1.954 -0.9873 -0.4913 -0.0418
    4MOL   H339 1485   2.789   2.835   1.735  0.0884  1.0951 -1.1858
    4MOL   H340 1486   2.647   2.922   1.684 -0.6540  0.7530 -0.1865
    4MOL   H341 1487   2.884   3.065   1.834 -0.7768  0.4013 -0.1192
    4MOL   H342 1488   2.880   3.034   1.654  0.3446  0.6278 -0.7069
    4MOL   H343 1489   2.758   3.137   1.742 -0.1034  0.0862 -1.2303
    4MOL   C344 1490   2.666   2.731   2.285  0.1218 -0.8277 -0.0225
    4MOL   C345 1491   2.810   2.733   2.336 -0.2407 -0.3777  0.5699
    4MOL   C346 1492   2.819   2.768   2.489 -0.5402 -0.3489 -0.3686
    4MOL   C347 1493   2.961   2.749   2.540 -0.7059  0.2479  1.0983
    4MOL   C348 1494   2.975   2.784   2.687 -0.0624 -0.4588  0.8364
    4MOL   C349 1495   3.118   2.753   2.743  0.6660 -0.3131 -0.7208
    4MOL   O350 1496   2.870   2.606   2.321 -0.0537 -0.4346  0.6397
    4MOL   H351 1497   2.621   2.637   2.318  0.3095 -1.3779 -1.2922
    4MOL   H352 1498   2.615   2.821   2.320  1.1915  0.2904 -1.2680
    4MOL   H353 1499   2.857   2.814   2.280 -3.1443  1.9862  1.4600
    4MOL   H354 1500   2.752   2.694   2.532  1.1782 -2.0165 -0.4552
    4MOL   H355 1501   2.774   2.865   2.507 -1.9303 -0.8578 -0.9916
    4MOL   H356 1502   3.023   2.811   2.475 -0.3593 -1.3367 -0.1152
    4MOL   H357 1503   3.013   2.655   2.517 -2.7283 -0.4128 -1.0319
    4MOL   H358 1504   2.892   2.742   2.744 -0.8714  1.1753  0.9126
    4MOL   H359 1505   2.951   2.889   2.706 -2.2665 -1.0490  1.5103
    4MOL   H360 1506   3.137   2.646   2.739 -0.5432 -0.5192 -1.0566
    4MOL   H361 1507   3.129   2.782   2.848  0.2644  0.3053 -0.8488
    4MOL   H362 1508   3.196   2.802   2.684  0.3404  0.1146 -0.7925
    4MOL   C363 1509   2.900   2.573   2.186  0.3342  0.2403 -0.9645
    4MOL   C364 1510   2.998   2.456   2.186  0.0336 -0.2061  0.1869
    4MOL   C365 1511   3.135   2.475   2.239 -0.7791 -0.0001  0.1446
    4MOL   C366 1512   3.231   2.531   2.144  0.0668 -0.2076  0.0461
    4MOL   C367 1513   3.369   2.561   2.203  1.0303 -0.2011 -0.1353
    4MOL   C368 1514   3.471   2.585   2.089 -0.8662 -0.6401 -0.3947
    4MOL   O369 1515   2.931   2.372   2.275 -0.3188 -0.7506 -0.0721
    4MOL   H370 1516   2.936   2.664   2.138  0.6208  1.3593  1.3334
    4MOL   H371 1517   2.804   2.541   2.144  0.8799 -0.5208 -1.6428
    4MOL   H372 1518   3.004   2.403   2.091 -0.0705 -3.4958  1.9379
    4MOL   H373 1519   3.138   2.526   2.335 -3.8681 -1.5188  1.1405
    4MOL   H374 1520   3.169   2.377   2.273  1.3390  0.4987 -0.4826
    4MOL   H375 1521   3.251   2.454   2.069 -1.0888 -1.0551  0.5717
    4MOL   H376 1522   3.196   2.621   2.094 -0.5848 -0.3856  0.1695
    4MOL   H377 1523   3.380   2.650   2.266 -0.6074  0.0338 -0.1637
    4MOL   H378 1524   3.399   2.469   2.253 -0.7090 -0.5627  0.2639
    4MOL   H379 1525   3.488   2.499   2.024  3.5216 -0.0399 -0.2069
    4MOL   H380 1526   3.434   2.656   2.016  1.0923  2.4157  1.4744
    4MOL   H381 1527   3.564   2.629   2.125 -2.2141  1.0708  1.0587
    4MOL   H382 1528   2.889   2.421   2.345 -0.6136 -2.2697  0.8476
    5MOL     C1 1529   1.865   4.871   2.875 -0.6785  0.5088  0.1760
    5MOL     C2 1530   1.830   4.864   2.719 -0.3037  0.1142 -0.0191
    5MOL     C3 1531   1.692   4.916   2.700  0.2890  0.6800 -0.1000
    5MOL     C4 1532   1.577   4.827   2.747 -0.1481  0.1127 -0.2360
    5MOL     C5 1533   1.438   4.892   2.741 -0.3718  0.1225  0.1771
    5MOL     C6 1534   1.335   4.816   2.828 -0.2529 -0.6556  0.5434
    5MOL     O7 1535   1.918   4.936   2.635  0.1146 -1.0968  0.3877
    5MOL     H8 1536   1.799   4.817   2.944  0.5887 -0.7917  0.3871
    5MOL     H9 1537   1.864   4.972   2.916  2.6577  1.2416 -1.4429
    5MOL    H10 1538   1.831   4.761   2.683  0.2683 -0.2862  1.1268
    5MOL    H11 1539   1.695   5.006   2.762  1.9198 -1.5053  3.0890
    5MOL    H12 1540   1.677   4.944   2.596 -0.4698 -1.9620 -0.7277
    5MOL    H13 1541   1.568   4.744   2.677 -0.7364  0.9547 -1.1620
    5MOL    H14 1542   1.599   4.794   2.849  0.1194  1.4290  0.1393
    5MOL    H15 1543   1.447   4.996   2.773 -0.6169 -0.0054  0.6581
    5MOL    H16 1544   1.415   4.897   2.635 -1.2115 -0.1422  0.3463
    5MOL    H17 1545   1.239   4.867   2.833  0.1187 -0.1769  3.9659
    5MOL    H18 1546   1.326   4.710   2.805  1.7910 -0.6843 -0.2229
    5MOL    H19 1547   1.382   4.812   2.926  1.4634 -3.9141 -0.3519
    5MOL    H20 1548   1.961   4.822   2.889  0.0334  2.4678  2.5833
    5MOL    C21 1549   2.054   4.900   2.638  0.1024  0.0813  0.4494
    5MOL    C22 1550   2.122   5.006   2.558 -0.4081  0.1952  0.2508
    5MOL    C23 1551   2.110   5.144   2.626 -0.8930 -0.8392 -0.1111
    5MOL    C24 1552   2.163   5.252   2.529  0.5523 -0.2166 -0.6557
    5MOL    C25 1553   2.159   5.399   2.586  0.1736 -0.0763  0.2808
    5MOL    C26 1554   2.214   5.496   2.484 -1.1452 -0.4900  0.5202
    5MOL    O27 1555   2.259   4.965   2.544  0.0895 -0.4652  0.2719
    5MOL    H28 1556   2.106   4.898   2.733  1.0281  1.6493 -0.0055
    5MOL    H29 1557   2.056   4.801   2.592  0.2662  0.0106  0.6107
    5MOL    H30 1558   2.066   5.015   2.465  1.1303 -0.0925 -0.7184
    5MOL    H31 1559   2.167   5.141   2.719 -0.8429 -1.5664 -0.1643
    5MOL    H32 1560   2.007   5.159   2.658 -1.2260  0.6659 -1.7551
    5MOL    H33 1561   2.098   5.252   2.442 -0.9905 -1.5723  0.4713
    5MOL    H34 1562   2.264   5.227   2.495  0.8931 -1.2451  1.0661
    5MOL    H35 1563   2.061   5.429   2.624 -1.8001 -3.8867 -1.5984
    5MOL    H36 1564   2.222   5.397   2.675 -0.3397  0.3882  0.6556
    5MOL    H37 1565   2.230   5.591   2.534 -0.1423  0.1497 -0.9739
    5MOL    H38 1566   2.149   5.507   2.398  0.4981  1.5010 -0.5116
    5MOL    H39 1567   2.307   5.452   2.450 -2.5192 -3.9634  1.0473
    5MOL    C40 1568   2.292   4.877   2.447 -0.2575 -0.2645  0.0530
    5MOL    C41 1569   2.449   4.890   2.424  0.3738  0.4557 -0.1183
    5MOL    C42 1570   2.492   5.021   2.362  0.5154 -0.2184  0.2807
    5MOL    C43 1571   2.456   5.035   2.211  0.8801  0.2062  0.4966
    5MOL    C44 1572   2.561   5.122   2.139 -0.2497  0.6697 -1.0808
    5MOL    C45 1573   2.667   5.032   2.080 -0.6491 -0.0383 -0.0474
    5MOL    O46 1574   2.489   4.774   2.352  0.2939  0.4630  0.5723
    5MOL    H47 1575   2.235   4.898   2.356  0.4333 -3.1834 -1.1107
    5MOL    H48 1576   2.274   4.774   2.476 -1.4405 -0.3314 -0.9047
    5MOL    H49 1577   2.487   4.877   2.525 -1.6771  0.2759  0.6552
    5MOL    H50 1578   2.449   5.101   2.424  0.6435 -1.1065  1.5255
    5MOL    H51 1579   2.596   5.030   2.393  0.3090  0.9443  0.6892
    5MOL    H52 1580   2.360   5.088   2.208  1.1313  0.7437  1.6263
    5MOL    H53 1581   2.445   4.935   2.168 -2.9510  1.3082 -1.3146
    5MOL    H54 1582   2.514   5.164   2.051  0.6367 -0.5188 -2.1363
    5MOL    H55 1583   2.601   5.203   2.201  0.4953  0.1087 -0.8113
    5MOL    H56 1584   2.716   4.984   2.164  0.4980  1.3818  0.1140
    5MOL    H57 1585   2.623   4.950   2.023  2.1140 -0.8483 -1.1263
    5MOL    H58 1586   2.743   5.090   2.028  0.7861 -0.9369  1.0060
    5MOL    C59 1587   2.623   4.738   2.356  0.5001 -0.4618  0.0197
    5MOL    C60 1588   2.618   4.599   2.280  0.2957 -0.2793 -0.5589
    5MOL    C61 1589   2.763   4.550   2.249 -0.3073 -0.3768  0.0861
    5MOL    C62 1590   2.855   4.649   2.159  0.4950  0.3564  0.5562
    5MOL    C63 1591   2.989   4.596   2.112  0.2386  1.0207 -0.4511
    5MOL    C64 1592   3.061   4.691   2.016  0.3250 -0.3834 -0.7804
    5MOL    O65 1593   2.565   4.511   2.375  0.0340 -0.3155  0.2193
    5MOL    H66 1594   2.662   4.714   2.455 -1.5033  0.3304  1.0186
    5MOL    H67 1595   2.693   4.809   2.312  0.8814 -1.1087 -0.4205
    5MOL    H68 1596   2.563   4.607   2.186  0.4200  0.7885 -0.5478
    5MOL    H69 1597   2.764   4.447   2.216  2.2185 -0.2000 -0.4658
    5MOL    H70 1598   2.826   4.536   2.337 -0.3568 -0.1970  0.1519
    5MOL    H71 1599   2.877   4.743   2.209  0.0470  0.7371  0.0308
    5MOL    H72 1600   2.790   4.677   2.076 -0.1430  1.9005  1.5545
    5MOL    H73 1601   2.976   4.501   2.060 -2.4370 -0.5582  2.8606
    5MOL    H74 1602   3.053   4.568   2.196  1.1157 -0.3385 -1.5518
    5MOL    H75 1603   3.059   4.797   2.042  3.0403 -0.9962  2.3939
    5MOL    H76 1604   3.166   4.660   2.011  0.3299 -0.3131 -1.1164
    5MOL    H77 1605   3.030   4.678   1.913  2.3450  0.2282 -1.4984
    5MOL    C78 1606   2.430   4.480   2.347  0.3409 -0.2927 -0.4134
    5MOL    C79 1607   2.365   4.394   2.462 -0.2993  0.6260  0.2540
    5MOL    C80 1608   2.242   4.320   2.413 -0.3063 -0.5576 -0.5819
    5MOL    C81 1609   2.189   4.219   2.510 -0.3039  0.1450 -0.4540
    5MOL    C82 1610   2.112   4.097   2.449 -1.1668  0.3495 -0.1269
    5MOL    C83 1611   2.036   4.024   2.561  0.3789  0.4885 -0.3215
    5MOL    O84 1612   2.310   4.475   2.569 -0.0344 -0.4394  0.3183
    5MOL    H85 1613   2.436   4.430   2.251  0.3977  2.9285 -2.1486
    5MOL    H86 1614   2.374   4.569   2.317  0.5024 -0.8474 -2.4296
    5MOL    H87 1615   2.442   4.320   2.483 -0.2102  1.6090  3.6564
    5MOL    H88 1616   2.158   4.381   2.379  0.4508 -0.2419 -1.9424
    5MOL    H89 1617   2.257   4.264   2.321 -3.1540  0.4370 -1.7154
    5MOL    H90 1618   2.136   4.273   2.588  1.8820  0.8969  0.5730
    5MOL    H91 1619   2.274   4.177   2.564 -2.0047 -1.8594  0.7111
    5MOL    H92 1620   2.043   4.108   2.366 -1.2195  2.2629  0.1643
    5MOL    H93 1621   2.188   4.029   2.410  1.5647  3.2294 -0.0477
    5MOL    H94 1622   2.061   4.059   2.661  0.2693 -0.2014 -0.0484
    5MOL    H95 1623   2.051   3.917   2.548 -1.5016  0.0939  0.5616
    5MOL    H96 1624   1.929   4.034   2.544  0.5052 -0.5268 -1.8081
    5MOL    C97 1625   2.403   4.546   2.646 -0.5927 -0.3668  0.5385
    5MOL    C98 1626   2.340   4.615   2.766 -0.1502  0.4913  0.4353
    5MOL    C99 1627   2.295   4.510   2.869 -0.3329  0.0588  0.1073
    5MOL   C100 1628   2.215   4.570   2.986  0.8663 -0.1811 -0.7036
    5MOL   C101 1629   2.188   4.447   3.076  0.0752  0.8476  0.7175
    5MOL   C102 1630   2.305   4.392   3.160 -1.1851  0.2532  0.2314
    5MOL   O103 1631   2.443   4.704   2.824 -0.4262  0.7549  0.5525
    5MOL   H104 1632   2.449   4.627   2.589 -1.7545 -1.4339 -1.9911
    5MOL   H105 1633   2.492   4.486   2.666 -0.5414 -0.5274 -0.1518
    5MOL   H106 1634   2.255   4.673   2.730  1.9494  2.1156 -2.1152
    5MOL   H107 1635   2.384   4.463   2.911  0.0338 -0.5451 -1.3127
    5MOL   H108 1636   2.246   4.422   2.828 -0.2655 -1.0128  2.2760
    5MOL   H109 1637   2.118   4.604   2.949  0.0617 -1.8119 -0.0864
    5MOL   H110 1638   2.271   4.644   3.043 -0.4082  0.1391  0.1572
    5MOL   H111 1639   2.123   4.372   3.033 -1.9873  3.3920 -0.7380
    5MOL   H112 1640   2.117   4.482   3.151 -2.9964 -0.5028 -1.4671
    5MOL   H113 1641   2.367   4.316   3.112  0.0516  0.8894  0.7869
    5MOL   H114 1642   2.371   4.463   3.210  1.0268 -0.2169 -1.8716
    5MOL   H115 1643   2.263   4.341   3.246 -1.8132  1.4537  0.6538
    5MOL   C116 1644   2.402   4.845   2.825 -0.9526  0.6800 -0.5748
    5MOL   C117 1645   2.509   4.952   2.840  0.3077  0.0742  0.0706
    5MOL   C118 1646   2.443   5.092   2.812  0.5376  0.0545 -0.5385
    5MOL   C119 1647   2.534   5.197   2.867  0.4279 -0.3908 -0.2561
    5MOL   C120 1648   2.495   5.336   2.812  0.0339 -0.4771 -0.1090
    5MOL   C121 1649   2.584   5.445   2.869  0.0042  0.1650  0.3441
    5MOL   O122 1650   2.609   4.938   2.739  0.1067 -0.4587 -0.1850
    5MOL   H123 1651   2.351   4.853   2.730 -0.3910 -0.5149 -0.9964
    5MOL   H124 1652   2.333   4.852   2.909  0.9981  0.0923  1.1459
    5MOL   H125 1653   2.546   4.943   2.943  0.7158 -1.1933 -0.1814
    5MOL   H126 1654   2.415   5.099   2.707 -1.5094 -1.4844 -0.1292
    5MOL   H127 1655   2.348   5.094   2.866  0.9368  0.2178  0.1715
    5MOL   H128 1656   2.637   5.168   2.843  1.7135  2.2762  1.7879
    5MOL   H129 1657   2.527   5.194   2.976 -1.8136 -0.1890 -0.3729
    5MOL   H130 1658   2.498   5.341   2.703  1.8000  0.6005 -0.0406
    5MOL   H131 1659   2.395   5.351   2.853 -0.3152 -1.3953 -0.6051
    5MOL   H132 1660   2.609   5.438   2.976  1.9548 -1.0187 -0.1495
    5MOL   H133 1661   2.678   5.444   2.813  1.1342  0.9734  2.1490
    5MOL   H134 1662   2.533   5.540   2.854 -2.3559 -1.0773  0.2793
    5MOL   C135 1663   2.720   4.866   2.792  0.3553 -0.6659 -0.1956
    5MOL   C136 1664   2.841   4.875   2.702  0.0845 -0.6522  0.0837
    5MOL   C137 1665   2.944   4.763   2.739  1.0543  0.4791  0.0014
    5MOL   C138 1666   3.018   4.715   2.616  0.1487  0.3971 -0.2742
    5MOL   C139 1667   3.126   4.821   2.578 -1.2429  0.4413 -0.0620
    5MOL   C140 1668   3.191   4.762   2.450 -0.8720  0.1976  0.3066
    5MOL   O141 1669   2.913   4.998   2.712 -0.1705  0.0925  0.1230
    5MOL   H142 1670   2.750   4.900   2.891  2.9274  0.0131 -1.1917
    5MOL   H143 1671   2.693   4.760   2.802 -0.5735 -0.4843 -0.7433
    5MOL   H144 1672   2.806   4.860   2.599  0.3167  1.3497 -0.3107
    5MOL   H145 1673   3.008   4.801   2.819  0.6308  0.5777  0.2941
    5MOL   H146 1674   2.895   4.672   2.776  0.5345  0.2854 -1.1488
    5MOL   H147 1675   2.943   4.702   2.538  0.6000 -0.0637 -0.6270
    5MOL   H148 1676   3.064   4.618   2.635  1.4602  1.0244 -0.2443
    5MOL   H149 1677   3.207   4.833   2.650 -1.7371  1.8407  0.2672
    5MOL   H150 1678   3.070   4.913   2.565 -1.8463 -0.0962 -1.3354
    5MOL   H151 1679   3.112   4.737   2.378 -1.2436  0.0261  0.7746
    5MOL   H152 1680   3.259   4.822   2.390  0.1077  0.8812  2.0704
    5MOL   H153 1681   3.236   4.667   2.477  0.8361  0.2903 -2.0332
    5MOL   C154 1682   2.847   5.111   2.649  0.5528 -0.5917  0.3059
    5MOL   C155 1683   2.941   5.230   2.660 -0.4353 -0.2375  0.2454
    5MOL   C156 1684   2.901   5.348   2.579  0.0912 -0.4720  0.7258
    5MOL   C157 1685   3.001   5.461   2.556 -0.4854  0.4956  0.4527
    5MOL   C158 1686   2.985   5.548   2.433 -0.7894  0.4281  0.1325
    5MOL   C159 1687   3.035   5.486   2.297 -1.0644  0.1568  0.3619
    5MOL   O160 1688   2.926   5.275   2.791  0.4952 -0.3862  0.3117
    5MOL   H161 1689   2.749   5.148   2.677  0.9350  0.6225  0.0619
    5MOL   H162 1690   2.830   5.092   2.543  1.4559 -0.2744  0.0942
    5MOL   H163 1691   3.038   5.181   2.644 -0.2859  0.1661 -0.0927
    5MOL   H164 1692   2.802   5.383   2.609 -0.8062 -0.0199 -2.5564
    5MOL   H165 1693   2.884   5.303   2.481  0.8938  0.0141  0.3589
    5MOL   H166 1694   3.103   5.422   2.547 -0.4422  1.3375 -3.3575
    5MOL   H167 1695   3.003   5.519   2.649  0.7338  0.3723  0.5157
    5MOL   H168 1696   2.879   5.574   2.426 -1.1349 -1.7523 -3.8339
    5MOL   H169 1697   3.029   5.646   2.455 -0.5839  0.0770  1.3169
    5MOL   H170 1698   2.995   5.385   2.290 -0.4407 -0.0456 -0.3194
    5MOL   H171 1699   3.144   5.479   2.286 -1.1792 -1.6657  0.2033
    5MOL   H172 1700   2.995   5.538   2.210 -1.6615  1.3073  1.3078
    5MOL   C173 1701   3.053   5.285   2.864 -0.2333 -0.2647  0.0839
    5MOL   C174 1702   3.097   5.151   2.931  0.0875 -0.3953  0.0066
    5MOL   C175 1703   3.250   5.148   2.959  0.0781  0.8304  0.2505
    5MOL   C176 1704   3.292   5.034   3.055  0.4745  0.0350 -0.4085
    5MOL   C177 1705   3.437   5.041   3.115 -0.1541  0.0866  0.5307
    5MOL   C178 1706   3.440   4.966   3.252  0.3146  0.4308 -0.0932
    5MOL   O179 1707   3.034   5.141   3.059  0.0751 -0.2165 -0.0973
    5MOL   H180 1708   3.045   5.356   2.946 -0.7996  0.6204 -0.7209
    5MOL   H181 1709   3.127   5.328   2.796 -2.4438  2.4107 -0.7665
    5MOL   H182 1710   3.081   5.062   2.869  2.9566 -1.6153  0.9001
    5MOL   H183 1711   3.301   5.121   2.866  0.8511  1.6147  0.4442
    5MOL   H184 1712   3.267   5.243   3.009 -1.1991  1.5842 -0.7301
    5MOL   H185 1713   3.226   5.053   3.138 -2.8649  0.5480 -3.0773
    5MOL   H186 1714   3.271   4.936   3.011  2.2168  0.0205 -1.2949
    5MOL   H187 1715   3.511   4.994   3.050 -0.6731 -1.8193  1.2695
    5MOL   H188 1716   3.474   5.143   3.116  1.8536 -0.6280  1.3276
    5MOL   H189 1717   3.386   4.871   3.254 -0.7765  1.0306 -0.4331
    5MOL   H190 1718   3.398   5.035   3.325  1.3737 -0.3099  1.2197
    5MOL   H191 1719   3.542   4.952   3.287  0.8707 -1.4128 -2.3049
    5MOL   C192 1720   2.896   5.111   3.060  0.5180  0.1125  1.1400
    5MOL   C193 1721   2.867   5.050   3.198 -1.1368  0.2721 -0.7925
    5MOL   C194 1722   2.960   4.937   3.241 -0.0889 -0.3824 -0.1612
    5MOL   C195 1723   2.953   4.815   3.149 -0.7875 -0.9859  0.2144
    5MOL   C196 1724   3.057   4.706   3.177 -0.0215  0.3857  0.1091
    5MOL   C197 1725   3.053   4.600   3.070 -0.9038  0.1966  1.0739
    5MOL   O198 1726   2.739   4.992   3.200  0.0520 -0.1237  0.4933
    5MOL   H199 1727   2.834   5.200   3.048  0.5957  0.6015  3.9533
    5MOL   H200 1728   2.872   5.032   2.989  3.4844  0.7001 -0.6094
    5MOL   H201 1729   2.885   5.131   3.269  2.0520 -1.5110  0.5159
    5MOL   H202 1730   3.061   4.978   3.252 -1.1292  2.2065 -0.0039
    5MOL   H203 1731   2.933   4.904   3.341  1.5082 -0.2021  0.3603
    5MOL   H204 1732   2.994   4.845   3.052 -0.1196 -1.8686  0.2175
    5MOL   H205 1733   2.850   4.780   3.153 -0.7821 -1.0911 -0.4573
    5MOL   H206 1734   3.155   4.752   3.163 -0.4583  1.4385  0.4725
    5MOL   H207 1735   3.067   4.674   3.280  1.8547 -2.1128 -0.7934
    5MOL   H208 1736   3.102   4.509   3.107 -0.1227  0.0959 -0.1659
    5MOL   H209 1737   2.949   4.571   3.053 -1.8219  2.6683  2.2725
    5MOL   H210 1738   3.104   4.628   2.978 -0.9630  0.4981  1.1347
    5MOL   C211 1739   2.652   5.047   3.301  0.0310  0.4262 -0.1478
    5MOL   C212 1740   2.518   4.965   3.321  0.7686  0.1965  0.4522
    5MOL   C213 1741   2.537   4.817   3.300  0.5632 -0.0257  0.6436
    5MOL   C214 1742   2.639   4.744   3.392  0.6275  0.0396 -0.0991
    5MOL   C215 1743   2.661   4.597   3.357  0.2228 -0.1314  0.9696
    5MOL   C216 1744   2.780   4.538   3.439  0.2059  0.7240  0.1835
    5MOL   O217 1745   2.425   5.009   3.222  0.3428  0.4061  0.1647
    5MOL   H218 1746   2.635   5.154   3.289  1.0710  0.6046 -0.1214
    5MOL   H219 1747   2.716   5.045   3.389 -0.6279  1.0551  0.3436
    5MOL   H220 1748   2.481   4.993   3.420  1.4473  2.2487  0.1435
    5MOL   H221 1749   2.442   4.764   3.302 -0.4218  1.4884 -2.7844
    5MOL   H222 1750   2.569   4.806   3.197  1.4076  0.0407  0.8879
    5MOL   H223 1751   2.737   4.790   3.382  1.6881 -2.3037 -0.8489
    5MOL   H224 1752   2.612   4.735   3.497  0.5603  0.6006 -0.0669
    5MOL   H225 1753   2.566   4.556   3.392  0.0374  0.0533  0.6778
    5MOL   H226 1754   2.668   4.592   3.249  2.0266  1.4450  0.9902
    5MOL   H227 1755   2.787   4.431   3.423  1.5115  0.7107  0.7457
    5MOL   H228 1756   2.775   4.541   3.548 -1.5629  2.6052  0.0865
    5MOL   H229 1757   2.870   4.584   3.397  0.0086 -0.6398 -1.7913
    5MOL   C230 1758   2.363   5.133   3.243  0.5841 -0.1409  0.5103
    5MOL   C231 1759   2.239   5.151   3.165  0.3364  0.1679 -0.3749
    5MOL   C232 1760   2.207   5.301   3.147 -0.1561 -0.2987 -0.4035
    5MOL   C233 1761   2.080   5.324   3.061 -0.4173  0.3016 -0.1035
    5MOL   C234 1762   2.075   5.475   3.031  0.1431  0.1944 -0.4386
    5MOL   C235 1763   2.021   5.555   3.157  0.2917 -0.0804  0.6541
    5MOL   O236 1764   2.133   5.100   3.243  0.9783  0.1674  0.4631
    5MOL   H237 1765   2.351   5.148   3.350 -1.9973 -2.0032  0.5159
    5MOL   H238 1766   2.438   5.208   3.216 -1.0344  1.9186  1.5748
    5MOL   H239 1767   2.250   5.103   3.068 -0.0428 -0.2385 -0.2188
    5MOL   H240 1768   2.294   5.337   3.091  1.4473 -2.1341  0.8325
    5MOL   H241 1769   2.194   5.353   3.241  0.1295  0.8006 -0.9626
    5MOL   H242 1770   1.995   5.281   3.114 -0.0572 -0.5929 -0.2363
    5MOL   H243 1771   2.101   5.266   2.971 -1.3189  1.0244 -0.7832
    5MOL   H244 1772   2.175   5.501   2.997  0.1069  0.6018 -0.2436
    5MOL   H245 1773   2.011   5.485   2.942  2.3473  1.7941 -1.8990
    5MOL   H246 1774   2.102   5.557   3.230 -0.6609 -2.8590  1.8683
    5MOL   H247 1775   1.934   5.512   3.205  0.8389 -0.5638  1.2290
    5MOL   H248 1776   1.988   5.649   3.114  0.5739 -0.4804 -0.4547
    5MOL   C249 1777   2.109   4.957   3.229 -0.2511 -0.8411 -0.3594
    5MOL   C250 1778   1.984   4.905   3.322 -0.6047 -0.3539  0.1570
    5MOL   C251 1779   1.966   4.752   3.325 -0.3119  0.0221  0.6910
    5MOL   C252 1780   1.837   4.688   3.375  0.5267 -0.2536 -0.4310
    5MOL   C253 1781   1.858   4.534   3.375 -0.1698  0.5563  0.1345
    5MOL   C254 1782   1.745   4.463   3.451  0.3244 -0.6535  0.0899
    5MOL   O255 1783   1.863   4.948   3.258 -0.0365 -0.7124  0.2584
    5MOL   H256 1784   2.090   4.941   3.123  4.0527  0.9864 -1.5141
    5MOL   H257 1785   2.190   4.891   3.260 -0.1130 -0.8487 -0.7369
    5MOL   H258 1786   1.997   4.947   3.422  0.7074  1.6718 -0.8393
    5MOL   H259 1787   1.979   4.710   3.226  2.5318  1.4720  0.3852
    5MOL   H260 1788   2.043   4.707   3.388  1.9737  0.8105 -1.4725
    5MOL   H261 1789   1.811   4.730   3.472  0.6729 -2.7028  0.7047
    5MOL   H262 1790   1.754   4.716   3.310 -1.0035  1.3998  2.1502
    5MOL   H263 1791   1.873   4.496   3.274  1.8530  1.4440  0.0651
    5MOL   H264 1792   1.951   4.502   3.423 -0.7442 -0.7937  0.3524
    5MOL   H265 1793   1.762   4.355   3.458 -1.5756 -0.9511  0.6108
    5MOL   H266 1794   1.649   4.470   3.399 -0.0225 -0.4979  0.7521
    5MOL   H267 1795   1.735   4.491   3.555  0.3351 -2.2080  0.5284
    5MOL   C268 1796   1.831   5.085   3.288 -0.1160  0.6756 -0.2283
    5MOL   C269 1797   1.689   5.116   3.228 -0.1473  0.0976  0.2563
    5MOL   C270 1798   1.679   5.270   3.193  0.6133 -0.0760 -0.6192
    5MOL   C271 1799   1.553   5.301   3.111 -0.0556  0.0816 -0.2459
    5MOL   C272 1800   1.539   5.449   3.059 -0.4881 -0.3614  0.0018
    5MOL   C273 1801   1.642   5.473   2.946  0.1156  0.0104 -0.1937
    5MOL   O274 1802   1.591   5.089   3.326 -0.3531  0.3937 -0.0207
    5MOL   H275 1803   1.906   5.149   3.242 -1.2875  1.2612 -1.3620
    5MOL   H276 1804   1.827   5.096   3.396  0.9825 -0.0912 -0.0932
    5MOL   H277 1805   1.670   5.062   3.136  0.0435 -1.0201  0.8543
    5MOL   H278 1806   1.660   5.330   3.283  0.7569 -2.5533  1.1022
    5MOL   H279 1807   1.772   5.304   3.148  2.2050 -1.3644  1.6105
    5MOL   H280 1808   1.543   5.241   3.021 -1.3835  1.2951 -0.9415
    5MOL   H281 1809   1.470   5.268   3.173  1.0347 -0.6569  0.8247
    5MOL   H282 1810   1.439   5.456   3.017 -0.2014 -0.2752 -0.6624
    5MOL   H283 1811   1.540   5.520   3.142  1.8462 -2.2848  1.7103
    5MOL   H284 1812   1.654   5.392   2.874 -0.3805 -0.0672 -0.1934
    5MOL   H285 1813   1.615   5.558   2.883 -1.7997 -0.6306 -0.2797
    5MOL   H286 1814   1.742   5.489   2.986  1.1520 -2.5543 -1.5793
    5MOL   C287 1815   1.553   4.948   3.347  0.6653 -0.5150 -0.3559
    5MOL   C288 1816   1.420   4.945   3.430 -0.3992  0.2191 -0.2385
    5MOL   C289 1817   1.413   4.802   3.494  0.2943 -0.2126 -0.0642
    5MOL   C290 1818   1.286   4.784   3.580 -0.9780 -0.5985 -0.1785
    5MOL   C291 1819   1.274   4.645   3.649  0.5643 -0.2687  0.4773
    5MOL   C292 1820   1.157   4.628   3.745 -0.3156  0.4330  0.5572
    5MOL   O293 1821   1.308   4.953   3.342 -0.3951  0.1336 -0.5204
    5MOL   H294 1822   1.636   4.899   3.398 -0.2057 -1.6559 -0.0112
    5MOL   H295 1823   1.542   4.902   3.248  1.6862  0.6709 -1.0417
    5MOL   H296 1824   1.405   5.016   3.511  0.4786  0.0009  0.1210
    5MOL   H297 1825   1.406   4.726   3.416 -2.3516  1.0389 -1.0988
    5MOL   H298 1826   1.492   4.777   3.565  0.7171  1.8633  0.2309
    5MOL   H299 1827   1.289   4.852   3.665 -0.6980 -2.3276  1.2088
    5MOL   H300 1828   1.198   4.814   3.523 -1.9969  1.5773  2.4353
    5MOL   H301 1829   1.370   4.614   3.691 -0.0622 -0.5288  1.7555
    5MOL   H302 1830   1.256   4.576   3.567 -0.2030 -0.2491  0.6219
    5MOL   H303 1831   1.137   4.521   3.757  0.5339  0.4754  2.4929
    5MOL   H304 1832   1.176   4.675   3.841 -0.2558 -0.2091  0.8629
    5MOL   H305 1833   1.077   4.687   3.701 -1.0189  0.2288  1.5443
    5MOL   C306 1834   1.284   5.081   3.282 -0.2119 -0.3221 -0.0854
    5MOL   C307 1835   1.155   5.052   3.202  0.6730  0.0859 -0.5795
    5MOL   C308 1836   1.164   5.115   3.060 -0.0664  0.2644 -0.5349
    5MOL   C309 1837   1.044   5.077   2.968  0.5814  0.0761 -0.2556
    5MOL   C310 1838   1.067   5.147   2.834 -0.1224 -0.1250 -0.4974
    5MOL   C311 1839   0.944   5.181   2.756  0.2225 -0.4904  0.0954
    5MOL   O312 1840   1.051   5.116   3.284 -0.0233  0.3328 -0.4745
    5MOL   H313 1841   1.280   5.170   3.344 -1.2259 -0.5847  0.2420
    5MOL   H314 1842   1.364   5.098   3.211 -0.4166 -1.7430 -0.6910
    5MOL   H315 1843   1.144   4.946   3.178  0.4705  0.2962 -1.4407
    5MOL   H316 1844   1.257   5.080   3.015  1.6313  3.8696  0.0182
    5MOL   H317 1845   1.178   5.218   3.093  1.3451 -0.0975  0.0143
    5MOL   H318 1846   1.033   4.969   2.972 -2.6615  0.4058  1.0029
    5MOL   H319 1847   0.956   5.113   3.021  0.3173  0.4347 -0.9381
    5MOL   H320 1848   1.141   5.088   2.781  0.2131 -1.9431  1.8903
    5MOL   H321 1849   1.127   5.237   2.851  2.0473 -1.5349 -0.4063
    5MOL   H322 1850   0.871   5.225   2.825  1.5353  1.7711  0.1053
    5MOL   H323 1851   0.964   5.257   2.680 -4.0997  1.2035  0.4809
    5MOL   H324 1852   0.903   5.091   2.710  0.0053 -0.1734 -0.3405
    5MOL   C325 1853   1.010   5.035   3.389 -0.2259  0.7229 -0.2934
    5MOL   C326 1854   0.870   5.074   3.430  0.1027  0.9214 -0.7479
    5MOL   C327 1855   0.847   5.066   3.583 -0.6281 -0.1097  0.2303
    5MOL   C328 1856   0.834   4.919   3.625 -0.6568  0.5831  0.3413
    5MOL   C329 1857   0.840   4.909   3.777 -0.5287  0.7239 -0.3957
    5MOL   C330 1858   0.793   4.771   3.824  0.3224 -0.4494  0.7313
    5MOL   O331 1859   0.772   4.995   3.357  0.4024  0.0972 -0.2561
    5MOL   H332 1860   1.073   5.064   3.473  1.2521 -1.6143 -0.5710
    5MOL   H333 1861   1.034   4.930   3.373 -0.4680  0.7535 -0.8774
    5MOL   H334 1862   0.854   5.180   3.409  0.0540  0.6570 -2.0981
    5MOL   H335 1863   0.927   5.121   3.632 -1.3547  0.5999  0.6512
    5MOL   H336 1864   0.753   5.116   3.608 -0.7782 -0.8862  1.2866
    5MOL   H337 1865   0.739   4.886   3.583 -0.7785  2.3121 -0.8011
    5MOL   H338 1866   0.918   4.862   3.584 -0.0948  1.6241  0.0264
    5MOL   H339 1867   0.944   4.912   3.810 -0.4280 -1.3792 -0.4750
    5MOL   H340 1868   0.777   4.983   3.825  0.2631  0.1105  1.6296
    5MOL   H341 1869   0.697   4.743   3.781  0.4290 -2.7850  1.9425
    5MOL   H342 1870   0.865   4.691   3.809 -0.2671 -0.9187  0.4074
    5MOL   H343 1871   0.780   4.785   3.932 -1.7372  0.9776  0.3440
    5MOL   C344 1872   0.658   5.065   3.306 -0.9867  0.5468 -0.2273
    5MOL   C345 1873   0.576   4.949   3.230 -0.6376 -0.8524 -0.0273
    5MOL   C346 1874   0.423   4.974   3.247  0.3742  0.3245 -0.0343
    5MOL   C347 1875   0.344   4.844   3.212  0.1719 -0.1312 -0.1236
    5MOL   C348 1876   0.199   4.861   3.203 -0.3227 -0.2062 -0.5243
    5MOL   C349 1877   0.125   4.770   3.093 -1.0476 -0.2325 -0.9452
    5MOL   O350 1878   0.612   4.946   3.087 -0.3931 -0.6729 -0.5891
    5MOL   H351 1879   0.693   5.140   3.236  0.6095  0.8039  0.8222
    5MOL   H352 1880   0.605   5.111   3.389  0.7010  0.1500  1.0938
    5MOL   H353 1881   0.606   4.855   3.276  0.5521 -0.6028 -0.2789
    5MOL   H354 1882   0.382   5.066   3.207  0.0698 -0.3187 -1.2426
    5MOL   H355 1883   0.406   4.980   3.354  0.6303 -1.5904  0.1375
    5MOL   H356 1884   0.364   4.766   3.286 -1.3103  2.0911  2.7724
    5MOL   H357 1885   0.378   4.813   3.114 -0.3478  0.2518 -0.4267
    5MOL   H358 1886   0.182   4.966   3.181 -3.4209 -0.2308  1.5088
    5MOL   H359 1887   0.151   4.850   3.300 -2.3821 -0.0986 -1.4911
    5MOL   H360 1888   0.119   4.664   3.118  0.0709 -0.1336 -0.2667
    5MOL   H361 1889   0.173   4.774   2.995  1.2435  1.1615  0.1991
    5MOL   H362 1890   0.022   4.799   3.070 -1.5101 -2.1295 -1.3793
    5MOL   C363 1891   0.730   4.872   3.057  0.1538  0.2664  0.2615
    5MOL   C364 1892   0.725   4.850   2.908  0.4038 -0.1753  0.2998
    5MOL   C365 1893   0.597   4.778   2.852  0.3838 -0.0369  0.7303
    5MOL   C366 1894   0.578   4.655   2.938  0.1547  0.0129 -0.7049
    5MOL   C367 1895   0.489   4.548   2.876  0.1657 -0.4433 -0.1658
    5MOL   C368 1896   0.512   4.407   2.930  0.5948  0.4715  0.2111
    5MOL   O369 1897   0.738   4.974   2.853  0.2678  0.0414  0.2471
    5MOL   H370 1898   0.735   4.777   3.111 -0.7665 -0.7752 -1.4419
    5MOL   H371 1899   0.818   4.932   3.080  1.1282 -1.2782  0.6082
    5MOL   H372 1900   0.808   4.791   2.872 -0.7354 -0.3668 -2.1145
    5MOL   H373 1901   0.519   4.852   2.871  1.3965  0.8274  1.5550
    5MOL   H374 1902   0.615   4.766   2.746 -1.8998 -0.3715  0.3629
    5MOL   H375 1903   0.673   4.601   2.943 -0.1925 -0.5202  0.4156
    5MOL   H376 1904   0.557   4.679   3.042  2.6841 -0.0296 -0.1423
    5MOL   H377 1905   0.385   4.582   2.882 -0.4760 -2.0901 -1.2355
    5MOL   H378 1906   0.496   4.542   2.767  2.0253 -1.0046 -0.0216
    5MOL   H379 1907   0.498   4.407   3.038 -0.2327 -1.0448  0.1191
    5MOL   H380 1908   0.439   4.340   2.884  0.2080 -0.7514  2.4978
    5MOL   H381 1909   0.599   4.345   2.911 -0.7888 -0.9953 -1.5052
    5MOL   H382 1910   0.679   5.033   2.898 -1.0619  0.2186 -1.6725
    6MOL     C1 1911   6.352   2.821   7.531  0.0964 -0.6037 -0.3762
    6MOL     C2 1912   6.329   2.967   7.579 -0.6874 -0.0600 -0.3504
    6MOL     C3 1913   6.434   3.008   7.690 -0.2497  0.0044 -0.2409
    6MOL     C4 1914   6.416   2.939   0.040 -0.1323 -0.0101  0.5997
    6MOL     C5 1915   6.334   3.016   0.141  0.2398  0.3989  0.0358
    6MOL     C6 1916   6.397   3.144   0.188  0.3799 -0.7843 -0.6821
    6MOL     O7 1917   6.338   3.054   7.460  0.7908  0.4881  0.4871
    6MOL     H8 1918   6.327   2.751   7.610  1.3734 -0.8036 -0.1268
    6MOL     H9 1919   6.458   2.795   7.520  1.0929  2.0302  2.2373
    6MOL    H10 1920   6.228   2.968   7.621  0.2077  0.8058  1.8926
    6MOL    H11 1921   6.535   2.983   7.658 -0.7053 -1.0657 -0.8995
    6MOL    H12 1922   6.435   3.116   7.706 -1.0159 -0.2803  1.8376
    6MOL    H13 1923   6.372   2.841   0.025 -0.8206  0.4866 -0.6819
    6MOL    H14 1924   6.513   2.915   0.084 -0.0469  0.1581  0.5040
    6MOL    H15 1925   6.229   3.040   0.123 -0.7572  0.1773  4.9202
    6MOL    H16 1926   6.323   2.936   0.214  1.6000  0.2266  0.0636
    6MOL    H17 1927   6.497   3.137   0.231  0.8647  0.8823 -1.4994
    6MOL    H18 1928   6.423   3.210   0.105 -0.7156  0.5272 -0.0068
    6MOL    H19 1929   6.341   3.200   0.263  1.4976 -1.3759  0.6086
    6MOL    H20 1930   6.311   2.797   7.433  1.7024 -1.1382 -0.9365
    6MOL    C21 1931   6.234   3.044   7.359 -1.0301 -0.2148  0.0771
    6MOL    C22 1932   6.243   3.160   7.254 -0.1556  0.4525 -0.4336
    6MOL    C23 1933   6.358   3.124   7.157 -0.1154 -0.7572  0.5940
    6MOL    C24 1934   6.390   3.223   7.053  0.2441 -0.8679 -0.0426
    6MOL    C25 1935   6.447   3.351   7.117  0.5991 -0.6115  0.0810
    6MOL    C26 1936   6.479   3.472   7.030 -0.0145  0.6802  0.1543
    6MOL    O27 1937   6.125   3.165   7.168  0.2003  0.5092 -0.0041
    6MOL    H28 1938   6.240   2.948   7.308  1.3686 -0.6701  1.1439
    6MOL    H29 1939   6.133   3.060   7.397 -0.9185  0.2242  0.1976
    6MOL    H30 1940   6.262   3.256   7.301 -1.0663  0.7732 -0.6999
    6MOL    H31 1941   6.332   3.034   7.100 -0.1306  1.8820 -3.8286
    6MOL    H32 1942   6.443   3.097   7.219 -0.0182 -1.2150  0.2655
    6MOL    H33 1943   6.294   3.248   7.008  0.3946 -1.1854 -0.5412
    6MOL    H34 1944   6.456   3.188   6.973 -1.0198  1.6881 -2.2977
    6MOL    H35 1945   6.401   3.390   7.207  0.3916 -0.5760 -0.0402
    6MOL    H36 1946   6.548   3.321   7.147 -0.2408 -1.0014  2.6295
    6MOL    H37 1947   6.386   3.503   6.983 -0.5803  0.2246  0.9566
    6MOL    H38 1948   6.544   3.434   6.951 -1.3644  0.7651 -1.0341
    6MOL    H39 1949   6.522   3.562   7.072  2.7826 -0.0532 -1.0579
    6MOL    C40 1950   6.044   3.270   7.211 -0.2527  0.4716  0.2349
    6MOL    C41 1951   5.920   3.291   7.122  0.6912  1.2875 -0.2794
    6MOL    C42 1952   5.933   3.386   7.012 -0.0340 -0.4637  0.2318
    6MOL    C43 1953   5.830   3.374   6.901  0.9541  0.2891  0.7833
    6MOL    C44 1954   5.865   3.465   6.782  0.0282 -0.5586 -0.8991
    6MOL    C45 1955   5.743   3.471   6.687 -0.5602 -0.2204 -0.2643
    6MOL    O46 1956   5.815   3.347   7.204  0.1066  0.4275 -0.2460
    6MOL    H47 1957   6.103   3.362   7.213  1.2830 -0.4542 -1.1251
    6MOL    H48 1958   6.016   3.252   7.314 -0.5255  3.4878  0.7350
    6MOL    H49 1959   5.898   3.193   7.080  0.0553  1.2109  0.2340
    6MOL    H50 1960   5.928   3.489   7.048  0.3187  0.0302 -1.0877
    6MOL    H51 1961   6.031   3.384   6.965 -0.0670 -0.4976  0.1662
    6MOL    H52 1962   5.730   3.403   6.935  0.5957 -2.0073  1.7593
    6MOL    H53 1963   5.836   3.269   6.871 -1.8772 -0.2757  2.0675
    6MOL    H54 1964   5.875   3.569   6.814  0.0815 -0.7604 -0.2573
    6MOL    H55 1965   5.955   3.423   6.737 -0.5325 -2.9106  0.0853
    6MOL    H56 1966   5.762   3.560   6.627  2.0365 -1.3743 -1.2297
    6MOL    H57 1967   5.736   3.385   6.621  1.7144 -1.1599  0.6808
    6MOL    H58 1968   5.642   3.482   6.728 -0.5354 -2.2929  0.3838
    6MOL    C59 1969   5.749   3.242   7.275  0.1779 -0.0426 -0.6863
    6MOL    C60 1970   5.710   3.295   7.423 -0.5026 -0.6458 -0.0216
    6MOL    C61 1971   5.582   3.218   7.455  0.0842  0.0344 -0.4815
    6MOL    C62 1972   5.485   3.292   7.553 -0.7416 -0.3259  1.0299
    6MOL    C63 1973   5.370   3.208   7.603  0.0098  0.4822  0.1751
    6MOL    C64 1974   5.407   3.079   7.677  0.5629 -0.0132 -0.4245
    6MOL    O65 1975   5.824   3.278   7.503 -0.5079 -0.0513  0.7439
    6MOL    H66 1976   5.812   3.153   7.273  0.9022  0.4818 -1.5316
    6MOL    H67 1977   5.663   3.227   7.210 -0.8121  2.2053  0.0483
    6MOL    H68 1978   5.694   3.402   7.408  1.7153  0.1085  2.6217
    6MOL    H69 1979   5.623   3.134   7.511 -0.8446  0.6104  1.1125
    6MOL    H70 1980   5.527   3.190   7.365  1.6511  0.2207 -1.5177
    6MOL    H71 1981   5.455   3.387   7.508  1.3332 -0.5681 -0.9214
    6MOL    H72 1982   5.536   3.328   7.642 -0.6971  0.0393  0.8609
    6MOL    H73 1983   5.307   3.180   7.519 -0.6321 -0.6167  1.0059
    6MOL    H74 1984   5.306   3.265   7.670  0.9590  1.0782  0.5840
    6MOL    H75 1985   5.460   3.005   7.617 -2.6172 -0.4211 -2.8692
    6MOL    H76 1986   5.464   3.112   7.764  1.6428 -0.7160 -0.8675
    6MOL    H77 1987   5.313   3.032   7.706  0.2906  1.8609  1.8724
    6MOL    C78 1988   5.822   3.350   7.626  0.0357 -0.0915 -0.0318
    6MOL    C79 1989   5.956   3.360   7.699  0.7194  0.1146 -0.9887
    6MOL    C80 1990   5.928   3.400   0.060 -0.6408  0.2449 -0.7444
    6MOL    C81 1991   6.052   3.397   0.141  0.2116 -0.0690  0.1113
    6MOL    C82 1992   6.038   3.428   0.294  0.3461  0.3328  0.0926
    6MOL    C83 1993   5.989   3.568   0.333 -0.4709  0.0249  0.0849
    6MOL    O84 1994   6.036   3.463   7.651 -0.2235  0.1965  0.1878
    6MOL    H85 1995   5.750   3.302   7.692  1.9227 -1.1262  1.3189
    6MOL    H86 1996   5.785   3.451   7.610  2.0022  0.5697 -0.5997
    6MOL    H87 1997   6.006   3.265   7.679  2.2416  0.8074 -0.5708
    6MOL    H88 1998   5.884   3.499   0.063  0.8625  0.9639 -1.6132
    6MOL    H89 1999   5.861   3.321   0.095  0.7138 -1.4307 -1.8208
    6MOL    H90 2000   6.122   3.471   0.102 -0.1814 -0.5029 -1.4525
    6MOL    H91 2001   6.106   3.304   0.124 -1.9835 -1.1159 -1.3396
    6MOL    H92 2002   5.989   3.351   0.354  0.6056  1.5009  1.8437
    6MOL    H93 2003   6.138   3.419   0.337 -0.5213  0.8615  2.3021
    6MOL    H94 2004   5.886   3.588   0.302 -0.0846 -1.0268 -1.9746
    6MOL    H95 2005   6.039   3.649   0.279  0.4555  1.1755  2.5982
    6MOL    H96 2006   5.987   3.582   0.441 -0.4488 -0.7220  0.1863
    6MOL    C97 2007   6.157   3.443   7.581  0.1769  0.7552  0.1323
    6MOL    C98 2008   6.202   3.562   7.493  0.0961  0.1369 -0.3749
    6MOL    C99 2009   6.356   3.554   7.458 -0.1754  0.0158  0.2619
    6MOL   C100 2010   6.408   3.680   7.381 -0.5187 -0.3675  0.1947
    6MOL   C101 2011   6.564   3.676   7.364  0.2728  0.4762  1.3212
    6MOL   C102 2012   6.616   3.799   7.292  0.4330 -0.0157 -0.2770
    6MOL   O103 2013   6.114   3.572   7.377  0.1053  0.1190 -0.0673
    6MOL   H104 2014   6.149   3.357   7.515  4.0793  0.0722  0.4503
    6MOL   H105 2015   6.236   3.433   7.656 -0.4214  0.3858  0.7304
    6MOL   H106 2016   6.199   3.654   7.552 -2.7157 -0.9317  1.2711
    6MOL   H107 2017   6.387   3.458   7.416 -0.3093 -1.6552  3.7800
    6MOL   H108 2018   6.411   3.561   7.552 -1.5210  1.4338  0.9800
    6MOL   H109 2019   6.372   3.765   7.438  0.2131  0.8677 -1.1418
    6MOL   H110 2020   6.370   3.675   7.278  0.9966  1.0746 -0.4511
    6MOL   H111 2021   6.608   3.593   7.309 -0.0669  1.5597 -0.6299
    6MOL   H112 2022   6.609   3.675   7.464  4.0017 -0.6098 -0.2891
    6MOL   H113 2023   6.720   3.785   7.265  0.1856 -2.5118 -0.0659
    6MOL   H114 2024   6.564   3.804   7.196 -0.8899 -2.0392  0.3037
    6MOL   H115 2025   6.597   3.890   7.350 -0.8390  1.0811 -2.3560
    6MOL   C116 2026   5.982   3.630   7.398  0.4347 -0.5121  0.2499
    6MOL   C117 2027   5.982   3.782   7.362 -0.2046  0.3440 -0.1090
    6MOL   C118 2028   5.850   3.846   7.412  1.1975 -0.2955 -0.0412
    6MOL   C119 2029   5.821   3.983   7.352 -0.0224 -0.2671 -0.4480
    6MOL   C120 2030   5.714   4.069   7.405  0.3376  0.4656 -0.0463
    6MOL   C121 2031   5.754   4.162   7.525  0.3487  0.0071 -0.0755
    6MOL   O122 2032   5.991   3.801   7.221 -0.0814  0.0202 -0.4513
    6MOL   H123 2033   5.919   3.588   7.319 -0.9348  0.0422  1.0225
    6MOL   H124 2034   5.930   3.616   7.492  0.1070 -0.3124  0.1016
    6MOL   H125 2035   6.060   3.822   7.427 -0.9658 -1.0213  1.7136
    6MOL   H126 2036   5.764   3.791   7.373  1.8060 -2.0125  0.9702
    6MOL   H127 2037   5.842   3.846   7.521  2.7016 -0.3987  0.0795
    6MOL   H128 2038   5.799   3.960   7.248  0.4711  0.9617 -0.8335
    6MOL   H129 2039   5.910   4.046   7.344 -0.8327  1.6035  3.8966
    6MOL   H130 2040   5.681   4.135   7.325  2.4216  0.7834 -0.6589
    6MOL   H131 2041   5.625   4.006   7.415  1.0184 -0.7345 -1.4957
    6MOL   H132 2042   5.812   4.121   7.608 -1.1526 -0.3944  0.7827
    6MOL   H133 2043   5.813   4.249   7.496  1.7575 -0.2871  1.8401
    6MOL   H134 2044   5.664   4.210   7.563 -0.7051 -1.1571 -1.0302
    6MOL   C135 2045   6.117   3.811   7.174 -0.2844 -0.3295 -0.7836
    6MOL   C136 2046   6.114   3.876   7.033  0.5808  0.3270 -0.0280
    6MOL   C137 2047   6.207   3.804   6.930  0.1780 -0.3203  0.1736
    6MOL   C138 2048   6.201   3.873   6.791  0.7311  0.2500 -0.0428
    6MOL   C139 2049   6.297   3.799   6.691 -0.7888 -0.4060 -0.4168
    6MOL   C140 2050   6.344   3.885   6.578 -0.9555 -0.2108  0.7195
    6MOL   O141 2051   6.144   4.018   7.033 -0.1560  0.1677  0.3245
    6MOL   H142 2052   6.183   3.874   7.233 -0.1326 -0.9899 -0.2397
    6MOL   H143 2053   6.157   3.709   7.172 -0.1696 -0.2878 -0.5770
    6MOL   H144 2054   6.014   3.865   6.991 -0.1964  0.5302  1.7176
    6MOL   H145 2055   6.308   3.798   6.970 -0.1530  0.7980  1.2193
    6MOL   H146 2056   6.175   3.701   6.917 -1.3019  0.3257 -1.5253
    6MOL   H147 2057   6.243   3.974   6.797 -1.0345  0.9307  1.1112
    6MOL   H148 2058   6.102   3.882   6.748  0.8314  0.5600 -0.2139
    6MOL   H149 2059   6.245   3.712   6.650  1.4860 -1.8675 -0.2856
    6MOL   H150 2060   6.380   3.750   6.742 -1.0385  0.1030  0.4851
    6MOL   H151 2061   6.248   3.907   6.530 -0.7075  0.3771  0.4965
    6MOL   H152 2062   6.391   3.977   6.613  0.7725 -1.2896  1.2826
    6MOL   H153 2063   6.408   3.828   6.511  0.5201 -0.2455  2.1154
    6MOL   C154 2064   6.042   4.109   7.078 -0.2167  0.8365 -0.4198
    6MOL   C155 2065   6.100   4.253   7.080 -0.3645  0.9704 -0.5536
    6MOL   C156 2066   5.991   4.350   7.090 -0.1499  0.4581 -0.4763
    6MOL   C157 2067   6.034   4.497   7.056 -0.0635  0.0178 -0.5077
    6MOL   C158 2068   5.920   4.600   7.061 -0.8709  0.4934 -0.0957
    6MOL   C159 2069   5.975   4.734   7.018 -0.2170 -0.0505  0.0175
    6MOL   O160 2070   6.187   4.277   7.190  0.1857 -0.3115 -0.1232
    6MOL   H161 2071   6.023   4.080   7.181  2.4026  0.9252  0.1225
    6MOL   H162 2072   5.955   4.100   7.012  0.4567 -0.8103 -1.1201
    6MOL   H163 2073   6.148   4.266   6.983 -0.8289 -1.4256 -1.1392
    6MOL   H164 2074   5.947   4.356   7.189 -0.5392 -0.8887 -0.5598
    6MOL   H165 2075   5.913   4.319   7.020 -0.0779  1.8120 -1.1846
    6MOL   H166 2076   6.088   4.505   6.962  1.1944  1.6900  0.3391
    6MOL   H167 2077   6.112   4.513   7.130  0.7908  2.5860 -1.9278
    6MOL   H168 2078   5.834   4.576   6.999 -0.8731 -1.3217  0.5928
    6MOL   H169 2079   5.879   4.615   7.161  1.0597 -0.2850  0.8322
    6MOL   H170 2080   6.014   4.738   6.916  1.2531  1.3543  0.6142
    6MOL   H171 2081   6.031   4.786   7.095 -0.0377  2.1164 -1.5449
    6MOL   H172 2082   5.895   4.808   7.021 -1.0950 -0.9376 -0.9840
    6MOL   C173 2083   6.323   4.262   7.156 -0.1474  0.3210  0.4496
    6MOL   C174 2084   6.407   4.272   7.287  0.2467  0.3722  0.4016
    6MOL   C175 2085   6.355   4.161   7.390  0.4770 -0.1847  0.9246
    6MOL   C176 2086   6.405   4.202   7.533 -0.0309 -0.3939  0.1415
    6MOL   C177 2087   6.313   4.310   7.598 -0.6998  0.4226 -0.1753
    6MOL   C178 2088   6.361   4.342   7.737  0.0999 -0.3753  0.8164
    6MOL   O179 2089   6.546   4.244   7.266 -0.2947 -0.2810 -0.2879
    6MOL   H180 2090   6.346   4.353   7.100 -1.3691  0.0044 -0.5718
    6MOL   H181 2091   6.353   4.177   7.096 -2.5233 -2.0260  2.4589
    6MOL   H182 2092   6.384   4.372   7.324 -0.4938  0.1417  0.5699
    6MOL   H183 2093   6.247   4.160   7.404  0.4755  0.6538  1.0440
    6MOL   H184 2094   6.387   4.061   7.362  0.0380 -0.1280  0.1853
    6MOL   H185 2095   6.405   4.116   7.600  0.5530  0.0199  0.6737
    6MOL   H186 2096   6.506   4.242   7.531  0.2732 -1.1861 -1.2532
    6MOL   H187 2097   6.300   4.388   7.524 -2.3761 -1.7847 -2.2932
    6MOL   H188 2098   6.209   4.277   7.596 -0.3140 -0.8319 -3.4490
    6MOL   H189 2099   6.469   4.351   7.741  0.0196  0.6452  0.9740
    6MOL   H190 2100   6.325   4.279   0.033  0.5077  0.4179  1.6216
    6MOL   H191 2101   6.337   4.443   7.771 -0.3759 -0.3429  0.3867
    6MOL   C192 2102   6.621   4.353   7.219 -0.0941  0.3122  0.7755
    6MOL   C193 2103   6.776   4.338   7.248  0.2991 -0.1304  0.3454
    6MOL   C194 2104   6.845   4.472   7.248  0.3451 -0.0822  1.1211
    6MOL   C195 2105   6.827   4.550   7.110 -0.4578 -0.0562 -0.1952
    6MOL   C196 2106   6.946   4.636   7.062 -0.3746 -0.2070 -0.1716
    6MOL   C197 2107   6.977   4.760   7.149 -0.0602 -0.4055  0.3223
    6MOL   O198 2108   6.843   4.254   7.147  0.3949  0.3653 -0.6906
    6MOL   H199 2109   6.615   4.345   7.110  3.5320  1.7082  0.4084
    6MOL   H200 2110   6.592   4.457   7.235 -0.8045  0.6713 -2.5261
    6MOL   H201 2111   6.798   4.301   7.348  0.3078 -0.3378  0.2674
    6MOL   H202 2112   6.791   4.536   7.316 -1.1557 -1.4390  1.2263
    6MOL   H203 2113   6.950   4.459   7.275  0.5855 -0.0321  0.2451
    6MOL   H204 2114   6.743   4.619   7.118  0.1530  0.6992 -0.3045
    6MOL   H205 2115   6.802   4.484   7.027  2.2534 -1.2051 -0.1553
    6MOL   H206 2116   7.039   4.580   7.055 -0.5839 -0.4983 -0.6182
    6MOL   H207 2117   6.928   4.685   6.966 -0.4376 -3.4261 -1.8716
    6MOL   H208 2118   6.883   4.812   7.169 -0.9060 -1.3679 -1.0728
    6MOL   H209 2119   7.016   4.725   7.244  2.7705 -1.7677 -1.3031
    6MOL   H210 2120   7.051   4.821   7.098 -1.6313 -0.1921 -1.7746
    6MOL   C211 2121   6.833   4.112   7.188  0.8360 -0.1013  0.3319
    6MOL   C212 2122   6.896   4.034   7.074 -0.3126  0.2179  0.7721
    6MOL   C213 2123   7.039   4.092   7.030  0.2669 -0.1194  0.0292
    6MOL   C214 2124   7.108   4.013   6.920 -0.4702  0.1986 -0.0903
    6MOL   C215 2125   7.265   4.036   6.946  0.4230 -0.2623 -0.6591
    6MOL   C216 2126   7.337   3.921   6.872  0.7111 -0.1173 -0.5105
    6MOL   O217 2127   6.809   4.019   6.964  0.4548 -0.3372  0.1618
    6MOL   H218 2128   6.729   4.082   7.199  0.2099  1.1438 -1.8501
    6MOL   H219 2129   6.902   4.090   7.270  1.0669  1.8436  0.6847
    6MOL   H220 2130   6.922   3.935   7.113  1.1201  0.4117  0.3223
    6MOL   H221 2131   7.038   4.194   6.991  0.6434  0.1545  0.7305
    6MOL   H222 2132   7.099   4.097   7.121 -0.3014  1.6404  0.3207
    6MOL   H223 2133   7.081   3.908   6.930  1.5604 -0.3946 -0.5760
    6MOL   H224 2134   7.083   4.051   6.820  2.3444 -0.5800 -1.1437
    6MOL   H225 2135   7.303   4.129   6.904 -3.6635  1.2136 -1.2681
    6MOL   H226 2136   7.289   4.026   7.052 -1.6313  0.2137 -0.1223
    6MOL   H227 2137   7.440   3.929   6.906  0.9372 -2.8389 -0.4638
    6MOL   H228 2138   7.339   3.931   6.764 -0.0315  0.3968 -0.4762
    6MOL   H229 2139   7.308   3.823   6.911 -1.2103 -0.2199 -2.1414
    6MOL   C230 2140   6.756   4.130   6.903 -0.0012  0.4018  0.0936
    6MOL   C231 2141   6.682   4.101   6.770 -0.2709  0.9937 -0.2010
    6MOL   C232 2142   6.779   4.085   6.642 -0.6584  0.0475 -0.7107
    6MOL   C233 2143   6.716   4.046   6.507 -0.0633  0.0491  0.5397
    6MOL   C234 2144   6.803   4.085   6.391 -0.5376 -0.3047 -0.1666
    6MOL   C235 2145   6.718   4.084   6.268 -0.1967  0.6915 -0.1655
    6MOL   O236 2146   6.607   4.215   6.738  0.1146  0.1546  0.2936
    6MOL   H237 2147   6.680   4.171   6.971 -1.8543 -1.7468 -0.6330
    6MOL   H238 2148   6.835   4.203   6.885  0.7383 -0.1851  0.9187
    6MOL   H239 2149   6.637   4.004   6.789 -0.1938  0.9747 -0.1102
    6MOL   H240 2150   6.858   4.019   6.677  0.6099  1.2107 -1.3718
    6MOL   H241 2151   6.825   4.183   6.633  1.5773 -0.6328  2.3929
    6MOL   H242 2152   6.616   4.088   6.498 -0.3422 -0.2374  2.0512
    6MOL   H243 2153   6.689   3.941   6.496 -1.5569  0.4970 -0.1989
    6MOL   H244 2154   6.825   4.191   6.400 -2.3801  0.1006 -0.1960
    6MOL   H245 2155   6.897   4.030   6.387  0.3587  1.1498  0.4056
    6MOL   H246 2156   6.644   4.164   6.264 -2.2644 -1.1624 -0.1708
    6MOL   H247 2157   6.672   3.986   6.255 -0.3083  0.6348  0.6630
    6MOL   H248 2158   6.781   4.103   6.181 -0.1702  0.4668 -0.1938
    6MOL   C249 2159   6.476   4.214   6.798  0.1178 -0.5125  0.0853
    6MOL   C250 2160   6.392   4.336   6.773 -0.3742 -0.4143  0.0490
    6MOL   C251 2161   6.355   4.367   6.616 -0.3056  0.4050 -0.0176
    6MOL   C252 2162   6.232   4.459   6.599 -0.1564 -0.1905 -0.4130
    6MOL   C253 2163   6.157   4.443   6.468 -0.0085 -0.0599 -0.7701
    6MOL   C254 2164   6.261   4.457   6.358  0.7923  0.3935 -0.6101
    6MOL   O255 2165   6.440   4.449   6.845  0.0167  0.1526 -0.1692
    6MOL   H256 2166   6.418   4.124   6.779  0.9886 -0.5713 -2.4970
    6MOL   H257 2167   6.491   4.210   6.906  1.2239 -2.8531 -0.1320
    6MOL   H258 2168   6.304   4.307   6.830  0.8002 -0.5238  1.8168
    6MOL   H259 2169   6.437   4.404   6.554 -2.1361  1.0502 -2.1391
    6MOL   H260 2170   6.332   4.273   6.566 -0.2581  0.6030 -0.4163
    6MOL   H261 2171   6.165   4.438   6.683  0.1494 -0.1592 -0.1604
    6MOL   H262 2172   6.269   4.560   6.612 -1.9428  0.5939 -1.3259
    6MOL   H263 2173   6.117   4.342   6.457  1.8209 -0.8235 -0.6423
    6MOL   H264 2174   6.081   4.519   6.451 -0.5560 -0.3754  0.2791
    6MOL   H265 2175   6.304   4.557   6.363  1.2725  0.1568 -0.0870
    6MOL   H266 2176   6.224   4.451   6.256  0.8172  0.5534 -0.6290
    6MOL   H267 2177   6.344   4.387   6.354 -0.1616 -0.8748  1.2591
    6MOL   C268 2178   6.570   4.499   6.819 -0.0023  0.0052  0.0435
    6MOL   C269 2179   6.561   4.649   6.848  0.4722 -0.4226 -0.6975
    6MOL   C270 2180   6.687   4.722   6.789  0.3152 -0.4426 -1.0072
    6MOL   C271 2181   6.715   4.859   6.856 -0.6162 -0.3856 -0.6689
    6MOL   C272 2182   6.808   4.939   6.762 -0.0040 -0.2830 -0.8402
    6MOL   C273 2183   6.818   5.083   6.804 -0.0105 -0.5138  0.0255
    6MOL   O274 2184   6.557   4.677   6.986 -0.0192 -0.2147 -0.1391
    6MOL   H275 2185   6.603   4.489   6.716  0.3710 -1.9206  0.3356
    6MOL   H276 2186   6.649   4.456   6.882 -2.2942 -0.6595  2.5310
    6MOL   H277 2187   6.475   4.694   6.797  1.9526  2.4022 -0.7854
    6MOL   H278 2188   6.770   4.652   6.797 -0.4276 -1.1665  0.7497
    6MOL   H279 2189   6.682   4.730   6.681 -0.9132 -2.7997 -1.1678
    6MOL   H280 2190   6.624   4.919   6.860  0.6101  1.4538  0.5607
    6MOL   H281 2191   6.759   4.862   6.956 -3.1956  1.2216  0.4566
    6MOL   H282 2192   6.903   4.894   6.734 -0.5926 -1.3038 -1.2228
    6MOL   H283 2193   6.767   4.934   6.660  0.0231 -0.7617 -0.8259
    6MOL   H284 2194   6.722   5.127   6.830 -0.3441 -0.5649 -1.0899
    6MOL   H285 2195   6.887   5.104   6.885  0.0957  1.0626 -0.4559
    6MOL   H286 2196   6.867   5.148   6.732 -1.0082 -0.4019 -0.5676
    6MOL   C287 2197   6.430   4.694   7.042  0.0834 -0.0254 -0.1457
    6MOL   C288 2198   6.448   4.736   7.182 -0.2404 -0.1744 -0.4350
    6MOL   C289 2199   6.329   4.728   7.277 -0.0320 -0.3795  0.1825
    6MOL   C290 2200   6.355   4.742   7.422  0.2013 -0.8980  0.0222
    6MOL   C291 2201   6.232   4.701   7.500 -0.5310  0.9917  0.5980
    6MOL   C292 2202   6.230   4.733   7.646 -0.0537  0.2332 -0.7124
    6MOL   O293 2203   6.473   4.879   7.180  0.0111  0.8795 -0.5966
    6MOL   H294 2204   6.380   4.597   7.037  0.6790 -0.3071 -0.7791
    6MOL   H295 2205   6.371   4.762   6.980 -1.4268 -0.7606  0.4685
    6MOL   H296 2206   6.536   4.684   7.222  0.3857  0.2576 -1.2294
    6MOL   H297 2207   6.257   4.805   7.248 -0.2053  0.2327  2.1737
    6MOL   H298 2208   6.287   4.629   7.259 -0.7447  0.0009 -0.2827
    6MOL   H299 2209   6.439   4.682   7.456  1.6654  0.4591 -1.1294
    6MOL   H300 2210   6.389   4.843   7.444  0.7576 -1.1212  0.1955
    6MOL   H301 2211   6.219   4.594   7.484 -0.3632  1.0205  0.2685
    6MOL   H302 2212   6.150   4.756   7.454  0.3229  0.6876 -1.3436
    6MOL   H303 2213   6.213   4.839   7.668 -2.1300 -0.0768 -0.7767
    6MOL   H304 2214   6.157   4.679   7.707  1.7159  1.0275  2.2199
    6MOL   H305 2215   6.322   4.706   7.697  0.6535  0.1961 -1.9955
    6MOL   C306 2216   6.604   4.914   7.227  0.4967  0.3308  0.1776
    6MOL   C307 2217   6.646   5.056   7.186  0.2098 -0.3834  0.1634
    6MOL   C308 2218   6.785   5.104   7.212  0.5284 -0.0749 -0.5839
    6MOL   C309 2219   6.815   5.242   7.163 -0.5242 -0.6534 -0.1275
    6MOL   C310 2220   6.964   5.288   7.203  0.5610  0.3543 -0.1715
    6MOL   C311 2221   7.074   5.213   7.132 -0.5115 -0.3394 -0.1194
    6MOL   O312 2222   6.562   5.144   7.262 -0.6976 -0.1116  0.0506
    6MOL   H313 2223   6.619   4.886   7.331 -3.5143 -0.3077  0.6552
    6MOL   H314 2224   6.675   4.853   7.171 -1.3950 -0.8106 -1.0435
    6MOL   H315 2225   6.643   5.062   7.077  0.2025 -2.3608  0.0371
    6MOL   H316 2226   6.849   5.036   7.157  0.5463 -0.6058  0.0775
    6MOL   H317 2227   6.816   5.096   7.316 -0.9398 -2.2091 -0.2548
    6MOL   H318 2228   6.775   5.273   7.066  1.4924  0.0879 -0.7594
    6MOL   H319 2229   6.758   5.316   7.218 -1.0393 -0.8479 -0.3937
    6MOL   H320 2230   6.977   5.276   7.311  0.4515 -0.0049 -0.1969
    6MOL   H321 2231   6.972   5.396   7.196 -3.8276  0.8739  1.1478
    6MOL   H322 2232   7.161   5.267   7.168 -1.6128  2.5850 -1.7039
    6MOL   H323 2233   7.077   5.109   7.164  0.4431 -0.6523 -1.1947
    6MOL   H324 2234   7.057   5.219   7.024 -1.4811  0.3007  0.0653
    6MOL   C325 2235   6.439   5.188   7.206 -0.4395 -0.5486 -0.8285
    6MOL   C326 2236   6.460   5.307   7.106  0.6567 -0.2980  0.1293
    6MOL   C327 2237   6.452   5.433   7.183  0.1019 -0.1740 -0.0593
    6MOL   C328 2238   6.533   5.547   7.096  0.0542 -0.1798 -0.5089
    6MOL   C329 2239   6.566   5.674   7.176 -0.0212  0.4252 -0.4058
    6MOL   C330 2240   6.674   5.648   7.290 -0.2021  0.3952  0.2663
    6MOL   O331 2241   6.348   5.302   7.010  0.0732 -0.3438 -0.2810
    6MOL   H332 2242   6.376   5.215   7.291 -1.1979 -1.1378 -1.1918
    6MOL   H333 2243   6.385   5.102   7.166  0.9292 -1.6047 -0.4328
    6MOL   H334 2244   6.558   5.285   7.063 -0.9048 -4.0146 -1.6921
    6MOL   H335 2245   6.350   5.468   7.197 -0.2316 -0.2804 -2.0979
    6MOL   H336 2246   6.504   5.409   7.276  0.4391 -3.0519 -0.9227
    6MOL   H337 2247   6.630   5.502   7.073  0.1567  0.2109 -0.8479
    6MOL   H338 2248   6.488   5.575   7.001 -1.7800  1.2857  0.7729
    6MOL   H339 2249   6.614   5.742   7.105  1.4632  0.5808  0.7040
    6MOL   H340 2250   6.475   5.717   7.217  0.0440 -0.1259  0.3337
    6MOL   H341 2251   6.712   5.730   7.351  0.4360 -1.3691  2.3095
    6MOL   H342 2252   6.633   5.578   7.363 -2.2492  2.3566  1.0422
    6MOL   H343 2253   6.768   5.605   7.257  0.9924  1.9000  1.6173
    6MOL   C344 2254   6.386   5.223   6.894  0.2812 -0.3787  0.2700
    6MOL   C345 2255   6.263   5.191   6.810  0.2866  0.1587 -1.0249
    6MOL   C346 2256   6.188   5.331   6.776 -0.0672  0.0054  0.3319
    6MOL   C347 2257   6.075   5.310   6.675  0.1994 -0.7151  0.2028
    6MOL   C348 2258   6.008   5.444   6.642  0.6671  0.1513  0.2953
    6MOL   C349 2259   5.917   5.503   6.747  0.4245 -0.3431 -0.1406
    6MOL   O350 2260   6.315   5.134   6.685  0.3682 -0.2954  0.7055
    6MOL   H351 2261   6.431   5.127   6.920  1.7971  0.2061 -0.1609
    6MOL   H352 2262   6.455   5.278   6.831 -0.2025 -0.1711 -0.0789
    6MOL   H353 2263   6.195   5.117   6.851 -0.8563  1.2611 -0.8997
    6MOL   H354 2264   6.262   5.406   6.751 -0.3916  0.5278  0.9356
    6MOL   H355 2265   6.139   5.371   6.865 -2.6403  2.5033 -2.1170
    6MOL   H356 2266   6.004   5.245   6.726 -1.1157  0.4666 -0.0788
    6MOL   H357 2267   6.119   5.268   6.584 -1.7530  0.5334 -1.3573
    6MOL   H358 2268   5.948   5.431   6.552  0.6605 -0.2440  0.3563
    6MOL   H359 2269   6.077   5.519   6.604 -0.0897  0.8485  0.2895
    6MOL   H360 2270   5.980   5.533   6.830 -0.8803  1.0186  0.3872
    6MOL   H361 2271   5.842   5.429   6.777  1.0887 -0.9693 -0.0011
    6MOL   H362 2272   5.872   5.598   6.718  1.7797 -0.5251 -3.0295
    6MOL   C363 2273   6.346   4.997   6.685 -0.2540  0.2901 -0.2376
    6MOL   C364 2274   6.266   4.913   6.586 -0.3583  0.1626  0.3983
    6MOL   C365 2275   6.125   4.918   6.617 -0.4014 -0.2780  0.4596
    6MOL   C366 2276   6.050   4.818   6.533 -0.2912 -0.1262  0.0564
    6MOL   C367 2277   5.898   4.838   6.532  0.4660  0.5238  1.0799
    6MOL   C368 2278   5.811   4.718   6.535  0.2725  0.4425  0.5480
    6MOL   O369 2279   6.293   4.966   6.455 -0.3691 -0.3815 -0.4337
    6MOL   H370 2280   6.340   4.965   6.790  0.3521 -0.7296 -0.5105
    6MOL   H371 2281   6.451   4.987   6.659  0.2477  0.7753  1.4935
    6MOL   H372 2282   6.310   4.815   6.574  0.1767  0.3466  0.8358
    6MOL   H373 2283   6.104   4.900   6.723  0.1925  1.0234  0.7948
    6MOL   H374 2284   6.094   5.019   6.591  0.8062  0.6388  2.5022
    6MOL   H375 2285   6.082   4.817   6.429  0.9561 -0.7540  0.4365
    6MOL   H376 2286   6.064   4.721   6.581  2.3070 -0.6288 -1.5968
    6MOL   H377 2287   5.865   4.903   6.614 -1.0473 -0.9448  1.6565
    6MOL   H378 2288   5.877   4.890   6.439 -0.7865 -2.1453 -0.1715
    6MOL   H379 2289   5.863   4.642   6.477  0.1744 -1.0521  2.3605
    6MOL   H380 2290   5.799   4.671   6.633  1.4478  0.5212  0.7348
    6MOL   H381 2291   5.715   4.747   6.494  2.3618  2.6998 -3.0166
    6MOL   H382 2292   6.269   5.056   6.469 -0.9131 -0.4794 -0.7090
    7MOL     C1 2293   5.161   6.226   0.337 -0.1065 -0.8120  0.5079
    7MOL     C2 2294   5.287   6.268   0.261 -0.0707  0.1643 -0.2658
    7MOL     C3 2295   5.270   6.313   0.113 -0.4033 -0.1047  0.3695
    7MOL     C4 2296   5.239   6.190   0.029  0.1787  0.6540 -0.0100
    7MOL     C5 2297   5.273   6.198   7.669  0.2914  0.0918  0.1365
    7MOL     C6 2298   5.195   6.307   7.597 -0.0994 -0.6809  0.2237
    7MOL     O7 2299   5.346   6.373   0.342  0.4329  0.1792  0.0789
    7MOL     H8 2300   5.098   6.313   0.359 -0.6675 -0.5251 -2.0447
    7MOL     H9 2301   5.193   6.189   0.434  0.8683 -0.7927  0.1938
    7MOL    H10 2302   5.358   6.186   0.269 -0.5620 -0.2221  0.2136
    7MOL    H11 2303   5.194   6.389   0.097 -0.0682  0.3846  1.0772
    7MOL    H12 2304   5.364   6.359   0.084 -1.0110  0.7502 -0.2508
    7MOL    H13 2305   5.303   6.113   0.072 -1.4004 -0.2634  0.7531
    7MOL    H14 2306   5.135   6.164   0.047 -0.1671  1.4476 -0.8521
    7MOL    H15 2307   5.380   6.217   7.653  0.2368 -0.0025 -0.3544
    7MOL    H16 2308   5.252   6.105   7.617 -0.5911  0.2724  0.1700
    7MOL    H17 2309   5.225   6.326   7.494 -2.2202  3.3494  0.2183
    7MOL    H18 2310   5.088   6.283   7.597 -0.5876  1.3748 -0.3208
    7MOL    H19 2311   5.198   6.405   7.644 -0.7835  0.6974 -2.4928
    7MOL    H20 2312   5.092   6.170   0.273 -0.4999  1.0849 -0.7778
    7MOL    C21 2313   5.383   6.347   0.481 -0.1620  0.5570 -0.5425
    7MOL    C22 2314   5.474   6.462   0.522  0.8402  0.1163  0.3732
    7MOL    C23 2315   5.425   6.558   0.635  0.2204 -0.4451  0.6112
    7MOL    C24 2316   5.530   6.675   0.649 -0.3067  0.8894 -0.4579
    7MOL    C25 2317   5.499   6.798   0.745 -0.0070 -0.3791 -0.1682
    7MOL    C26 2318   5.431   6.754   0.871 -0.5133  0.1940  0.0165
    7MOL    O27 2319   5.603   6.414   0.561 -0.1952 -0.0961 -0.0390
    7MOL    H28 2320   5.298   6.368   0.546  1.1399  0.9937  1.0356
    7MOL    H29 2321   5.413   6.243   0.492 -2.4409 -0.2035 -1.1897
    7MOL    H30 2322   5.481   6.516   0.428  0.4499 -0.5081 -0.0198
    7MOL    H31 2323   5.429   6.510   0.733  2.4286  0.5253  1.0142
    7MOL    H32 2324   5.332   6.611   0.614 -0.9556 -2.0840  1.6250
    7MOL    H33 2325   5.555   6.722   0.554 -0.2948  2.1302  0.1557
    7MOL    H34 2326   5.630   6.641   0.677 -0.6104 -0.0719 -0.5068
    7MOL    H35 2327   5.592   6.854   0.759  0.8403 -1.7750 -0.1026
    7MOL    H36 2328   5.435   6.864   0.686 -0.0731 -1.2589 -1.0826
    7MOL    H37 2329   5.325   6.751   0.847 -0.7591  0.9480  0.9716
    7MOL    H38 2330   5.433   6.826   0.952 -0.8596  0.7686 -0.4787
    7MOL    H39 2331   5.450   6.651   0.899 -1.6820 -0.4379 -1.4127
    7MOL    C40 2332   5.699   6.393   0.464  0.7020  0.1044 -0.0456
    7MOL    C41 2333   5.844   6.370   0.523  1.5423  0.1267  0.4316
    7MOL    C42 2334   5.959   6.398   0.428  0.0841 -0.8597  0.1026
    7MOL    C43 2335   6.098   6.362   0.486  0.6846  0.0624 -1.0321
    7MOL    C44 2336   6.215   6.405   0.399 -0.3062  0.6176  0.3978
    7MOL    C45 2337   6.343   6.404   0.481 -0.2379 -0.2148  0.4731
    7MOL    O46 2338   5.851   6.237   0.575  0.2887  0.6314  0.8515
    7MOL    H47 2339   5.691   6.483   0.402  4.2518  0.9443  0.6279
    7MOL    H48 2340   5.667   6.314   0.396 -0.8836  0.8916 -0.2263
    7MOL    H49 2341   5.858   6.451   0.594 -2.8927  0.3302  1.2208
    7MOL    H50 2342   5.942   6.334   0.341  0.1919 -1.1029  0.2614
    7MOL    H51 2343   5.941   6.501   0.396 -0.6306 -0.5730  1.4198
    7MOL    H52 2344   6.102   6.260   0.522 -3.3960  0.6035  1.1501
    7MOL    H53 2345   6.106   6.420   0.578  1.4686  0.3843 -1.2886
    7MOL    H54 2346   6.212   6.346   0.308 -0.2426  1.5533 -0.2127
    7MOL    H55 2347   6.197   6.511   0.377  0.4422  0.7611  0.4758
    7MOL    H56 2348   6.369   6.307   0.522  0.5716 -0.1287  0.1764
    7MOL    H57 2349   6.433   6.439   0.430 -0.5715  2.4130  1.5790
    7MOL    H58 2350   6.322   6.468   0.567 -4.0159 -1.2244  0.4069
    7MOL    C59 2351   5.842   6.236   0.709 -0.5791  0.3732  0.2735
    7MOL    C60 2352   5.879   6.095   0.757 -0.3995  0.3278  0.4012
    7MOL    C61 2353   5.908   6.077   0.906  0.5635 -0.1172  0.4128
    7MOL    C62 2354   5.940   5.936   0.953 -0.4140  0.6487 -0.0065
    7MOL    C63 2355   5.945   5.929   1.105  0.3556 -0.4574 -0.6490
    7MOL    C64 2356   6.003   5.788   1.158 -0.2238  0.1253  0.0863
    7MOL    O65 2357   5.774   6.001   0.735  0.6027 -0.1460  0.0214
    7MOL    H66 2358   5.738   6.255   0.735 -0.3043 -0.5361  2.1372
    7MOL    H67 2359   5.915   6.303   0.754  0.7079  0.2630 -1.5830
    7MOL    H68 2360   5.964   6.054   0.704 -1.1212 -2.4959  1.3420
    7MOL    H69 2361   5.811   6.106   0.949  0.9842  3.1883 -0.7095
    7MOL    H70 2362   5.987   6.139   0.949  0.6389  0.4233 -0.5027
    7MOL    H71 2363   6.044   5.926   0.922 -0.0591  1.0354  1.0318
    7MOL    H72 2364   5.881   5.855   0.910 -0.7046  2.0803 -2.3590
    7MOL    H73 2365   5.845   5.944   1.145  0.2011 -1.1252 -0.7739
    7MOL    H74 2366   6.013   6.010   1.128  2.1444 -1.9081 -0.6944
    7MOL    H75 2367   5.940   5.711   1.113  1.5608 -0.0464 -2.2394
    7MOL    H76 2368   6.100   5.761   1.115 -0.2401 -2.0332  1.3107
    7MOL    H77 2369   6.000   5.786   1.267 -1.7976  0.2140  0.0527
    7MOL    C78 2370   5.748   5.973   0.600 -0.3644  0.4778  0.0009
    7MOL    C79 2371   5.670   5.836   0.592  0.4450  0.0331  0.2278
    7MOL    C80 2372   5.762   5.718   0.543 -0.4343  0.2824  1.2928
    7MOL    C81 2373   5.787   5.695   0.394 -0.7462  0.2769 -0.5616
    7MOL    C82 2374   5.864   5.566   0.352  0.3325  0.2100 -0.1729
    7MOL    C83 2375   6.001   5.567   0.430 -0.2925  0.0989  0.2037
    7MOL    O84 2376   5.557   5.842   0.504  0.4169  0.0915  0.8731
    7MOL    H85 2377   5.842   5.967   0.544 -0.0046  0.8876  0.5582
    7MOL    H86 2378   5.680   6.042   0.551 -3.2806 -2.5300 -0.3447
    7MOL    H87 2379   5.629   5.821   0.692  0.2225 -0.4146  0.0730
    7MOL    H88 2380   5.857   5.728   0.595  0.9687 -0.1705 -1.0892
    7MOL    H89 2381   5.736   5.618   0.577 -0.0915 -0.5958 -0.9069
    7MOL    H90 2382   5.844   5.777   0.351  1.0948  0.7690  2.6236
    7MOL    H91 2383   5.691   5.693   0.344 -0.6581  1.8067 -0.8117
    7MOL    H92 2384   5.817   5.471   0.377 -0.5511  0.6524 -0.1030
    7MOL    H93 2385   5.881   5.571   0.245  0.0151  1.3541 -0.1782
    7MOL    H94 2386   6.048   5.470   0.416  1.9113  1.5605 -3.1198
    7MOL    H95 2387   5.987   5.568   0.538  2.0447  1.8115  0.5452
    7MOL    H96 2388   6.076   5.638   0.394  2.2472 -3.9139 -2.9078
    7MOL    C97 2389   5.445   5.902   0.569  0.3691 -0.0021  0.3326
    7MOL    C98 2390   5.355   5.809   0.655  0.4522 -0.0438  0.7114
    7MOL    C99 2391   5.256   5.898   0.728  0.1293  0.1703 -0.3080
    7MOL   C100 2392   5.157   5.820   0.820 -0.0005  0.2568  0.4450
    7MOL   C101 2393   5.061   5.913   0.889 -0.0121  0.3067  0.1305
    7MOL   C102 2394   4.971   5.856   0.995 -0.2940  0.5295 -0.7349
    7MOL   O103 2395   5.278   5.718   0.573 -0.3189 -0.0997  0.1275
    7MOL   H104 2396   5.382   5.937   0.488  1.7762  0.8535 -0.4040
    7MOL   H105 2397   5.487   5.987   0.624 -1.6756  0.4274  1.2802
    7MOL   H106 2398   5.410   5.751   0.730  3.7710  0.4660 -1.2206
    7MOL   H107 2399   5.207   5.958   0.651 -2.0006  2.2661  2.5732
    7MOL   H108 2400   5.310   5.972   0.786 -0.1540  0.8054 -0.8429
    7MOL   H109 2401   5.212   5.759   0.891 -0.5695  0.4027  1.0185
    7MOL   H110 2402   5.097   5.748   0.765 -0.8298 -0.9379  2.8261
    7MOL   H111 2403   5.009   5.980   0.821 -1.1162 -0.9726 -0.3036
    7MOL   H112 2404   5.134   5.973   0.943  0.7978 -0.8340  0.3295
    7MOL   H113 2405   4.896   5.789   0.954 -0.5920  0.1475  0.4123
    7MOL   H114 2406   5.020   5.797   1.072  0.7486 -0.7476 -2.3458
    7MOL   H115 2407   4.932   5.944   1.046 -1.2897  0.8694 -2.0584
    7MOL   C116 2408   5.333   5.590   0.546  0.4032  0.4806  0.3943
    7MOL   C117 2409   5.246   5.485   0.469 -0.3133 -0.0920  0.1635
    7MOL   C118 2410   5.137   5.452   0.562  0.2952  0.1736 -0.0947
    7MOL   C119 2411   5.031   5.356   0.506  0.4595  0.1338 -0.0856
    7MOL   C120 2412   4.915   5.329   0.606 -0.1949  0.3377  0.2623
    7MOL   C121 2413   4.805   5.239   0.549 -0.3797 -0.5249 -0.4093
    7MOL   O122 2414   5.316   5.365   0.436 -0.3700  0.0435 -0.2001
    7MOL   H123 2415   5.413   5.613   0.475  2.0789 -1.2082  1.7034
    7MOL   H124 2416   5.381   5.542   0.631  2.2772  0.0524 -0.8492
    7MOL   H125 2417   5.207   5.536   0.380  2.7236  2.3106  0.1102
    7MOL   H126 2418   5.178   5.394   0.645  0.1042  1.1675  0.7087
    7MOL   H127 2419   5.087   5.540   0.602  1.3220  1.0320 -0.6557
    7MOL   H128 2420   5.091   5.265   0.502 -1.6635 -1.3016 -0.6314
    7MOL   H129 2421   4.990   5.401   0.415  0.8487 -0.2330 -0.4474
    7MOL   H130 2422   4.965   5.279   0.689 -0.8029 -0.5811  0.0818
    7MOL   H131 2423   4.869   5.425   0.631 -0.2193  0.8425 -1.6077
    7MOL   H132 2424   4.751   5.281   0.465  0.9995  0.9392 -0.5745
    7MOL   H133 2425   4.857   5.149   0.514  3.0508  1.1367  0.1801
    7MOL   H134 2426   4.733   5.222   0.629  2.1328 -0.1162  2.0506
    7MOL   C135 2427   5.416   5.375   0.338 -0.3223 -0.0691 -0.3419
    7MOL   C136 2428   5.454   5.233   0.289  0.0519 -0.1123  0.4205
    7MOL   C137 2429   5.598   5.229   0.251  0.3923 -0.3841  0.7888
    7MOL   C138 2430   5.624   5.304   0.118  0.1018  0.4677 -0.5268
    7MOL   C139 2431   5.768   5.302   0.077 -0.1551 -0.1957  0.0904
    7MOL   C140 2432   5.802   5.373   7.736  0.1943 -0.2955 -0.2151
    7MOL   O141 2433   5.376   5.195   0.177 -0.4682  0.3572  0.3959
    7MOL   H142 2434   5.401   5.444   0.255 -1.5728 -2.0680 -1.8111
    7MOL   H143 2435   5.502   5.418   0.390 -0.0669 -1.3513  0.3030
    7MOL   H144 2436   5.433   5.153   0.360 -2.1142 -1.2939 -1.5066
    7MOL   H145 2437   5.661   5.269   0.331 -0.5023 -0.4158  1.5153
    7MOL   H146 2438   5.629   5.125   0.239 -2.5778 -1.1848 -0.3035
    7MOL   H147 2439   5.596   5.408   0.135  1.0538  0.6694 -0.2157
    7MOL   H148 2440   5.565   5.255   0.039 -0.4146 -0.2063  0.2687
    7MOL   H149 2441   5.795   5.197   0.069  2.0109  0.2316  1.3813
    7MOL   H150 2442   5.835   5.337   0.156  0.8286  2.3537 -1.7906
    7MOL   H151 2443   5.909   5.366   7.719  0.5021  0.8008  1.1793
    7MOL   H152 2444   5.755   5.312   7.659  2.6671 -0.9931 -1.2235
    7MOL   H153 2445   5.771   5.477   7.731  0.5772 -0.1617  0.2194
    7MOL   C154 2446   5.245   5.134   0.184 -0.6301  0.2812 -0.3057
    7MOL   C155 2447   5.260   4.981   0.169  0.2508  0.6752  0.6883
    7MOL   C156 2448   5.196   4.908   0.293 -0.5461  0.3548  0.5220
    7MOL   C157 2449   5.245   4.764   0.302  0.0706  0.2007 -0.4271
    7MOL   C158 2450   5.205   4.697   0.439 -0.0539 -0.5078  0.3357
    7MOL   C159 2451   5.046   4.677   0.453  0.0188 -0.1122  0.4122
    7MOL   O160 2452   5.213   4.933   0.048  0.1873 -0.5347 -0.1073
    7MOL   H161 2453   5.185   5.170   0.100  2.4359  0.1692 -2.6224
    7MOL   H162 2454   5.204   5.160   0.282  0.1860 -0.3695  0.2129
    7MOL   H163 2455   5.365   4.958   0.182 -0.5108 -2.3361  2.0731
    7MOL   H164 2456   5.087   4.911   0.289 -0.4560  1.4997 -1.0980
    7MOL   H165 2457   5.216   4.954   0.390 -1.7437 -0.0277  0.9711
    7MOL   H166 2458   5.354   4.762   0.299  0.1074  2.8838 -2.1529
    7MOL   H167 2459   5.212   4.704   0.217  1.2265 -0.5747 -0.3412
    7MOL   H168 2460   5.270   4.610   0.448  0.1881 -0.4971 -1.1135
    7MOL   H169 2461   5.231   4.764   0.521 -1.2013 -0.6605  0.8454
    7MOL   H170 2462   4.995   4.773   0.460  1.0662  0.4547  0.3036
    7MOL   H171 2463   5.022   4.628   0.547 -1.7672  1.5195  0.8417
    7MOL   H172 2464   5.012   4.623   0.364 -0.4517 -0.8612  1.0404
    7MOL   C173 2465   5.296   4.955   7.719  0.6885  0.0544  0.0151
    7MOL   C174 2466   5.279   4.845   7.606  0.4869 -0.0137 -0.5584
    7MOL   C175 2467   5.348   4.882   7.471 -0.1109 -0.3046  0.1740
    7MOL   C176 2468   5.503   4.893   7.476  0.1296 -0.7041 -0.5544
    7MOL   C177 2469   5.577   4.898   7.338  0.5114  0.2382  0.3009
    7MOL   C178 2470   5.721   4.953   7.351  0.2168  0.5278 -0.5982
    7MOL   O179 2471   5.335   4.722   7.650 -0.0003 -0.1788 -0.4314
    7MOL   H180 2472   5.397   4.942   7.759 -0.2050 -1.4009  1.8820
    7MOL   H181 2473   5.280   5.051   7.671 -0.4685 -2.1430 -4.2982
    7MOL   H182 2474   5.174   4.836   7.579 -0.0725  2.5272  0.6537
    7MOL   H183 2475   5.316   4.811   7.395 -0.3479  1.1660 -1.1123
    7MOL   H184 2476   5.301   4.973   7.436  0.8169 -0.1558 -0.7170
    7MOL   H185 2477   5.536   4.971   7.545 -1.9470 -0.4750  0.2217
    7MOL   H186 2478   5.538   4.802   7.525  1.6235  0.8122  1.2293
    7MOL   H187 2479   5.592   4.803   7.287  0.4736  1.2909 -1.7105
    7MOL   H188 2480   5.513   4.957   7.271  1.8081  0.3338 -0.8867
    7MOL   H189 2481   5.784   4.894   7.418 -0.2484  0.0210 -0.5967
    7MOL   H190 2482   5.727   5.056   7.386  3.2003  0.3915 -0.5235
    7MOL   H191 2483   5.762   4.944   7.250 -0.0877  0.5865 -0.7282
    7MOL   C192 2484   5.239   4.632   7.702 -0.2632  1.0666 -0.0479
    7MOL   C193 2485   5.276   4.486   7.716  0.3974 -0.6693 -0.4918
    7MOL   C194 2486   5.406   4.468   0.008  0.1800 -0.4896 -0.1102
    7MOL   C195 2487   5.424   4.325   0.057 -0.1824  0.4302  0.5265
    7MOL   C196 2488   5.560   4.316   0.129 -0.8589 -0.1706  0.0505
    7MOL   C197 2489   5.603   4.183   0.179  0.0920  1.0022  0.1136
    7MOL   O198 2490   5.291   4.419   7.590  0.0739  0.6964 -0.1028
    7MOL   H199 2491   5.211   4.667   0.016  0.8042 -1.9460  1.3852
    7MOL   H200 2492   5.156   4.636   7.632  1.1619 -0.5937 -1.9154
    7MOL   H201 2493   5.198   4.442   7.777  0.7423 -1.3350 -0.5304
    7MOL   H202 2494   5.485   4.481   7.720  0.5493  0.1673  0.3913
    7MOL   H203 2495   5.414   4.543   0.086 -0.5571  0.3950 -0.8684
    7MOL   H204 2496   5.425   4.246   7.768  3.1434 -1.1360  2.1407
    7MOL   H205 2497   5.346   4.298   0.129  0.2828  0.4551  1.0444
    7MOL   H206 2498   5.639   4.346   0.061 -1.3424  0.2177 -0.3513
    7MOL   H207 2499   5.553   4.377   0.219  1.2954  0.3526 -0.1202
    7MOL   H208 2500   5.683   4.190   0.252  0.8972 -0.1154 -0.6439
    7MOL   H209 2501   5.520   4.132   0.230 -0.4364  1.6579 -0.0857
    7MOL   H210 2502   5.639   4.111   0.105  0.9229  1.0417  0.4837
    7MOL   C211 2503   5.177   4.342   7.550  0.1434  0.5171 -0.1518
    7MOL   C212 2504   5.201   4.274   7.416 -0.6384  0.6486 -0.4976
    7MOL   C213 2505   5.095   4.322   7.319  0.2240 -0.0088  0.4488
    7MOL   C214 2506   5.115   4.268   7.174  0.3016  0.0343 -1.2439
    7MOL   C215 2507   5.005   4.310   7.078 -0.2569 -0.0540  0.6510
    7MOL   C216 2508   5.066   4.300   6.936 -0.6666  0.5980  0.5605
    7MOL   O217 2509   5.202   4.135   7.422 -0.1587  0.0841 -0.5331
    7MOL   H218 2510   5.084   4.398   7.549  0.2895  0.8369  2.3058
    7MOL   H219 2511   5.166   4.273   7.634  1.6821 -1.4599 -1.5217
    7MOL   H220 2512   5.299   4.309   7.383  0.5306 -1.9467  0.1473
    7MOL   H221 2513   5.000   4.274   7.343 -1.3981  3.0025  0.2653
    7MOL   H222 2514   5.087   4.431   7.319 -0.3446 -0.0387 -0.6893
    7MOL   H223 2515   5.212   4.307   7.142  0.8753  1.0924  1.6182
    7MOL   H224 2516   5.130   4.161   7.179  0.7587  0.1903  2.4741
    7MOL   H225 2517   4.920   4.241   7.082 -0.0828 -0.3968 -1.1989
    7MOL   H226 2518   4.963   4.409   7.099 -0.6781 -0.0789 -0.0627
    7MOL   H227 2519   5.111   4.203   6.913  2.1857  2.0212  0.0158
    7MOL   H228 2520   5.135   4.384   6.930 -0.4375  0.2998 -1.1020
    7MOL   H229 2521   4.996   4.325   6.857  1.3171  0.2277 -1.3493
    7MOL   C230 2522   5.328   4.076   7.454 -0.3511 -0.5488  0.1035
    7MOL   C231 2523   5.319   3.941   7.514  0.2957  0.7285 -0.4649
    7MOL   C232 2524   5.443   3.880   7.594  0.5223 -0.3099 -0.0752
    7MOL   C233 2525   5.395   3.765   7.691 -0.6792 -0.1455 -0.0962
    7MOL   C234 2526   5.504   3.728   0.006  1.0345  0.6079  0.2322
    7MOL   C235 2527   5.626   3.654   7.724  0.0715 -0.5222 -0.2271
    7MOL   O236 2528   5.285   3.849   7.405  0.3104  0.2240 -0.4151
    7MOL   H237 2529   5.389   4.061   7.365 -1.6898 -0.5687 -0.8201
    7MOL   H238 2530   5.387   4.146   7.513 -1.5312  2.3382 -2.0149
    7MOL   H239 2531   5.236   3.943   7.584  0.9639  1.4503  0.3240
    7MOL   H240 2532   5.493   3.962   7.646 -0.8338  0.9000 -0.6752
    7MOL   H241 2533   5.522   3.842   7.529  0.1573 -1.8532  0.3653
    7MOL   H242 2534   5.361   3.676   7.639  0.1046 -0.1262 -0.6404
    7MOL   H243 2535   5.307   3.800   7.746 -0.4289 -2.4131  1.8525
    7MOL   H244 2536   5.548   3.811   0.061  0.6425  0.0349  1.4271
    7MOL   H245 2537   5.468   3.655   0.078 -1.5344  0.8450 -0.7548
    7MOL   H246 2538   5.672   3.702   7.638 -1.4211 -0.2650 -0.9097
    7MOL   H247 2539   5.615   3.548   7.701  0.2694 -0.5210 -0.3289
    7MOL   H248 2540   5.697   3.646   0.021  0.2222 -3.0841 -0.5446
    7MOL   C249 2541   5.149   3.854   7.357 -0.7068 -0.2139  0.2111
    7MOL   C250 2542   5.108   3.738   7.260  0.5403 -0.0125  0.3612
    7MOL   C251 2543   4.993   3.772   7.170  0.1340 -0.1021 -0.2319
    7MOL   C252 2544   4.942   3.663   7.068 -0.6050 -0.2021 -0.0550
    7MOL   C253 2545   4.849   3.714   6.966  0.7889  0.1203 -0.1140
    7MOL   C254 2546   4.800   3.610   6.872 -0.4149 -0.2942 -0.5451
    7MOL   O255 2547   5.051   3.623   7.332 -0.4655 -0.0164  0.0778
    7MOL   H256 2548   5.088   3.857   7.447 -0.8457  2.0858  0.0656
    7MOL   H257 2549   5.142   3.948   7.303 -0.2400 -0.8521 -0.9899
    7MOL   H258 2550   5.194   3.714   7.197 -0.0017 -0.7326 -0.1011
    7MOL   H259 2551   4.902   3.790   7.227 -0.1455 -2.4526  0.1016
    7MOL   H260 2552   5.026   3.860   7.114  0.7926  1.3826  2.3974
    7MOL   H261 2553   5.030   3.625   7.016 -0.8584 -1.6562  0.5332
    7MOL   H262 2554   4.890   3.583   7.121 -1.5684  0.2387 -0.3288
    7MOL   H263 2555   4.762   3.755   7.016 -0.1537 -0.4971 -1.2431
    7MOL   H264 2556   4.895   3.800   6.916 -1.4587  0.1142 -2.3070
    7MOL   H265 2557   4.802   3.509   6.913  0.5739  0.3537  1.0451
    7MOL   H266 2558   4.866   3.604   6.786 -2.1271 -1.7855 -1.8046
    7MOL   H267 2559   4.713   3.645   6.816  0.4738  1.7441 -0.6751
    7MOL   C268 2560   5.148   3.547   7.404 -0.8649  0.4138 -0.0815
    7MOL   C269 2561   5.081   3.410   7.427 -0.0507  0.5817  0.2197
    7MOL   C270 2562   5.093   3.317   7.309  0.3765 -0.6582 -0.0457
    7MOL   C271 2563   5.032   3.177   7.318 -0.3848  0.7788 -0.2789
    7MOL   C272 2564   5.054   3.078   7.199 -0.8441  0.5228 -0.2500
    7MOL   C273 2565   4.980   3.133   7.078  0.0009 -0.1086  0.7122
    7MOL   O274 2566   4.940   3.425   7.460 -0.1730 -0.0903 -0.0796
    7MOL   H275 2567   5.163   3.599   7.499  1.4185 -0.1672 -0.0963
    7MOL   H276 2568   5.241   3.537   7.347  0.1645 -1.6627  1.8314
    7MOL   H277 2569   5.140   3.372   7.510 -1.0211 -1.7809 -0.1438
    7MOL   H278 2570   5.040   3.372   7.231 -0.1315 -2.5253 -1.0434
    7MOL   H279 2571   5.194   3.307   7.271  0.2307 -0.7487 -0.4159
    7MOL   H280 2572   5.066   3.127   7.408  0.7482 -1.2934 -1.8195
    7MOL   H281 2573   4.926   3.181   7.342 -0.3108  0.6024  0.0772
    7MOL   H282 2574   5.158   3.049   7.182 -0.0830  3.1150 -0.1377
    7MOL   H283 2575   4.993   2.990   7.220  0.9229 -0.6268  0.2537
    7MOL   H284 2576   4.875   3.154   7.099  0.8696  1.5250  3.7376
    7MOL   H285 2577   5.022   3.222   7.031  0.9367 -1.4481 -1.0307
    7MOL   H286 2578   4.989   3.057   7.001 -0.2941 -0.6735  1.2291
    7MOL   C287 2579   4.913   3.484   7.586  0.0099  0.0012  0.4852
    7MOL   C288 2580   4.810   3.592   7.565  0.0190  0.3401  0.4373
    7MOL   C289 2581   4.759   3.661   7.691 -0.2608  0.5261  0.8341
    7MOL   C290 2582   4.666   3.767   7.640  0.3829 -0.0018 -0.0515
    7MOL   C291 2583   4.614   3.870   7.742 -0.6640  0.6784  0.0714
    7MOL   C292 2584   4.524   3.976   7.681 -0.5968  0.1452 -0.7436
    7MOL   O293 2585   4.697   3.530   7.503 -0.3019 -0.4706 -0.5715
    7MOL   H294 2586   4.989   3.541   7.639  0.4141 -0.3090  0.2401
    7MOL   H295 2587   4.875   3.408   7.653  0.1933 -0.0284  0.5541
    7MOL   H296 2588   4.849   3.670   7.499 -2.7684  0.3552 -1.2671
    7MOL   H297 2589   4.725   3.591   7.767  1.7124 -0.5991  0.7422
    7MOL   H298 2590   4.848   3.709   7.733 -1.4142  0.8318  2.9668
    7MOL   H299 2591   4.716   3.825   7.563  2.6089 -0.8434  0.6993
    7MOL   H300 2592   4.582   3.716   7.594 -0.9081  2.1662 -0.1415
    7MOL   H301 2593   4.700   3.915   0.006 -1.2279  0.3117  1.3939
    7MOL   H302 2594   4.556   3.804   0.022  0.9101 -1.0733 -0.2648
    7MOL   H303 2595   4.504   4.054   7.754 -1.1817  1.2583 -2.0527
    7MOL   H304 2596   4.560   4.013   7.584  2.6748 -1.4754 -0.2369
    7MOL   H305 2597   4.431   3.928   7.651  0.4442 -1.2965 -1.7584
    7MOL   C306 2598   4.689   3.568   7.366  0.4146 -0.0973  0.4427
    7MOL   C307 2599   4.602   3.455   7.298 -0.2624  0.5793  0.3923
    7MOL   C308 2600   4.595   3.467   7.144 -0.4869 -0.5198 -0.0002
    7MOL   C309 2601   4.510   3.368   7.072 -0.1946  0.7671 -0.5179
    7MOL   C310 2602   4.500   3.372   6.919  0.1930  0.4123 -0.6362
    7MOL   C311 2603   4.436   3.507   6.872 -0.0706  0.1885 -0.6315
    7MOL   O312 2604   4.469   3.466   7.343 -0.0172 -0.1292  0.1789
    7MOL   H313 2605   4.649   3.668   7.352  0.8531 -0.1755 -1.5797
    7MOL   H314 2606   4.792   3.568   7.329  0.6136 -0.2352  0.9885
    7MOL   H315 2607   4.647   3.356   7.310  0.0710  0.7934  0.9357
    7MOL   H316 2608   4.694   3.464   7.098 -0.3363 -1.7127  0.3832
    7MOL   H317 2609   4.567   3.572   7.131  0.8692 -0.3175 -1.4312
    7MOL   H318 2610   4.557   3.274   7.103 -0.5581  0.6745 -0.2466
    7MOL   H319 2611   4.413   3.381   7.119 -0.5254  0.9785 -1.2597
    7MOL   H320 2612   4.424   3.298   6.893 -2.4360  1.7586  2.8152
    7MOL   H321 2613   4.595   3.349   6.871 -0.1524  0.1937 -1.2186
    7MOL   H322 2614   4.411   3.510   6.765  1.8054  0.4855 -1.0652
    7MOL   H323 2615   4.340   3.511   6.924 -0.2380  1.2517 -1.0010
    7MOL   H324 2616   4.489   3.598   6.900 -3.1567  2.1439 -0.9017
    7MOL   C325 2617   4.451   3.394   7.465  0.2947  0.7365 -0.3095
    7MOL   C326 2618   4.300   3.372   7.487 -0.6157  0.7872 -0.2874
    7MOL   C327 2619   4.241   3.274   7.385 -0.3291 -0.1162  0.4438
    7MOL   C328 2620   4.119   3.195   7.443  0.5495 -0.1030 -0.8174
    7MOL   C329 2621   4.087   3.059   7.370 -0.3816  0.1208  0.0864
    7MOL   C330 2622   4.185   2.942   7.405 -0.0061 -0.5401 -0.5864
    7MOL   O331 2623   4.225   3.494   7.477  0.3093 -0.4000  0.1303
    7MOL   H332 2624   4.491   3.445   7.553  2.4842  1.6144 -1.7838
    7MOL   H333 2625   4.490   3.292   7.471  1.0721  1.1388  2.2863
    7MOL   H334 2626   4.286   3.337   7.590 -1.0565 -1.4404 -1.0722
    7MOL   H335 2627   4.214   3.340   7.303 -0.5812 -0.1706  0.4817
    7MOL   H336 2628   4.316   3.205   7.346 -2.3135 -0.3545 -3.0816
    7MOL   H337 2629   4.147   3.184   7.548  1.0101  0.0553 -0.9216
    7MOL   H338 2630   4.039   3.268   7.438 -0.7634 -1.2836  1.8118
    7MOL   H339 2631   3.987   3.023   7.394 -0.4345  0.1628 -0.0739
    7MOL   H340 2632   4.076   3.065   7.261  1.1020  0.2756 -0.0695
    7MOL   H341 2633   4.141   2.851   7.365 -0.7877 -0.0058 -0.9626
    7MOL   H342 2634   4.281   2.961   7.357  0.2668  0.1101  0.2036
    7MOL   H343 2635   4.216   2.919   7.507 -1.2450  2.1962  0.4563
    7MOL   C344 2636   4.234   3.599   7.570  0.0804  0.3663 -0.2757
    7MOL   C345 2637   4.163   3.729   7.527  0.4629  0.3812 -0.3874
    7MOL   C346 2638   4.128   3.820   7.655  0.8066  0.4563 -0.2337
    7MOL   C347 2639   4.049   3.954   7.622  0.5149  0.4640 -0.2703
    7MOL   C348 2640   4.048   4.046   7.748 -0.1278 -0.8274 -0.9331
    7MOL   C349 2641   3.971   4.176   7.724 -0.2976  0.1152  0.3789
    7MOL   O350 2642   4.254   3.805   7.447  0.3124  0.2151 -0.7547
    7MOL   H351 2643   4.337   3.630   7.589  0.6140 -2.3555  1.5723
    7MOL   H352 2644   4.186   3.561   7.661 -0.7052  0.9886 -0.4194
    7MOL   H353 2645   4.068   3.707   7.480  0.5596  1.0772 -0.9200
    7MOL   H354 2646   4.211   3.839   7.723 -1.4007  0.3175  2.5834
    7MOL   H355 2647   4.062   3.758   7.715  1.1468  1.0456  0.7754
    7MOL   H356 2648   3.951   3.922   7.587  0.2793  2.0543 -1.0961
    7MOL   H357 2649   4.097   3.997   7.534  2.0481  1.7020  1.1330
    7MOL   H358 2650   4.147   4.047   0.009 -0.7697  0.0991  0.4685
    7MOL   H359 2651   3.989   3.991   0.036 -1.8715 -1.2695 -2.6526
    7MOL   H360 2652   3.965   4.238   0.028  0.7681  0.5360  0.1603
    7MOL   H361 2653   3.868   4.157   7.693 -0.2902  1.8752 -0.8422
    7MOL   H362 2654   4.009   4.231   7.637 -1.7648 -0.9274 -0.9629
    7MOL   C363 2655   4.260   3.759   7.309  0.5815 -0.8810  1.0805
    7MOL   C364 2656   4.356   3.854   7.237  0.5801  1.3080  0.1710
    7MOL   C365 2657   4.300   3.994   7.229 -0.5079 -0.2347 -0.9660
    7MOL   C366 2658   4.161   4.002   7.150  0.5935 -0.6981  0.1362
    7MOL   C367 2659   4.137   4.136   7.079 -0.1980  0.0246  0.7473
    7MOL   C368 2660   4.181   4.119   6.931 -0.2640  0.1672  0.1312
    7MOL   O369 2661   4.481   3.846   7.302  0.2776  0.3990  0.8802
    7MOL   H370 2662   4.165   3.764   7.257  0.7414 -0.3216  0.8415
    7MOL   H371 2663   4.292   3.655   7.301  0.9248 -0.7354  0.5368
    7MOL   H372 2664   4.373   3.822   7.134  0.5648 -2.7862  1.3581
    7MOL   H373 2665   4.280   4.037   7.327 -1.7547 -0.0128 -1.3123
    7MOL   H374 2666   4.370   4.060   7.178 -0.6388  0.8301  0.2095
    7MOL   H375 2667   4.151   3.923   7.076 -1.1426 -0.8184  0.4676
    7MOL   H376 2668   4.079   3.989   7.220  0.9072 -0.0899  0.6184
    7MOL   H377 2669   4.034   4.170   7.090 -0.3276 -0.1601  0.1593
    7MOL   H378 2670   4.193   4.214   7.129 -0.8841  2.4411 -2.1263
    7MOL   H379 2671   4.109   4.072   6.864 -2.4154  2.2262  0.9623
    7MOL   H380 2672   4.196   4.218   6.888  0.2258 -0.3537 -0.9186
    7MOL   H381 2673   4.266   4.052   6.919 -0.3801  0.3229 -1.7455
    7MOL   H382 2674   4.467   3.808   7.388  1.9697 -0.4270  0.8046
    8MOL     C1 2675   2.432   4.311   6.094 -0.0356 -0.3208  0.3373
    8MOL     C2 2676   2.320   4.205   6.095  0.3705 -0.8456 -0.1127
    8MOL     C3 2677   2.228   4.231   5.976  0.9888  0.2452 -0.0344
    8MOL     C4 2678   2.135   4.112   5.931  0.3552 -0.1424  0.2363
    8MOL     C5 2679   2.010   4.079   6.014  0.0296  0.0989 -0.8646
    8MOL     C6 2680   1.931   4.200   6.047  0.2348  0.2263 -0.1447
    8MOL     O7 2681   2.381   4.077   6.086 -0.6947 -0.7578  0.0078
    8MOL     H8 2682   2.507   4.305   6.015 -2.1390 -0.1542 -1.7409
    8MOL     H9 2683   2.502   4.295   6.176  0.3356  0.2053  0.1229
    8MOL    H10 2684   2.257   4.213   6.183  0.1367 -1.6570 -0.2033
    8MOL    H11 2685   2.173   4.321   6.003 -0.3306 -0.6557  0.3163
    8MOL    H12 2686   2.286   4.245   5.884 -0.4223  3.0442 -0.5760
    8MOL    H13 2687   2.101   4.133   5.829  0.3452 -0.5123  0.1649
    8MOL    H14 2688   2.190   4.018   5.928 -1.3298 -1.1513  0.2111
    8MOL    H15 2689   1.951   4.006   5.958 -1.4284  0.0192  0.7384
    8MOL    H16 2690   2.041   4.026   6.104 -2.7583 -0.1762 -0.0144
    8MOL    H17 2691   1.832   4.164   6.073  0.7128 -1.8221 -1.1063
    8MOL    H18 2692   1.969   4.266   6.126 -1.1145  0.1917  0.5506
    8MOL    H19 2693   1.908   4.253   5.955  0.5064 -0.8761 -0.8598
    8MOL    H20 2694   2.397   4.414   6.084 -1.9168 -1.0603 -1.1847
    8MOL    C21 2695   2.415   4.014   6.216 -0.0768  0.3872 -0.1540
    8MOL    C22 2696   2.484   3.882   6.211 -0.4781  0.6183  0.2770
    8MOL    C23 2697   2.545   3.854   6.346  0.3899 -0.2603 -0.0704
    8MOL    C24 2698   2.450   3.823   6.460  0.4480  0.7403  0.1490
    8MOL    C25 2699   2.514   3.802   6.597  0.6055 -0.0337 -0.0562
    8MOL    C26 2700   2.431   3.728   6.700 -0.2696  0.2531  0.2213
    8MOL    O27 2701   2.387   3.777   6.198 -0.5258  1.0994  0.0098
    8MOL    H28 2702   2.491   4.076   6.262  0.9122 -0.8074 -0.1526
    8MOL    H29 2703   2.328   4.009   6.282  0.0059 -1.7432 -0.1758
    8MOL    H30 2704   2.560   3.882   6.133 -0.6360  1.1285  0.1185
    8MOL    H31 2705   2.603   3.940   6.381 -0.8044  1.6598 -2.6382
    8MOL    H32 2706   2.606   3.767   6.320 -0.7530 -1.1830  0.2839
    8MOL    H33 2707   2.384   3.737   6.446 -0.7952  1.8831 -1.2142
    8MOL    H34 2708   2.388   3.911   6.479  0.7063  1.0902 -0.6174
    8MOL    H35 2709   2.603   3.741   6.587  1.8797  1.4750  1.6823
    8MOL    H36 2710   2.544   3.900   6.635  1.3512  0.5198 -2.0336
    8MOL    H37 2711   2.377   3.791   6.770  0.0118  1.4892 -0.6645
    8MOL    H38 2712   2.505   3.661   6.744 -2.0921 -1.1270  1.2762
    8MOL    H39 2713   2.355   3.660   6.660 -0.4360 -0.3008  1.4513
    8MOL    C40 2714   2.320   3.762   6.076 -0.6608 -0.6590 -0.3064
    8MOL    C41 2715   2.228   3.638   6.069 -1.0605 -0.6547 -0.1371
    8MOL    C42 2716   2.183   3.609   5.926  0.3156  0.5648 -0.2602
    8MOL    C43 2717   2.095   3.712   5.868  0.0195 -0.5747  0.8444
    8MOL    C44 2718   2.054   3.697   5.724 -0.1052  0.2836 -0.0198
    8MOL    C45 2719   1.968   3.804   5.662  0.4114 -0.1349  0.1907
    8MOL    O46 2720   2.105   3.638   6.153 -0.0035 -0.8288  0.2820
    8MOL    H47 2721   2.389   3.761   5.992  0.1363 -0.3828  0.3440
    8MOL    H48 2722   2.261   3.854   6.078  0.3055 -0.0285 -0.5974
    8MOL    H49 2723   2.282   3.550   6.103 -1.9228 -1.3293 -0.5002
    8MOL    H50 2724   2.268   3.588   5.861  2.1528 -1.3899  2.6714
    8MOL    H51 2725   2.130   3.515   5.937  2.0850 -0.4006  0.1264
    8MOL    H52 2726   2.147   3.808   5.871  0.4089 -0.7883  0.8649
    8MOL    H53 2727   2.016   3.731   5.941  0.7327  1.3140  1.1493
    8MOL    H54 2728   2.146   3.693   5.665  0.1579 -2.3878  0.5132
    8MOL    H55 2729   1.998   3.604   5.710 -1.5926  1.0037  1.1038
    8MOL    H56 2730   1.880   3.814   5.726 -0.7401 -0.2103 -1.3552
    8MOL    H57 2731   2.017   3.902   5.662  1.5539 -0.6925  0.9444
    8MOL    H58 2732   1.925   3.786   5.564  0.2267  1.3815 -0.0264
    8MOL    C59 2733   2.116   3.646   6.293 -0.3157  0.2026 -0.3912
    8MOL    C60 2734   1.985   3.638   6.362  0.2415 -0.2422 -0.0137
    8MOL    C61 2735   1.887   3.734   6.287  0.0246  0.1463 -0.2113
    8MOL    C62 2736   1.755   3.747   6.369  0.2777  0.0149 -0.6138
    8MOL    C63 2737   1.659   3.838   6.291 -0.0556 -0.0669  0.5875
    8MOL    C64 2738   1.527   3.866   6.369  0.2459  0.2684  0.3880
    8MOL    O65 2739   1.925   3.506   6.361  0.2077 -0.6398 -0.0316
    8MOL    H66 2740   2.168   3.737   6.323 -0.7207  0.0749  0.7244
    8MOL    H67 2741   2.173   3.558   6.325 -3.8209 -2.6779 -1.7175
    8MOL    H68 2742   2.003   3.657   6.467  0.2224  0.2587 -0.0993
    8MOL    H69 2743   1.865   3.692   6.189 -1.5815 -0.6589  0.4821
    8MOL    H70 2744   1.936   3.832   6.284  0.3563 -0.0611 -1.8297
    8MOL    H71 2745   1.777   3.790   6.467 -1.2363 -0.4943 -0.0234
    8MOL    H72 2746   1.703   3.654   6.392  1.1131  0.5166  3.6800
    8MOL    H73 2747   1.626   3.783   6.203  0.2517  1.1740 -0.3197
    8MOL    H74 2748   1.695   3.936   6.261  1.4539 -0.8640 -0.2350
    8MOL    H75 2749   1.544   3.907   6.469  0.0436  3.3845 -0.8038
    8MOL    H76 2750   1.479   3.943   6.308 -3.1034 -0.8912  1.4474
    8MOL    H77 2751   1.474   3.771   6.376 -0.2465  0.4632 -0.6456
    8MOL    C78 2752   1.971   3.426   6.474 -0.3157  0.1928  0.0697
    8MOL    C79 2753   1.907   3.285   6.495 -0.9850 -0.0090  0.6424
    8MOL    C80 2754   1.953   3.224   6.624  0.3069  0.4706 -0.2632
    8MOL    C81 2755   1.914   3.072   6.642  0.6305 -0.0878 -0.0031
    8MOL    C82 2756   1.975   3.018   6.769  0.1059  0.3674  0.1399
    8MOL    C83 2757   1.933   2.883   6.816  0.2467 -0.0357  0.2460
    8MOL    O84 2758   1.958   3.204   6.390  0.0495 -0.1444  0.3167
    8MOL    H85 2759   1.949   3.487   6.562 -2.3065  1.1420 -1.0631
    8MOL    H86 2760   2.078   3.404   6.467 -0.5822 -0.5619 -1.9212
    8MOL    H87 2761   1.798   3.289   6.489 -0.7448  2.7658 -3.3691
    8MOL    H88 2762   2.061   3.236   6.625  0.1940  1.6132 -0.3278
    8MOL    H89 2763   1.933   3.283   6.713  2.9917  0.2388  0.5056
    8MOL    H90 2764   1.946   3.020   6.552  1.9358  1.4276 -0.4466
    8MOL    H91 2765   1.807   3.055   6.656 -0.0801  1.9063 -2.4697
    8MOL    H92 2766   2.084   3.017   6.762  0.1328 -2.2432  0.3535
    8MOL    H93 2767   1.958   3.083   6.856 -1.7178 -0.7542  0.6431
    8MOL    H94 2768   1.990   2.848   6.902  2.6245  0.5022 -1.0848
    8MOL    H95 2769   1.899   2.802   6.751  0.7544  0.6210 -0.8405
    8MOL    H96 2770   1.840   2.912   6.865  0.8171  1.9562  0.1772
    8MOL    C97 2771   1.897   3.227   6.261 -0.2662  0.0123 -0.5093
    8MOL    C98 2772   1.995   3.271   6.152 -0.2628 -0.2417 -0.0259
    8MOL    C99 2773   2.122   3.184   6.146  0.5391 -0.4018 -0.4281
    8MOL   C100 2774   2.234   3.222   6.053 -0.3980 -0.1138  0.4794
    8MOL   C101 2775   2.342   3.118   6.041  0.0345  0.0198 -0.2815
    8MOL   C102 2776   2.471   3.173   5.969 -0.3441  0.5143 -0.0557
    8MOL   O103 2777   1.944   3.293   6.020 -0.5458  0.3982 -0.0576
    8MOL   H104 2778   1.813   3.296   6.265 -2.7356 -2.9632  0.7133
    8MOL   H105 2779   1.845   3.138   6.226  0.7491 -0.9713  0.4259
    8MOL   H106 2780   2.037   3.364   6.191 -1.5721  1.8477 -3.3117
    8MOL   H107 2781   2.097   3.084   6.111  0.9402 -0.4841 -0.4835
    8MOL   H108 2782   2.167   3.174   6.245 -0.4159  0.5192  0.1094
    8MOL   H109 2783   2.278   3.314   6.089 -1.4991  0.4304  0.4763
    8MOL   H110 2784   2.198   3.237   5.951  1.3444  0.8172 -0.0175
    8MOL   H111 2785   2.304   3.037   5.979  0.2831 -1.1071  1.0149
    8MOL   H112 2786   2.364   3.084   6.142 -1.3050 -0.9949 -0.3178
    8MOL   H113 2787   2.537   3.090   5.993 -0.0615  1.2782  1.9013
    8MOL   H114 2788   2.473   3.169   5.860  0.5250 -3.1226  0.0122
    8MOL   H115 2789   2.516   3.262   6.013  0.3436  0.7600 -1.2255
    8MOL   C116 2790   1.853   3.403   6.011  0.7576  0.6527 -0.8127
    8MOL   C117 2791   1.808   3.425   5.868  0.3023 -0.0384  0.4035
    8MOL   C118 2792   1.724   3.560   5.854 -0.0950 -0.0773  0.5062
    8MOL   C119 2793   1.676   3.596   5.711 -0.0812 -0.3461 -0.1050
    8MOL   C120 2794   1.589   3.720   5.705 -0.7385  0.2363 -0.1012
    8MOL   C121 2795   1.586   3.773   5.561  0.4848 -0.1548  0.7934
    8MOL   O122 2796   1.729   3.317   5.819  0.1582  0.0100 -0.4604
    8MOL   H123 2797   1.762   3.379   6.066  0.8776 -0.7393 -1.2095
    8MOL   H124 2798   1.892   3.491   6.063 -0.1993 -0.5363  1.9985
    8MOL   H125 2799   1.901   3.432   5.812  1.1008 -3.7519  1.0981
    8MOL   H126 2800   1.640   3.550   5.922  1.0534 -1.0851  1.8258
    8MOL   H127 2801   1.777   3.645   5.896  1.5331 -0.7280 -0.1750
    8MOL   H128 2802   1.636   3.509   5.659 -0.2619 -0.1276 -0.3299
    8MOL   H129 2803   1.761   3.615   5.646  1.7741 -1.0195  2.0635
    8MOL   H130 2804   1.488   3.696   5.738  0.0693 -2.8486  0.2876
    8MOL   H131 2805   1.632   3.797   5.768  0.5527 -0.2481 -0.3779
    8MOL   H132 2806   1.686   3.784   5.518  0.5702 -1.9909  0.4457
    8MOL   H133 2807   1.538   3.692   5.506  1.9071  0.0617 -0.8178
    8MOL   H134 2808   1.538   3.871   5.559  0.8864  0.1094  3.3058
    8MOL   C135 2809   1.804   3.206   5.780  0.0286  0.5846 -0.3509
    8MOL   C136 2810   1.750   3.082   5.852  0.1044 -0.0599 -0.0801
    8MOL   C137 2811   1.850   2.955   5.860  0.2310 -1.0753 -0.0892
    8MOL   C138 2812   1.922   2.908   5.728 -0.3603  0.4744 -0.6025
    8MOL   C139 2813   2.072   2.897   5.744  0.5855 -0.1293 -0.9708
    8MOL   C140 2814   2.141   2.834   5.618  0.0624 -0.2615  0.3530
    8MOL   O141 2815   1.621   3.032   5.808  0.5090 -0.3603 -0.3352
    8MOL   H142 2816   1.794   3.196   5.672 -0.9099  0.4504 -0.2497
    8MOL   H143 2817   1.911   3.219   5.801  0.3377  0.6567 -1.9047
    8MOL   H144 2818   1.735   3.127   5.951 -3.7921  1.7661 -1.4009
    8MOL   H145 2819   1.925   2.987   5.932  0.7179  2.1755 -1.9718
    8MOL   H146 2820   1.813   2.867   5.914 -0.5149 -0.9754 -0.4439
    8MOL   H147 2821   1.908   2.980   5.647  0.6503 -0.3720 -1.5697
    8MOL   H148 2822   1.880   2.816   5.686  1.3411 -1.3892  1.6445
    8MOL   H149 2823   2.099   2.831   5.827  2.0650  0.9948 -0.5378
    8MOL   H150 2824   2.107   2.999   5.763 -0.5918  0.2081 -0.5463
    8MOL   H151 2825   2.139   2.907   5.537  1.2787 -0.3831  0.2027
    8MOL   H152 2826   2.243   2.798   5.633 -0.4688 -1.5789  0.8844
    8MOL   H153 2827   2.082   2.750   5.581 -0.6806  0.8660 -1.0672
    8MOL   C154 2828   1.595   2.985   5.672  0.0205 -0.3444  0.1517
    8MOL   C155 2829   1.442   2.952   5.648 -0.1412  0.2258 -0.5523
    8MOL   C156 2830   1.398   2.958   5.500 -0.2010  0.0877 -0.4033
    8MOL   C157 2831   1.252   2.934   5.464  0.3704  0.0845 -0.2533
    8MOL   C158 2832   1.178   3.026   5.375 -0.1762 -0.1173 -0.8189
    8MOL   C159 2833   1.042   2.973   5.344  0.6393  0.1168 -0.4835
    8MOL   O160 2834   1.423   2.810   5.689 -0.1137  0.5831  0.4883
    8MOL   H161 2835   1.651   2.894   5.655  0.5184 -0.1538  0.7402
    8MOL   H162 2836   1.615   3.062   5.597  1.5245 -0.8452  0.0360
    8MOL   H163 2837   1.380   3.013   5.714  1.0345  2.6466 -1.6135
    8MOL   H164 2838   1.460   2.895   5.436 -1.4821 -2.5877  0.9272
    8MOL   H165 2839   1.419   3.060   5.466  0.3200  0.0616 -0.1681
    8MOL   H166 2840   1.183   2.924   5.547 -0.7872 -3.3994 -1.5135
    8MOL   H167 2841   1.250   2.834   5.419  0.0818 -1.6797  3.4869
    8MOL   H168 2842   1.172   3.123   5.424  2.2184  0.5599 -1.7883
    8MOL   H169 2843   1.234   3.043   5.283 -0.8443  0.4366 -1.1282
    8MOL   H170 2844   1.036   2.883   5.283 -0.7400  0.1089 -0.3519
    8MOL   H171 2845   0.989   3.056   5.296  1.4072  2.3460  2.3824
    8MOL   H172 2846   0.978   2.952   5.429 -1.2897 -1.0589 -2.1785
    8MOL   C173 2847   1.414   2.796   5.831 -0.1314 -0.2342 -0.2088
    8MOL   C174 2848   1.382   2.650   5.858  0.3277 -0.9411 -0.1522
    8MOL   C175 2849   1.419   2.618   6.009  0.2282  0.1348 -0.4025
    8MOL   C176 2850   1.409   2.474   6.061  0.5075  0.0927  0.4301
    8MOL   C177 2851   1.448   2.462   6.214  0.6952  0.1917  0.9466
    8MOL   C178 2852   1.424   2.327   6.284 -0.5020 -1.2082 -0.4873
    8MOL   O179 2853   1.247   2.617   5.843 -0.2384 -0.2079  0.6521
    8MOL   H180 2854   1.338   2.863   5.871  1.1476  0.8497  0.4706
    8MOL   H181 2855   1.516   2.807   5.871 -0.3662  1.1744  0.0298
    8MOL   H182 2856   1.434   2.583   5.790 -0.8100  0.3888 -2.3796
    8MOL   H183 2857   1.521   2.646   6.035  0.4350 -3.1030  2.7131
    8MOL   H184 2858   1.348   2.683   6.060  0.4678 -1.5394  2.1356
    8MOL   H185 2859   1.307   2.437   6.055  0.9098 -1.2155  1.5161
    8MOL   H186 2860   1.473   2.413   5.997 -2.6418  0.8099 -3.6325
    8MOL   H187 2861   1.555   2.481   6.220  0.3477  3.1946 -1.1924
    8MOL   H188 2862   1.404   2.552   6.257 -0.4400 -1.0721  2.4892
    8MOL   H189 2863   1.443   2.243   6.218 -3.1684 -1.6482 -0.7566
    8MOL   H190 2864   1.319   2.304   6.303 -0.7581  0.8351  0.7322
    8MOL   H191 2865   1.481   2.312   6.376 -1.1918  2.0155  0.5334
    8MOL   C192 2866   1.207   2.572   5.716  0.4958 -0.1619  0.7116
    8MOL   C193 2867   1.052   2.572   5.707 -0.6583 -0.3817 -0.3488
    8MOL   C194 2868   1.011   2.485   5.592 -0.7509  0.0144 -0.1622
    8MOL   C195 2869   1.046   2.331   5.602 -0.1372 -0.8672 -0.0178
    8MOL   C196 2870   1.066   2.261   5.469  0.3641  0.2649 -0.0324
    8MOL   C197 2871   0.942   2.270   5.375 -0.1086 -0.6694 -0.7215
    8MOL   O198 2872   1.005   2.697   5.676  0.0749  0.2065  0.1291
    8MOL   H199 2873   1.251   2.623   5.631 -4.2366  2.0643 -0.6163
    8MOL   H200 2874   1.244   2.469   5.713 -0.7145 -0.5758 -1.0333
    8MOL   H201 2875   1.009   2.528   5.797  0.0534  1.9068  1.1480
    8MOL   H202 2876   0.904   2.496   5.575 -0.6632 -1.3247 -1.6657
    8MOL   H203 2877   1.055   2.522   5.500 -0.4499 -1.7164 -0.7303
    8MOL   H204 2878   0.955   2.286   5.643 -0.0759 -2.0676 -1.1495
    8MOL   H205 2879   1.134   2.307   5.661 -0.1027  1.0111  0.7004
    8MOL   H206 2880   1.152   2.306   5.418 -0.2196 -0.2183 -1.4841
    8MOL   H207 2881   1.092   2.158   5.491 -0.3792  0.3107  1.0955
    8MOL   H208 2882   0.955   2.211   5.285 -1.2250 -0.7119 -0.8620
    8MOL   H209 2883   0.854   2.228   5.423  0.4062  0.2647  1.0846
    8MOL   H210 2884   0.921   2.371   5.340  1.1668  0.1820  0.8647
    8MOL   C211 2885   1.023   2.798   5.778 -0.1444 -0.6393  0.5715
    8MOL   C212 2886   0.909   2.895   5.773 -0.1813  0.3296 -0.0200
    8MOL   C213 2887   0.960   3.043   5.783  0.3687  0.6667 -0.5228
    8MOL   C214 2888   0.851   3.142   5.736 -0.8864  0.2547  0.3026
    8MOL   C215 2889   0.904   3.285   5.734 -0.8082 -0.1984 -0.3554
    8MOL   C216 2890   0.801   3.392   5.694 -0.0911  0.1740  0.0514
    8MOL   O217 2891   0.817   2.859   5.882 -0.0541  0.9183  0.1477
    8MOL   H218 2892   1.117   2.843   5.746 -0.7135  0.5212  0.5073
    8MOL   H219 2893   1.032   2.756   5.878 -1.2451 -1.7086  0.2389
    8MOL   H220 2894   0.862   2.889   5.675  0.4200  1.1550 -0.3746
    8MOL   H221 2895   0.989   3.063   5.886  0.1845 -1.8585  0.0618
    8MOL   H222 2896   1.044   3.065   5.717  1.4659  1.3194  1.0712
    8MOL   H223 2897   0.828   3.115   5.632 -1.9613 -2.0948  1.1086
    8MOL   H224 2898   0.756   3.131   5.789  0.5823 -1.5968  2.6011
    8MOL   H225 2899   0.932   3.299   5.839 -1.4234  2.0269 -0.4665
    8MOL   H226 2900   0.994   3.297   5.674 -0.2138  0.1534  0.5892
    8MOL   H227 2901   0.723   3.398   5.770  0.7590  1.2109  0.8662
    8MOL   H228 2902   0.771   3.375   5.591  1.9659 -1.5585 -0.3001
    8MOL   H229 2903   0.836   3.495   5.702  0.8637 -0.0848 -0.6956
    8MOL   C230 2904   0.735   2.754   5.852  0.3596 -0.0457 -0.3717
    8MOL   C231 2905   0.629   2.742   5.968  0.0992 -0.3154 -0.2553
    8MOL   C232 2906   0.579   2.596   5.982 -0.4327 -0.0717 -0.5178
    8MOL   C233 2907   0.479   2.574   6.098 -0.1116 -0.0977 -0.2074
    8MOL   C234 2908   0.462   2.420   6.121  0.0240 -0.2002 -0.1495
    8MOL   C235 2909   0.375   2.394   6.250 -0.4894 -0.0881 -0.0013
    8MOL   O236 2910   0.525   2.826   5.934 -0.3309 -0.1138  0.2476
    8MOL   H237 2911   0.681   2.787   5.763  0.7786  2.1106  0.1654
    8MOL   H238 2912   0.781   2.655   5.844  0.1483 -0.3935  2.3305
    8MOL   H239 2913   0.670   2.760   6.067  2.5438 -1.8338 -0.9289
    8MOL   H240 2914   0.661   2.525   5.986 -0.6841 -0.3251  0.2647
    8MOL   H241 2915   0.523   2.573   5.891 -1.9906  2.6824 -0.3244
    8MOL   H242 2916   0.381   2.613   6.073  0.1762  0.0302 -1.1775
    8MOL   H243 2917   0.512   2.613   6.195 -0.8548 -1.6791  0.6891
    8MOL   H244 2918   0.424   2.373   6.030 -1.3904 -2.2719  1.4607
    8MOL   H245 2919   0.561   2.375   6.132  0.0938  0.1327  0.6498
    8MOL   H246 2920   0.296   2.468   6.259  0.0677  0.6621 -1.1461
    8MOL   H247 2921   0.436   2.410   6.338  0.6147  2.3649 -1.1762
    8MOL   H248 2922   0.329   2.295   6.255  3.4566 -2.0585 -1.1673
    8MOL   C249 2923   0.551   2.956   5.977 -0.7838  0.2456 -0.3520
    8MOL   C250 2924   0.427   3.039   5.984  0.3092 -0.1435  0.1661
    8MOL   C251 2925   0.468   3.183   5.999 -0.5197 -0.1602 -0.1450
    8MOL   C252 2926   0.358   3.292   5.997 -0.2463 -0.5084  0.2637
    8MOL   C253 2927   0.318   3.335   5.851 -0.0114  0.3343 -0.3335
    8MOL   C254 2928   0.205   3.431   5.861  0.0782  0.0837  0.4420
    8MOL   O255 2929   0.349   3.015   6.098  0.3824 -0.3313 -0.3008
    8MOL   H256 2930   0.603   2.965   6.073  0.0231 -1.5782 -0.5877
    8MOL   H257 2931   0.623   2.998   5.907  0.7127 -0.8158  0.5145
    8MOL   H258 2932   0.360   3.038   5.898  0.7524 -2.2588 -0.1890
    8MOL   H259 2933   0.526   3.205   6.088  1.0160  1.5531 -1.5317
    8MOL   H260 2934   0.545   3.203   5.925 -1.2471  0.9999 -0.6092
    8MOL   H261 2935   0.266   3.249   6.036 -1.1578 -1.4036 -2.7378
    8MOL   H262 2936   0.384   3.380   6.056  0.6468 -0.1441 -0.6443
    8MOL   H263 2937   0.400   3.387   5.801  1.4294 -0.3188  1.2896
    8MOL   H264 2938   0.286   3.244   5.801 -3.4543 -0.6195  3.2947
    8MOL   H265 2939   0.119   3.378   5.903 -0.6957 -0.6695 -2.0035
    8MOL   H266 2940   0.177   3.439   5.756 -0.2961 -0.7140  0.4775
    8MOL   H267 2941   0.244   3.519   5.911 -0.5220 -0.1249  1.2778
    8MOL   C268 2942   0.276   2.894   6.096 -0.3061  0.8778  0.1332
    8MOL   C269 2943   0.156   2.893   6.191 -0.0546  0.3263  0.7472
    8MOL   C270 2944   0.117   2.748   6.238 -1.2573  0.4137  0.5807
    8MOL   C271 2945   0.015   2.751   6.349  0.6487  0.5934  0.0438
    8MOL   C272 2946   7.744   2.606   6.383 -0.5668 -0.1680 -1.0556
    8MOL   C273 2947   7.659   2.609   6.513  0.5038  0.0012  0.2045
    8MOL   O274 2948   0.048   2.961   6.130 -0.2111 -0.3205  0.2700
    8MOL   H275 2949   0.344   2.816   6.133 -2.2843 -2.4931 -2.9647
    8MOL   H276 2950   0.246   2.877   5.993  0.5404  1.7813 -0.2606
    8MOL   H277 2951   0.194   2.950   6.276 -1.3419  1.4093  0.6123
    8MOL   H278 2952   0.089   2.693   6.148  2.1654 -1.5552  0.6461
    8MOL   H279 2953   0.198   2.694   6.285 -1.0671  1.0848  1.0389
    8MOL   H280 2954   0.047   2.803   6.439 -1.8101 -0.3883  1.5243
    8MOL   H281 2955   7.719   2.816   6.317  3.8694  3.4131 -2.8839
    8MOL   H282 2956   7.679   2.575   6.302 -1.3386 -0.0639 -0.4899
    8MOL   H283 2957   0.034   2.529   6.398 -1.1390 -0.6364 -0.5168
    8MOL   H284 2958   7.719   2.637   6.599 -0.5856 -0.3537  1.0935
    8MOL   H285 2959   7.579   2.681   6.499  1.0421  0.3457 -1.2378
    8MOL   H286 2960   7.621   2.508   6.529 -1.2875  0.7995  1.0941
    8MOL   C287 2961   0.061   3.098   6.107  0.1961 -0.1065 -0.4396
    8MOL   C288 2962   7.704   3.152   6.127  0.7105 -0.5315 -1.2513
    8MOL   C289 2963   7.676   3.297   6.060 -0.3401  0.5140  0.2646
    8MOL   C290 2964   7.544   3.364   6.087  0.3765  0.3173  0.1814
    8MOL   C291 2965   7.514   3.494   6.012 -0.7959  0.3570 -0.3216
    8MOL   C292 2966   7.381   3.562   6.054  0.5172 -0.2768 -0.8624
    8MOL   O293 2967   7.686   3.161   6.268  0.4047  0.3456  0.9701
    8MOL   H294 2968   0.084   3.119   6.003 -1.2068  2.0656 -0.3513
    8MOL   H295 2969   0.134   3.138   6.177 -0.6862 -1.0237  1.0202
    8MOL   H296 2970   7.644   3.078   6.075  0.7265 -0.5847 -1.1941
    8MOL   H297 2971   7.747   3.371   6.097  1.3555 -0.6979 -0.4627
    8MOL   H298 2972   7.687   3.284   5.952 -2.3850  0.6731  0.0263
    8MOL   H299 2973   7.465   3.290   6.077  1.1465 -0.3511 -1.0839
    8MOL   H300 2974   7.532   3.398   6.190  4.2845  1.6758  0.2834
    8MOL   H301 2975   7.523   3.464   5.908  4.9849 -1.0866  0.4133
    8MOL   H302 2976   7.597   3.565   6.025 -0.0127 -0.3412 -1.4294
    8MOL   H303 2977   7.309   3.480   6.048  0.7668 -0.7659  2.3112
    8MOL   H304 2978   7.378   3.600   6.156 -0.7504  0.8323 -1.3058
    8MOL   H305 2979   7.345   3.640   5.988 -0.3924 -1.4685 -1.7998
    8MOL   C306 2980   7.575   3.082   6.309 -0.3630  0.0107  0.3424
    8MOL   C307 2981   7.548   3.075   6.460 -0.5100  0.3350 -0.4397
    8MOL   C308 2982   7.437   2.971   6.485 -0.1622  0.0193  0.4980
    8MOL   C309 2983   7.425   2.921   6.629 -0.0599 -0.0703 -0.5404
    8MOL   C310 2984   7.324   2.800   6.640  0.4097  0.9300 -0.3845
    8MOL   C311 2985   7.281   2.771   6.785 -0.2196  0.2840  0.3819
    8MOL   O312 2986   7.491   3.191   6.520  0.1655  0.3350 -0.3079
    8MOL   H313 2987   7.482   3.101   6.256  0.1564 -0.6685 -0.8492
    8MOL   H314 2988   7.600   2.978   6.285  1.7025  0.2711  1.2091
    8MOL   H315 2989   7.638   3.049   6.515 -0.8384 -0.7674 -0.4106
    8MOL   H316 2990   7.450   2.879   6.428  1.0956 -0.2438  1.1874
    8MOL   H317 2991   7.341   3.017   6.464  0.7261  1.1137 -1.2949
    8MOL   H318 2992   7.526   2.889   6.656 -0.3523 -2.4023 -2.0424
    8MOL   H319 2993   7.401   3.009   6.687 -0.7897 -0.7854  0.2597
    8MOL   H320 2994   7.365   2.704   6.610  1.0914  0.7887  0.9531
    8MOL   H321 2995   7.228   2.811   6.589  0.2459  3.0614  0.3303
    8MOL   H322 2996   7.241   2.864   6.827 -1.7459  1.0704 -2.6557
    8MOL   H323 2997   7.202   2.698   6.799  1.1659 -2.1094 -3.3324
    8MOL   H324 2998   7.360   2.736   6.852 -2.3135  1.1494  3.3711
    8MOL   C325 2999   7.578   3.304   6.530 -0.3818 -0.3506 -0.3585
    8MOL   C326 3000   7.519   3.427   6.614 -0.1923 -0.2895  0.6467
    8MOL   C327 3001   7.397   3.481   6.544 -0.2298 -0.3271  0.5213
    8MOL   C328 3002   7.313   3.591   6.608  0.3889  0.1669 -0.1443
    8MOL   C329 3003   7.178   3.613   6.546 -0.3003 -0.5106  0.1573
    8MOL   C330 3004   7.128   3.753   6.600 -0.0601 -1.0314  0.3926
    8MOL   O331 3005   7.607   3.535   6.615 -0.8216 -0.0156 -0.3911
    8MOL   H332 3006   7.606   3.335   6.429 -0.5386  0.1062 -0.2597
    8MOL   H333 3007   7.664   3.258   6.579  1.0402  1.3705 -1.1460
    8MOL   H334 3008   7.481   3.394   6.711  0.4154 -1.7188  0.4212
    8MOL   H335 3009   7.427   3.503   6.442  0.1029  0.4697  0.7919
    8MOL   H336 3010   7.333   3.392   6.545  1.4534 -1.5740 -0.4871
    8MOL   H337 3011   7.283   3.557   6.707 -0.8537 -0.3589 -0.6869
    8MOL   H338 3012   7.365   3.685   6.627 -0.2183  0.2131  1.3748
    8MOL   H339 3013   7.193   3.628   6.439  2.1298  0.6169  0.6351
    8MOL   H340 3014   7.099   3.538   6.548 -1.1406  0.3090 -1.1614
    8MOL   H341 3015   7.104   3.760   6.706 -0.6323 -1.1830  0.2795
    8MOL   H342 3016   7.196   3.832   6.567 -1.2105  0.8935  2.5281
    8MOL   H343 3017   7.033   3.759   6.547  1.8708  1.2518 -3.0045
    8MOL   C344 3018   7.696   3.524   6.725  0.0683  0.6239 -0.1002
    8MOL   C345 3019   0.015   3.633   6.730 -0.5876 -0.0139 -1.2645
    8MOL   C346 3020   7.742   3.769   6.725 -0.0408 -0.6557 -0.0220
    8MOL   C347 3021   0.062   3.882   6.728 -0.4413 -0.1459  0.2376
    8MOL   C348 3022   0.012   4.026   6.766  0.0626  0.4197 -0.6381
    8MOL   C349 3023   7.784   4.047   6.925 -0.2944 -0.1299  0.2434
    8MOL   O350 3024   0.099   3.623   6.842 -0.2425 -0.5822  0.1614
    8MOL   H351 3025   7.751   3.430   6.723 -2.2806 -0.7703 -1.9796
    8MOL   H352 3026   7.634   3.528   6.815 -0.3488 -0.0187 -0.3520
    8MOL   H353 3027   0.076   3.635   6.639 -0.9698 -0.0569 -1.5230
    8MOL   H354 3028   7.670   3.782   6.807 -0.7364 -1.7605 -0.4571
    8MOL   H355 3029   7.686   3.773   6.632 -3.2723 -2.1492  1.7545
    8MOL   H356 3030   0.096   3.901   6.626 -0.5394 -0.8667  0.0643
    8MOL   H357 3031   0.151   3.853   6.783  0.0711 -1.1924 -1.1026
    8MOL   H358 3032   7.701   4.046   6.721 -0.2054 -0.5556 -0.5234
    8MOL   H359 3033   0.091   4.088   6.724 -0.1866  0.3828 -1.1590
    8MOL   H360 3034   0.018   4.152   6.951  1.6853 -0.9350  2.1869
    8MOL   H361 3035   0.077   3.997   6.982  2.0106 -0.4182 -3.0119
    8MOL   H362 3036   7.691   4.003   6.960 -1.1629  1.6104  0.1701
    8MOL   C363 3037   0.229   3.564   6.817  0.6418  0.7381  0.0788
    8MOL   C364 3038   0.307   3.554   6.943 -0.5020  0.1298 -0.1843
    8MOL   C365 3039   0.431   3.458   6.909  0.0460  0.1801 -0.1418
    8MOL   C366 3040   0.447   3.351   7.014 -0.2956  0.3914 -0.2328
    8MOL   C367 3041   0.572   3.266   7.003  0.1966  0.7201  0.0934
    8MOL   C368 3042   0.583   3.177   6.875 -0.2470 -0.1663 -0.6954
    8MOL   O369 3043   0.348   3.688   6.979  0.0878  0.0425  0.3394
    8MOL   H370 3044   0.277   3.629   6.744  0.8254 -0.6559 -1.0512
    8MOL   H371 3045   0.218   3.460   6.788  3.0331  0.6916 -0.7036
    8MOL   H372 3046   0.249   3.499   7.018  1.3704 -1.0613  0.4073
    8MOL   H373 3047   0.425   3.409   6.812 -2.7536 -0.7860  0.4698
    8MOL   H374 3048   0.524   3.514   6.892 -0.0771 -0.4226 -3.0336
    8MOL   H375 3049   0.438   3.386   7.117 -0.9356  0.5882 -0.3522
    8MOL   H376 3050   0.364   3.282   7.002  1.0000 -1.2047 -0.1274
    8MOL   H377 3051   0.666   3.319   7.015  1.0428 -0.2700 -2.0617
    8MOL   H378 3052   0.594   3.211   7.094  2.1007 -0.2828 -0.9642
    8MOL   H379 3053   0.530   3.082   6.885 -0.2894  0.0070  0.9531
    8MOL   H380 3054   0.536   3.234   6.795 -0.5917 -1.4485 -1.4200
    8MOL   H381 3055   0.683   3.164   6.834  1.4014  0.2089  3.0274
    8MOL   H382 3056   0.268   3.737   6.993 -0.0809  0.2328 -1.2366
    9MOL     C1 3057   4.683   2.350   4.721  0.3390 -1.0887  0.6157
    9MOL     C2 3058   4.679   2.226   4.629 -0.7694 -0.4119 -0.4661
    9MOL     C3 3059   4.746   2.250   4.497  0.2439 -0.0848  0.1726
    9MOL     C4 3060   4.676   2.333   4.392 -0.5565  0.1740 -0.6891
    9MOL     C5 3061   4.767   2.362   4.268  0.4423  0.0864 -0.8168
    9MOL     C6 3062   4.691   2.432   4.169  0.7912  0.2781 -0.2260
    9MOL     O7 3063   4.749   2.121   4.691 -0.0654 -0.5309 -0.4173
    9MOL     H8 3064   4.777   2.366   4.774  0.2708  0.9202  0.1664
    9MOL     H9 3065   4.603   2.335   4.793  1.1280 -2.8476  1.1635
    9MOL    H10 3066   4.575   2.209   4.604 -0.8892  3.0345 -2.6011
    9MOL    H11 3067   4.849   2.278   4.516 -0.2575  0.3444  2.4214
    9MOL    H12 3068   4.767   2.156   4.447  1.6645 -0.3388  1.2185
    9MOL    H13 3069   4.589   2.272   4.366  0.7416 -1.3188 -1.6181
    9MOL    H14 3070   4.635   2.421   4.442 -0.5041 -0.7773  1.0824
    9MOL    H15 3071   4.860   2.408   4.303  1.0270 -1.5872 -0.1220
    9MOL    H16 3072   4.787   2.261   4.231 -1.0648 -0.6478  0.2891
    9MOL    H17 3073   4.730   2.421   4.068 -0.0925 -1.7618 -0.3540
    9MOL    H18 3074   4.593   2.385   4.172  1.0629 -0.2569  0.3802
    9MOL    H19 3075   4.689   2.540   4.188 -1.1551  0.3689 -0.7740
    9MOL    H20 3076   4.647   2.440   4.670  0.6163 -0.2928  1.7963
    9MOL    C21 3077   4.694   1.990   4.657 -0.4944 -0.1199 -0.6345
    9MOL    C22 3078   4.786   1.882   4.723 -0.6101 -0.3254 -0.1532
    9MOL    C23 3079   4.729   1.741   4.720 -0.5485  0.4163  0.0932
    9MOL    C24 3080   4.833   1.641   4.786  0.5238 -0.1328 -0.2903
    9MOL    C25 3081   4.769   1.508   4.819 -0.3898  0.0841  0.0071
    9MOL    C26 3082   4.876   1.399   4.820  0.6455 -0.6685 -0.4433
    9MOL    O27 3083   4.898   1.864   4.636 -0.1985  0.3348  0.0610
    9MOL    H28 3084   4.592   1.981   4.693 -1.3229  0.6417 -2.6755
    9MOL    H29 3085   4.687   1.961   4.552 -0.5406 -2.9112  0.0987
    9MOL    H30 3086   4.818   1.900   4.826 -1.2782 -1.4591  0.2570
    9MOL    H31 3087   4.703   1.728   4.615  0.3353  0.4476 -0.1323
    9MOL    H32 3088   4.638   1.729   4.779 -0.3080 -0.3565  0.3134
    9MOL    H33 3089   4.867   1.687   4.879  1.0851  0.6370 -0.8712
    9MOL    H34 3090   4.919   1.637   4.719 -0.8553  1.1277 -2.1911
    9MOL    H35 3091   4.730   1.519   4.920  1.0016  0.3557  0.5327
    9MOL    H36 3092   4.677   1.490   4.764  0.8417 -4.6076 -0.6865
    9MOL    H37 3093   4.959   1.424   4.886 -0.3428 -2.4904  1.5577
    9MOL    H38 3094   4.903   1.363   4.721  1.0176 -0.1544 -0.5303
    9MOL    H39 3095   4.820   1.316   4.863  0.1439 -0.2195 -0.2202
    9MOL    C40 3096   5.023   1.920   4.685 -0.1268 -0.5960 -0.3186
    9MOL    C41 3097   5.129   1.865   4.581 -0.3336  0.1975  0.0414
    9MOL    C42 3098   5.274   1.877   4.630  0.6957 -0.2634  0.7944
    9MOL    C43 3099   5.382   1.819   4.535 -0.8079 -0.1555  0.0223
    9MOL    C44 3100   5.522   1.811   4.597  0.2274 -0.0411 -0.8065
    9MOL    C45 3101   5.595   1.938   4.584  0.3914  0.3781 -0.2510
    9MOL    O46 3102   5.117   1.920   4.447  0.3168  0.2760  0.0807
    9MOL    H47 3103   5.041   1.876   4.783  1.0805  1.3398  0.3675
    9MOL    H48 3104   5.018   2.029   4.697 -1.4105 -0.6285 -0.5311
    9MOL    H49 3105   5.117   1.757   4.572  0.3168  0.1995 -0.8800
    9MOL    H50 3106   5.293   1.984   4.643 -1.9157  0.1697  1.3787
    9MOL    H51 3107   5.283   1.835   4.730 -0.4362 -1.7886  0.2652
    9MOL    H52 3108   5.389   1.870   4.439 -0.1732  0.8370  0.5863
    9MOL    H53 3109   5.341   1.725   4.498  0.7500 -0.5436 -0.7605
    9MOL    H54 3110   5.524   1.775   4.700  3.0463  1.0355 -0.4446
    9MOL    H55 3111   5.588   1.733   4.560  1.2962  0.6696 -0.4330
    9MOL    H56 3112   5.613   1.950   4.477 -3.1212 -0.8931 -1.0730
    9MOL    H57 3113   5.535   2.019   4.625 -1.3151 -1.3358  0.7267
    9MOL    H58 3114   5.689   1.925   4.637 -0.3241 -0.5427  0.8071
    9MOL    C59 3115   5.127   2.052   4.425  0.1385  0.5604 -0.4475
    9MOL    C60 3116   5.156   2.079   4.275 -0.2501  0.6436  0.2523
    9MOL    C61 3117   5.039   2.143   4.207  0.1862  0.3972  0.5543
    9MOL    C62 3118   5.038   2.119   4.051  0.1569  0.8497 -0.5882
    9MOL    C63 3119   4.921   2.184   3.965  0.2520  0.3340 -0.2761
    9MOL    C64 3120   4.922   2.165   3.810 -0.4597  0.2085 -0.2617
    9MOL    O65 3121   5.269   2.163   4.250 -0.4620  0.4426  0.2788
    9MOL    H66 3122   5.211   2.099   4.477 -1.2404  1.0471  1.4174
    9MOL    H67 3123   5.036   2.105   4.452 -0.5868 -0.0462 -1.6653
    9MOL    H68 3124   5.177   1.984   4.228 -1.5741  0.6033 -0.2833
    9MOL    H69 3125   5.058   2.250   4.209 -1.7701  0.7661  0.5291
    9MOL    H70 3126   4.943   2.118   4.252  0.0092 -2.7459 -1.4055
    9MOL    H71 3127   5.048   2.013   4.031  1.4800  0.7128  0.6278
    9MOL    H72 3128   5.133   2.164   4.021  2.1934 -1.8246  1.5354
    9MOL    H73 3129   4.915   2.291   3.985 -0.4405  0.1737  0.3877
    9MOL    H74 3130   4.829   2.146   4.007 -0.3098 -1.1840 -2.7623
    9MOL    H75 3131   5.025   2.175   3.777 -0.4517 -1.5683 -0.8471
    9MOL    H76 3132   4.865   2.082   3.768 -1.5068  0.9583 -0.3718
    9MOL    H77 3133   4.874   2.255   3.771 -1.1268  0.2050  0.5296
    9MOL    C78 3134   5.394   2.090   4.259 -0.3602  0.8288  0.0143
    9MOL    C79 3135   5.509   2.170   4.193  0.3266 -0.1210 -0.3953
    9MOL    C80 3136   5.627   2.084   4.142  1.0926  0.0077 -0.0939
    9MOL    C81 3137   5.718   2.162   4.047  0.3725  0.4530 -1.3839
    9MOL    C82 3138   5.825   2.073   3.990 -0.2958  0.0130 -0.2844
    9MOL    C83 3139   5.913   2.153   3.897  0.1246 -0.1427 -0.7519
    9MOL    O84 3140   5.566   2.268   4.277 -0.2368 -0.4697 -0.3017
    9MOL    H85 3141   5.392   1.998   4.202 -1.4190  0.9849 -0.2119
    9MOL    H86 3142   5.421   2.073   4.364 -1.2802  0.4824  0.2003
    9MOL    H87 3143   5.476   2.229   4.108  0.4779  2.1840  1.0928
    9MOL    H88 3144   5.677   2.061   4.235  1.6739 -1.2958 -0.7202
    9MOL    H89 3145   5.586   1.998   4.090 -2.9381  0.2179  2.5716
    9MOL    H90 3146   5.763   2.250   4.093 -0.1392 -1.5146  3.1152
    9MOL    H91 3147   5.652   2.190   3.965 -0.2832 -0.9480 -1.3399
    9MOL    H92 3148   5.895   2.031   4.062  0.2668 -1.2287 -1.5377
    9MOL    H93 3149   5.779   1.987   3.941 -1.4492  0.1007  0.6144
    9MOL    H94 3150   5.991   2.094   3.849 -0.4098 -2.6453  1.3406
    9MOL    H95 3151   5.959   2.235   3.953 -0.9556 -0.7456  1.0854
    9MOL    H96 3152   5.852   2.196   3.818  1.1459  1.1407 -0.8742
    9MOL    C97 3153   5.494   2.386   4.299 -0.0085 -0.2934  0.6788
    9MOL    C98 3154   5.569   2.512   4.242  0.0712 -0.4913  0.3232
    9MOL    C99 3155   5.478   2.632   4.215  0.2868  0.1843  0.4635
    9MOL   C100 3156   5.539   2.743   4.129  0.4137  0.2796 -0.1752
    9MOL   C101 3157   5.469   2.881   4.134 -0.4749 -0.1746 -0.1378
    9MOL   C102 3158   5.329   2.879   4.076  0.3752  0.1506 -0.2536
    9MOL   O103 3159   5.670   2.565   4.331 -0.0311 -0.4755 -0.9289
    9MOL   H104 3160   5.486   2.398   4.407 -0.9319 -1.2624  0.7216
    9MOL   H105 3161   5.390   2.389   4.267  0.3954 -0.4764 -0.7284
    9MOL   H106 3162   5.614   2.487   4.145 -1.5725 -1.6763 -0.1585
    9MOL   H107 3163   5.423   2.665   4.303 -1.9977 -0.7350 -0.5655
    9MOL   H108 3164   5.395   2.595   4.154  0.5031  0.0801  0.2277
    9MOL   H109 3165   5.552   2.719   4.023  0.4733  2.9415 -0.8152
    9MOL   H110 3166   5.643   2.762   4.154  0.2573 -2.5667  2.9894
    9MOL   H111 3167   5.529   2.949   4.074 -1.5035  0.4488 -0.4693
    9MOL   H112 3168   5.467   2.925   4.234  0.2497 -0.2046 -0.1061
    9MOL   H113 3169   5.294   2.981   4.093  2.9253  1.2021 -1.0840
    9MOL   H114 3170   5.332   2.848   3.972 -1.4052  0.9832 -0.5785
    9MOL   H115 3171   5.262   2.812   4.131  0.3147  0.0480 -0.4539
    9MOL   C116 3172   5.779   2.469   4.353  0.7839 -0.5340  0.6514
    9MOL   C117 3173   5.926   2.528   4.341  0.6816  0.3236 -0.3589
    9MOL   C118 3174   6.027   2.421   4.372  0.3765  0.5315  0.0327
    9MOL   C119 3175   6.055   2.333   4.252  0.2213  0.9212 -0.1618
    9MOL   C120 3176   6.173   2.238   4.280  0.1195 -0.9512 -0.0981
    9MOL   C121 3177   6.307   2.307   4.287 -0.3477  0.2138 -0.4633
    9MOL   O122 3178   5.943   2.636   4.425 -0.0035  0.2675  0.2637
    9MOL   H123 3179   5.769   2.423   4.452  2.0364  0.4590  1.2504
    9MOL   H124 3180   5.777   2.389   4.279 -3.5107 -0.9231  1.0513
    9MOL   H125 3181   5.945   2.570   4.242 -0.4718  1.1399 -0.2554
    9MOL   H126 3182   6.118   2.475   4.398 -1.3020  2.9854  0.9321
    9MOL   H127 3183   6.001   2.361   4.459  0.0948 -0.2431 -0.5795
    9MOL   H128 3184   6.079   2.388   4.161  0.5583  1.1001  0.0362
    9MOL   H129 3185   5.966   2.271   4.241  0.1666  0.8681  0.5997
    9MOL   H130 3186   6.150   2.203   4.381  0.9785  2.6282  1.3877
    9MOL   H131 3187   6.167   2.162   4.201 -0.2761 -1.9617  0.8844
    9MOL   H132 3188   6.387   2.233   4.300 -1.7443 -0.9597  1.8753
    9MOL   H133 3189   6.338   2.350   4.192  0.4679 -1.5957 -1.0452
    9MOL   H134 3190   6.317   2.393   4.353  0.4670  1.1896 -1.8200
    9MOL   C135 3191   5.862   2.748   4.402 -0.2854 -0.0196 -0.4252
    9MOL   C136 3192   5.937   2.873   4.443  0.0718 -0.1914  0.3423
    9MOL   C137 3193   5.850   2.996   4.478 -0.2893  0.2933  0.4607
    9MOL   C138 3194   5.766   3.059   4.366  0.0274  0.4245  0.2631
    9MOL   C139 3195   5.679   3.171   4.418  0.0249  0.1310  0.1257
    9MOL   C140 3196   5.630   3.259   4.293 -0.0313  0.6368 -0.4868
    9MOL   O141 3197   6.034   2.922   4.346 -0.0879 -0.2054  0.0331
    9MOL   H142 3198   5.849   2.756   4.295  1.4069  0.2283 -0.6247
    9MOL   H143 3199   5.767   2.734   4.453 -0.8048 -1.8334 -1.8409
    9MOL   H144 3200   5.984   2.854   4.539  1.0466  0.5309  0.0246
    9MOL   H145 3201   5.778   2.969   4.556 -1.4002 -0.0653 -0.6737
    9MOL   H146 3202   5.914   3.070   4.525 -0.5106  0.7249  0.0856
    9MOL   H147 3203   5.700   2.985   4.319  1.8884 -1.2413  0.2029
    9MOL   H148 3204   5.836   3.089   4.287 -1.6435 -0.3975 -1.5945
    9MOL   H149 3205   5.737   3.236   4.484 -0.9682  0.1664  0.9893
    9MOL   H150 3206   5.599   3.126   4.477  0.1270  1.3268  1.2180
    9MOL   H151 3207   5.556   3.334   4.323 -0.5733  0.5925 -1.6724
    9MOL   H152 3208   5.709   3.321   4.250 -0.3854  1.9887  0.7375
    9MOL   H153 3209   5.590   3.207   4.206 -0.4368  1.1004 -0.5852
    9MOL   C154 3210   6.164   2.862   4.333  0.9240  0.1737  0.1427
    9MOL   C155 3211   6.247   2.904   4.447  0.0145 -0.2207  0.1043
    9MOL   C156 3212   6.377   2.829   4.452 -1.1275 -0.6760  0.4194
    9MOL   C157 3213   6.366   2.675   4.483 -0.8323 -0.1083 -0.0734
    9MOL   C158 3214   6.501   2.607   4.497  0.0251 -0.0239 -0.4635
    9MOL   C159 3215   6.576   2.651   4.630  0.3119  0.3441  0.1174
    9MOL   O160 3216   6.288   3.036   4.429  0.1494  0.0158 -0.1330
    9MOL   H161 3217   6.214   2.874   4.237 -1.3093 -1.8582 -1.3582
    9MOL   H162 3218   6.145   2.755   4.341 -1.3323  0.5511  0.1275
    9MOL   H163 3219   6.195   2.888   4.542  0.5998  0.2108  0.4999
    9MOL   H164 3220   6.443   2.871   4.528 -0.3460 -2.8565  0.9797
    9MOL   H165 3221   6.428   2.834   4.356  0.3991  2.5050  1.3377
    9MOL   H166 3222   6.307   2.625   4.405 -1.5998  1.0515 -0.2485
    9MOL   H167 3223   6.303   2.658   4.570 -0.7075 -0.6348 -0.0843
    9MOL   H168 3224   6.487   2.499   4.504  0.7349 -0.0348  0.7712
    9MOL   H169 3225   6.567   2.632   4.414  1.4797  0.9860  0.9926
    9MOL   H170 3226   6.511   2.658   4.717 -0.6287  2.3925 -0.7109
    9MOL   H171 3227   6.634   2.743   4.617  3.1392 -1.3098  0.5963
    9MOL   H172 3228   6.650   2.571   4.643  0.7556  0.4849 -1.3758
    9MOL   C173 3229   6.261   3.130   4.533 -0.2706  0.4995 -0.4027
    9MOL   C174 3230   6.265   3.264   4.457  0.8893 -0.8364  0.1349
    9MOL   C175 3231   6.123   3.296   4.403 -0.2716  0.3858 -0.1163
    9MOL   C176 3232   6.102   3.422   4.300  0.1254  0.3298 -0.3556
    9MOL   C177 3233   5.968   3.426   4.223  0.1507  0.4899 -0.6860
    9MOL   C178 3234   5.981   3.506   4.097  0.7719 -0.0264 -0.1217
    9MOL   O179 3235   6.312   3.374   4.535  0.0515  0.0976 -0.1964
    9MOL   H180 3236   6.341   3.122   4.606 -0.4471  1.7157 -0.0709
    9MOL   H181 3237   6.166   3.119   4.585 -1.1300  0.3227 -1.9514
    9MOL   H182 3238   6.326   3.248   4.369 -1.5426 -2.7162 -1.2761
    9MOL   H183 3239   6.082   3.203   4.364 -2.5046  1.1728  0.2397
    9MOL   H184 3240   6.052   3.310   4.485  0.3281  1.8441  0.1641
    9MOL   H185 3241   6.129   3.517   4.346  1.0267  0.1408 -0.4747
    9MOL   H186 3242   6.178   3.394   4.227  2.3888  2.9046  0.9275
    9MOL   H187 3243   5.931   3.324   4.220  1.3176 -0.0977  2.4520
    9MOL   H188 3244   5.902   3.471   4.298  1.5778 -0.1298  0.9984
    9MOL   H189 3245   6.058   3.467   4.030  0.2756 -0.8251 -0.2330
    9MOL   H190 3246   6.000   3.609   4.127  2.5584 -1.2133  3.0415
    9MOL   H191 3247   5.877   3.505   4.062  0.9908  1.1498 -0.8421
    9MOL   C192 3248   6.453   3.388   4.541  0.0327  0.4554  0.0722
    9MOL   C193 3249   6.496   3.469   4.665 -0.5379 -0.0209 -0.6615
    9MOL   C194 3250   6.589   3.580   4.626  0.5463  0.4679 -0.1319
    9MOL   C195 3251   6.617   3.685   4.738 -0.1273 -0.6211  0.0203
    9MOL   C196 3252   6.669   3.823   4.689  0.1047  0.2832  0.5921
    9MOL   C197 3253   6.808   3.815   4.633  0.9848 -0.4058 -0.1698
    9MOL   O198 3254   6.543   3.388   4.776  0.0361  0.5337  0.0255
    9MOL   H199 3255   6.506   3.294   4.547 -2.7034 -1.1739 -0.3086
    9MOL   H200 3256   6.479   3.438   4.448  1.2106  2.5429  1.4569
    9MOL   H201 3257   6.404   3.520   4.695  0.2383 -0.3698  2.4455
    9MOL   H202 3258   6.674   3.532   4.576 -1.0815 -1.9783 -0.6683
    9MOL   H203 3259   6.539   3.628   4.542 -0.8295 -1.2800 -0.3408
    9MOL   H204 3260   6.683   3.650   4.819 -0.6993  1.4048  1.3987
    9MOL   H205 3261   6.518   3.702   4.780 -0.5514  0.0829 -1.2349
    9MOL   H206 3262   6.605   3.882   4.623 -0.5560  1.8309  2.5372
    9MOL   H207 3263   6.658   3.888   4.776  3.1513  0.8556  0.6072
    9MOL   H208 3264   6.808   3.745   4.550 -2.2727 -1.1597  0.3984
    9MOL   H209 3265   6.854   3.906   4.594  2.2539 -1.6002 -1.4940
    9MOL   H210 3266   6.879   3.762   4.696 -1.8241 -1.2387  2.3939
    9MOL   C211 3267   6.436   3.346   4.852  0.1708  1.1017  0.4602
    9MOL   C212 3268   6.483   3.243   4.947 -0.0326 -0.2788  1.2691
    9MOL   C213 3269   6.496   3.097   4.882 -0.3599 -0.5613  0.1017
    9MOL   C214 3270   6.567   3.006   4.981 -0.1883 -0.0517  1.1765
    9MOL   C215 3271   6.629   2.890   4.900 -0.1195 -0.0857  0.0168
    9MOL   C216 3272   6.696   2.800   4.999  0.3171  0.0466  0.1451
    9MOL   O217 3273   6.394   3.233   5.061 -0.7905  0.0571 -0.3306
    9MOL   H218 3274   6.352   3.300   4.798  0.7309 -0.2644  0.7307
    9MOL   H219 3275   6.398   3.434   4.903 -0.5578 -0.6077  2.9569
    9MOL   H220 3276   6.584   3.262   4.983  2.0118 -0.9333 -3.6314
    9MOL   H221 3277   6.397   3.062   4.853 -1.2135 -0.3951  2.6720
    9MOL   H222 3278   6.550   3.104   4.788 -0.0402  2.9375  0.4925
    9MOL   H223 3279   6.630   3.064   5.048  1.3608 -2.2603  1.6899
    9MOL   H224 3280   6.496   2.960   5.050 -1.1860 -1.8304 -0.9455
    9MOL   H225 3281   6.553   2.841   4.840  0.6382 -2.4257  0.9282
    9MOL   H226 3282   6.703   2.918   4.825  0.4602 -1.1386  0.1809
    9MOL   H227 3283   6.739   2.721   4.937  1.7568 -0.3857  1.6619
    9MOL   H228 3284   6.633   2.746   5.070 -0.3723  1.8328  0.9046
    9MOL   H229 3285   6.792   2.836   5.036  0.9578 -2.0323  0.5934
    9MOL   C230 3286   6.426   3.332   5.157 -0.3232  0.7390 -0.7383
    9MOL   C231 3287   6.289   3.371   5.226  0.2734  0.0365 -0.1652
    9MOL   C232 3288   6.286   3.520   5.261 -0.2294  0.0293  0.1412
    9MOL   C233 3289   6.152   3.573   5.330 -0.4550  0.4458  0.2574
    9MOL   C234 3290   6.162   3.713   5.387  0.2652  0.0034 -0.1537
    9MOL   C235 3291   6.258   3.730   5.504  0.0373  0.7662  0.6580
    9MOL   O236 3292   6.287   3.298   5.343 -0.3476  0.6630 -0.4561
    9MOL   H237 3293   6.496   3.303   5.235 -0.4198  1.1642 -0.4892
    9MOL   H238 3294   6.463   3.428   5.121 -0.9275  1.4063  0.3840
    9MOL   H239 3295   6.202   3.346   5.165 -0.6716 -1.2412  1.6662
    9MOL   H240 3296   6.318   3.570   5.170  0.5144  2.6223  1.7838
    9MOL   H241 3297   6.372   3.537   5.325 -1.5622  1.8171  1.5281
    9MOL   H242 3298   6.130   3.499   5.408 -1.8643 -2.5487 -2.8346
    9MOL   H243 3299   6.075   3.574   5.252  0.6726 -1.2780 -0.9217
    9MOL   H244 3300   6.168   3.789   5.309  2.0101 -2.4673 -2.5326
    9MOL   H245 3301   6.061   3.721   5.426  0.2838  0.6111 -0.2301
    9MOL   H246 3302   6.236   3.827   5.549  0.6015  0.7401  0.9956
    9MOL   H247 3303   6.363   3.720   5.478 -0.3441 -0.2854 -0.4757
    9MOL   H248 3304   6.263   3.649   5.577 -1.1752 -0.9136 -1.0751
    9MOL   C249 3305   6.176   3.206   5.355 -0.5310 -0.5264  0.2205
    9MOL   C250 3306   6.184   3.113   5.479 -0.1438  0.0053  0.0869
    9MOL   C251 3307   6.209   3.184   5.616  0.0214 -0.0029  0.5545
    9MOL   C252 3308   6.108   3.282   5.674 -0.0320 -0.2313  0.3932
    9MOL   C253 3309   6.004   3.223   5.763 -0.3099 -0.0655  0.1053
    9MOL   C254 3310   5.925   3.320   5.855 -0.7276 -0.5390 -0.1660
    9MOL   O255 3311   6.273   2.996   5.457  0.2343  0.4195 -0.3447
    9MOL   H256 3312   6.082   3.260   5.359  0.8467  1.9357  0.2342
    9MOL   H257 3313   6.173   3.140   5.268 -3.2421 -0.4064  0.1788
    9MOL   H258 3314   6.083   3.073   5.489 -0.8257  1.5976 -0.3043
    9MOL   H259 3315   6.218   3.106   5.692  1.1640  1.5976  2.0897
    9MOL   H260 3316   6.300   3.242   5.606 -0.5349  0.3642 -2.8550
    9MOL   H261 3317   6.161   3.354   5.736 -1.4063  0.2245  1.0577
    9MOL   H262 3318   6.057   3.346   5.602  0.4671  0.5681  0.7423
    9MOL   H263 3319   5.929   3.171   5.704 -0.6006  0.6768 -0.1763
    9MOL   H264 3320   6.039   3.137   5.821 -0.9827 -1.1441 -1.0743
    9MOL   H265 3321   5.844   3.271   5.908  1.2806 -2.5311  1.1702
    9MOL   H266 3322   5.888   3.404   5.796 -0.3308 -0.3109 -0.0939
    9MOL   H267 3323   5.982   3.374   5.931 -0.1343 -0.3507 -0.7419
    9MOL   C268 3324   6.413   3.016   5.416 -0.0954  0.1840 -0.0387
    9MOL   C269 3325   6.490   2.881   5.415  0.0258 -0.5219  0.3484
    9MOL   C270 3326   6.638   2.900   5.405 -0.1632 -0.1659 -0.5475
    9MOL   C271 3327   6.713   2.766   5.436  0.2083 -0.6245 -0.0290
    9MOL   C272 3328   6.858   2.773   5.388 -0.4298  0.8335 -0.1405
    9MOL   C273 3329   6.932   2.644   5.397 -0.1355 -0.4855  0.2659
    9MOL   O274 3330   6.470   2.817   5.288 -0.0356 -0.3906  0.3722
    9MOL   H275 3331   6.464   3.100   5.463 -2.0906  0.1551  2.3308
    9MOL   H276 3332   6.413   3.049   5.313 -0.3513 -2.2981 -0.8729
    9MOL   H277 3333   6.468   2.817   5.500  1.0217 -0.0915  0.9448
    9MOL   H278 3334   6.660   2.928   5.302 -3.1020  0.7670 -0.9780
    9MOL   H279 3335   6.686   2.971   5.474  1.4366  0.4132 -2.2186
    9MOL   H280 3336   6.708   2.741   5.542 -1.0310 -0.5438 -0.0604
    9MOL   H281 3337   6.664   2.679   5.394 -0.2465 -0.4036  0.0389
    9MOL   H282 3338   6.857   2.802   5.283  1.4820  0.5135 -0.2469
    9MOL   H283 3339   6.920   2.850   5.433  0.5500  0.1691 -0.3587
    9MOL   H284 3340   6.914   2.616   5.501 -2.7303  0.0936 -0.0014
    9MOL   H285 3341   6.896   2.561   5.337  0.7017 -1.2998  0.8809
    9MOL   H286 3342   7.039   2.658   5.383 -0.1589 -1.7010 -1.1738
    9MOL   C287 3343   6.342   2.742   5.273 -0.1356 -0.2806 -0.1226
    9MOL   C288 3344   6.347   2.591   5.302 -0.2012  0.6773 -0.6396
    9MOL   C289 3345   6.351   2.558   5.454  0.0543  0.0572 -0.0066
    9MOL   C290 3346   6.339   2.408   5.473 -0.3666 -0.1848  0.2799
    9MOL   C291 3347   6.325   2.349   5.615  0.0497  0.1919  0.0860
    9MOL   C292 3348   6.464   2.359   5.684 -0.3293  0.2629 -0.1882
    9MOL   O293 3349   6.455   2.525   5.244  0.2606  0.5570  0.2656
    9MOL   H294 3350   6.299   2.744   5.173  0.1841 -1.0790 -0.2794
    9MOL   H295 3351   6.272   2.793   5.340 -0.4261 -1.8599  0.8040
    9MOL   H296 3352   6.259   2.538   5.264  0.2912 -0.7672  0.1862
    9MOL   H297 3353   6.451   2.586   5.487 -0.0631  1.7997 -1.0937
    9MOL   H298 3354   6.275   2.623   5.497  2.0706  1.7312  1.1571
    9MOL   H299 3355   6.257   2.379   5.408 -0.7212  0.6837  0.3260
    9MOL   H300 3356   6.414   2.352   5.418 -1.0525  0.4474 -1.3346
    9MOL   H301 3357   6.292   2.246   5.601 -1.5191  0.6310  0.4470
    9MOL   H302 3358   6.257   2.395   5.687  0.6263 -0.3677  1.0183
    9MOL   H303 3359   6.464   2.313   5.783 -0.4874 -2.3547 -1.3477
    9MOL   H304 3360   6.539   2.306   5.625  1.3595  0.8850  1.3432
    9MOL   H305 3361   6.498   2.462   5.692  2.1488 -0.5394  0.0424
    9MOL   C306 3362   6.459   2.514   5.105  0.1350 -0.7357  0.0856
    9MOL   C307 3363   6.565   2.408   5.061  0.9204 -1.0414 -0.1778
    9MOL   C308 3364   6.572   2.405   4.903 -0.0708  0.6090  0.4652
    9MOL   C309 3365   6.644   2.291   4.842  0.5278  0.5427  0.4244
    9MOL   C310 3366   6.616   2.277   4.696  0.2543 -0.1120  0.8616
    9MOL   C311 3367   6.699   2.164   4.629  0.2965 -0.1550 -0.6729
    9MOL   O312 3368   6.501   2.285   5.098 -0.3490 -0.4129  0.8629
    9MOL   H313 3369   6.358   2.498   5.068 -0.2291 -2.4987  1.7290
    9MOL   H314 3370   6.485   2.608   5.056  0.5683 -0.1321  1.4353
    9MOL   H315 3371   6.664   2.428   5.101  1.9679  0.1712 -3.2615
    9MOL   H316 3372   6.611   2.499   4.862 -3.7988  1.2389 -1.9552
    9MOL   H317 3373   6.469   2.399   4.867 -0.3635 -0.7421  1.4954
    9MOL   H318 3374   6.751   2.314   4.847  0.4266  0.8998  1.0103
    9MOL   H319 3375   6.630   2.194   4.889  1.6674  0.2327  0.1449
    9MOL   H320 3376   6.626   2.372   4.644 -0.3150 -1.1327 -1.1603
    9MOL   H321 3377   6.511   2.248   4.689  0.2658  0.3526 -1.6413
    9MOL   H322 3378   6.692   2.064   4.671  0.6784 -0.2657 -0.8764
    9MOL   H323 3379   6.667   2.157   4.525 -0.1723 -0.4350 -0.5111
    9MOL   H324 3380   6.805   2.187   4.632  0.8715 -2.9018  2.3620
    9MOL   C325 3381   6.578   2.201   5.191  0.1942  0.8797 -0.1711
    9MOL   C326 3382   6.481   2.101   5.261  0.3034  0.4811 -0.4290
    9MOL   C327 3383   6.541   2.053   5.398  0.1149 -0.3678 -0.1991
    9MOL   C328 3384   6.439   1.975   5.479 -1.3054 -0.7577  0.0772
    9MOL   C329 3385   6.469   1.973   5.634 -0.0214 -0.2470  0.2820
    9MOL   C330 3386   6.356   1.895   5.693  0.1844  0.2957 -0.5190
    9MOL   O331 3387   6.460   1.985   5.181 -0.1808  0.3271  0.1871
    9MOL   H332 3388   6.612   2.271   5.267  0.2460  0.3946  0.2573
    9MOL   H333 3389   6.658   2.152   5.135 -0.8183  0.0759 -0.9367
    9MOL   H334 3390   6.384   2.141   5.291  0.9122 -0.2514  2.6588
    9MOL   H335 3391   6.635   2.000   5.386  0.6224  0.5246 -0.2173
    9MOL   H336 3392   6.572   2.144   5.450  1.0425 -0.4119 -0.6631
    9MOL   H337 3393   6.341   2.019   5.466 -0.9595 -1.0164 -4.1347
    9MOL   H338 3394   6.408   1.883   5.428  0.3691 -1.6618  0.6292
    9MOL   H339 3395   6.564   1.921   5.641 -0.3610 -0.8540  0.4712
    9MOL   H340 3396   6.481   2.076   5.668  2.5643 -0.5111  0.2411
    9MOL   H341 3397   6.268   1.959   5.691  0.6416  1.0801  2.1140
    9MOL   H342 3398   6.329   1.798   5.652 -1.5238  0.2952  0.5710
    9MOL   H343 3399   6.393   1.876   5.794 -0.9602  1.5657  0.1474
    9MOL   C344 3400   6.347   1.988   5.092  0.1133  0.4810  0.6923
    9MOL   C345 3401   6.366   1.870   4.992  0.4630  0.1302 -0.4272
    9MOL   C346 3402   6.299   1.745   5.056 -0.2162 -0.0368 -0.0886
    9MOL   C347 3403   6.304   1.618   4.970  0.0989 -0.7042  0.6022
    9MOL   C348 3404   6.228   1.502   5.039  0.8082 -0.7283  0.1377
    9MOL   C349 3405   6.200   1.381   4.949 -0.3972  0.1850  0.3696
    9MOL   O350 3406   6.293   1.888   4.864  0.4317 -0.3070  0.0698
    9MOL   H351 3407   6.344   2.087   5.048 -0.8355  0.2583  0.2321
    9MOL   H352 3408   6.259   1.977   5.155 -1.6922 -1.9990 -2.0937
    9MOL   H353 3409   6.473   1.847   4.993  0.6846  1.1829  1.2324
    9MOL   H354 3410   6.194   1.769   5.070 -0.8445 -1.0376 -2.7739
    9MOL   H355 3411   6.342   1.717   5.153 -0.4782 -2.0663 -0.5329
    9MOL   H356 3412   6.405   1.582   4.951  0.3489 -0.1016  0.7659
    9MOL   H357 3413   6.266   1.637   4.870  2.0200 -0.5939 -0.1412
    9MOL   H358 3414   6.135   1.538   5.084  0.7575  1.7330 -1.8046
    9MOL   H359 3415   6.291   1.469   5.121 -2.3762 -1.4149  2.3891
    9MOL   H360 3416   6.155   1.414   4.856 -1.1501  0.7719  0.9421
    9MOL   H361 3417   6.140   1.321   5.018  1.1158 -0.1422  1.4318
    9MOL   H362 3418   6.290   1.325   4.923  1.0065  1.7765  1.6723
    9MOL   C363 3419   6.367   1.978   4.777 -0.3464 -0.0749 -0.4139
    9MOL   C364 3420   6.321   1.949   4.631 -0.4426 -0.3590 -0.1836
    9MOL   C365 3421   6.169   1.963   4.612 -0.4545  0.9307  0.2654
    9MOL   C366 3422   6.121   1.900   4.480  0.5336  0.2040  0.9103
    9MOL   C367 3423   5.982   1.947   4.449  0.3204  0.3568 -0.4232
    9MOL   C368 3424   5.926   1.895   4.317  0.2764  0.1834 -0.6808
    9MOL   O369 3425   6.378   2.046   4.552  0.6678 -0.3516 -0.5215
    9MOL   H370 3426   6.474   1.961   4.786 -0.2318 -2.1162 -4.3297
    9MOL   H371 3427   6.359   2.084   4.803 -0.4521  0.5177 -2.6903
    9MOL   H372 3428   6.345   1.846   4.603  0.2438 -0.1418 -0.4099
    9MOL   H373 3429   6.119   1.925   4.700  1.3605 -0.4346  0.7201
    9MOL   H374 3430   6.136   2.067   4.603 -0.7296  0.6874 -1.7565
    9MOL   H375 3431   6.188   1.910   4.394 -0.6980 -1.7960 -0.3240
    9MOL   H376 3432   6.101   1.793   4.491 -0.0879  0.3071  0.7669
    9MOL   H377 3433   5.913   1.922   4.529  2.9656 -0.4571  1.6622
    9MOL   H378 3434   5.981   2.055   4.435 -2.5872  0.4165 -0.1093
    9MOL   H379 3435   5.823   1.932   4.318  0.4112  0.5502 -0.4658
    9MOL   H380 3436   5.986   1.911   4.228  0.4493  1.0554 -0.4108
    9MOL   H381 3437   5.922   1.786   4.325  0.0415  0.2495  0.1880
    9MOL   H382 3438   6.388   2.006   4.467  0.6082  0.1262 -0.7520
   10MOL     C1 3439   2.953   2.448   4.268 -0.2054  0.7046  0.4283
   10MOL     C2 3440   3.008   2.436   4.129 -0.2949 -0.5460  0.1447
   10MOL     C3 3441   2.911   2.369   4.035 -0.9969  0.6122 -0.4754
   10MOL     C4 3442   2.810   2.468   3.974  0.0942  0.7044  0.3054
   10MOL     C5 3443   2.705   2.389   3.885  0.1701  0.1165 -0.7557
   10MOL     C6 3444   2.628   2.482   3.785  0.3496  0.1761 -0.5395
   10MOL     O7 3445   3.050   2.559   4.081  0.0153 -0.7679 -0.2726
   10MOL     H8 3446   2.893   2.538   4.251  0.5300  0.9344 -0.9829
   10MOL     H9 3447   3.028   2.460   4.346  0.5182 -0.5922 -0.0367
   10MOL    H10 3448   3.085   2.359   4.134  0.5295  0.2611  0.1247
   10MOL    H11 3449   2.965   2.310   3.960 -0.4225 -0.3497  0.6812
   10MOL    H12 3450   2.863   2.286   4.087  0.2658  0.6157  0.7033
   10MOL    H13 3451   2.766   2.526   4.055 -0.3511  1.9276 -0.7998
   10MOL    H14 3452   2.862   2.542   3.914  0.1369  1.5362  1.3448
   10MOL    H15 3453   2.759   2.315   3.826  1.3079  1.0124 -0.8529
   10MOL    H16 3454   2.634   2.333   3.947  0.3200  0.1416 -0.5631
   10MOL    H17 3455   2.578   2.559   3.845 -2.9015 -3.9976  2.3689
   10MOL    H18 3456   2.709   2.525   3.726 -0.5726  0.2991 -1.7359
   10MOL    H19 3457   2.549   2.436   3.727 -0.6037  0.9968  0.0767
   10MOL    H20 3458   2.893   2.361   4.296 -0.6554  1.1498  0.8384
   10MOL    C21 3459   3.190   2.586   4.121  0.0209 -0.2420  0.3200
   10MOL    C22 3460   3.235   2.722   4.070  0.4851  0.1466 -0.5225
   10MOL    C23 3461   3.348   2.793   4.139 -0.1191  0.3707  0.5313
   10MOL    C24 3462   3.380   2.937   4.081 -0.4465 -0.2589  0.5093
   10MOL    C25 3463   3.479   3.010   4.174  0.7683  0.0652 -0.1323
   10MOL    C26 3464   3.520   3.148   4.113  0.4409  0.3755 -0.1172
   10MOL    O27 3465   3.286   2.706   3.940  0.2213 -0.0897  0.4214
   10MOL    H28 3466   3.200   2.573   4.229  1.2007 -3.8689 -0.1542
   10MOL    H29 3467   3.251   2.508   4.076 -0.6375 -0.0398 -0.9520
   10MOL    H30 3468   3.149   2.789   4.063  1.2952  0.9444 -3.3377
   10MOL    H31 3469   3.440   2.735   4.138 -0.2998  0.0520  1.6106
   10MOL    H32 3470   3.330   2.784   4.246 -1.2349 -1.4549  0.2010
   10MOL    H33 3471   3.288   2.987   4.053 -1.3779 -2.7087 -0.9354
   10MOL    H34 3472   3.436   2.919   3.989 -0.8258  1.9836 -0.1909
   10MOL    H35 3473   3.428   3.021   4.270  1.4378  1.0804  0.1108
   10MOL    H36 3474   3.563   2.943   4.195 -0.9271 -2.2213 -0.4106
   10MOL    H37 3475   3.556   3.222   4.184  2.7086 -1.6444  0.8819
   10MOL    H38 3476   3.428   3.186   4.068  0.4173 -0.9188 -1.1808
   10MOL    H39 3477   3.598   3.141   4.037  0.2686 -1.8672 -0.1247
   10MOL    C40 3478   3.207   2.624   3.843  0.4834 -0.0901 -0.0963
   10MOL    C41 3479   3.261   2.637   3.698  0.3319 -0.0094  0.2893
   10MOL    C42 3480   3.150   2.625   3.593  0.6672 -0.1455  0.3338
   10MOL    C43 3481   3.058   2.496   3.603 -0.6276  0.5350 -0.3669
   10MOL    C44 3482   2.951   2.495   3.495  0.5811 -0.2180  0.2991
   10MOL    C45 3483   2.874   2.363   3.490 -0.1522 -0.2674 -0.3067
   10MOL    O46 3484   3.343   2.526   3.665 -0.0846  0.9046  0.2754
   10MOL    H47 3485   3.108   2.669   3.854  0.4975  0.5366 -2.3111
   10MOL    H48 3486   3.211   2.518   3.868  3.2327  0.1699  0.7626
   10MOL    H49 3487   3.303   2.737   3.689 -1.3549  0.7321  0.4358
   10MOL    H50 3488   3.077   2.706   3.601 -0.3239 -0.5529 -3.5488
   10MOL    H51 3489   3.192   2.634   3.493 -1.6685  1.7798 -0.5219
   10MOL    H52 3490   3.009   2.488   3.700 -0.6683  1.2536 -0.3263
   10MOL    H53 3491   3.126   2.417   3.572  1.7129  2.5741 -0.6405
   10MOL    H54 3492   2.876   2.573   3.511  1.5313  1.3265 -2.4282
   10MOL    H55 3493   2.996   2.511   3.398 -0.8447  1.2403 -0.1531
   10MOL    H56 3494   2.788   2.361   3.424 -0.7947  0.4884  0.4984
   10MOL    H57 3495   2.948   2.288   3.459  1.0412 -0.7202  3.3412
   10MOL    H58 3496   2.840   2.334   3.589  1.3756  0.3419  0.4237
   10MOL    C59 3497   3.450   2.553   3.574  0.3558  0.5509  0.1643
   10MOL    C60 3498   3.568   2.461   3.602 -1.2691  0.3686  0.0545
   10MOL    C61 3499   3.646   2.451   3.472 -0.5104 -0.3082 -0.8108
   10MOL    C62 3500   3.774   2.364   3.481  1.0691 -0.0705  0.2846
   10MOL    C63 3501   3.898   2.435   3.524 -0.1499 -0.7064  0.6529
   10MOL    C64 3502   4.018   2.345   3.545  0.8885  0.8057 -0.3909
   10MOL    O65 3503   3.651   2.513   3.712 -0.0449 -0.7674 -0.3763
   10MOL    H66 3504   3.496   2.651   3.583 -1.4600  1.6582 -2.1141
   10MOL    H67 3505   3.412   2.551   3.472 -0.8472  0.0348  0.6117
   10MOL    H68 3506   3.535   2.358   3.615 -0.4595  0.3495  2.1244
   10MOL    H69 3507   3.668   2.550   3.432  2.4742 -0.4112  0.4861
   10MOL    H70 3508   3.584   2.404   3.394 -1.7164  0.8923 -0.6049
   10MOL    H71 3509   3.798   2.307   3.392 -1.1197 -0.3511 -0.1731
   10MOL    H72 3510   3.763   2.280   3.549  1.0471 -0.3076 -0.0128
   10MOL    H73 3511   3.880   2.498   3.610 -0.5968 -1.4104  1.0761
   10MOL    H74 3512   3.939   2.503   3.449 -1.1620 -1.6523 -0.7903
   10MOL    H75 3513   3.988   2.260   3.608  0.4973  0.3017 -1.2541
   10MOL    H76 3514   4.063   2.291   3.462  2.3315  1.4629 -0.0510
   10MOL    H77 3515   4.095   2.395   3.603 -1.3374  3.0344  0.7086
   10MOL    C78 3516   3.591   2.495   3.840 -0.7966  0.2631 -0.9495
   10MOL    C79 3517   3.698   2.510   3.953  0.8516 -0.3885  0.0863
   10MOL    C80 3518   3.622   2.490   4.089 -0.2487 -0.1085  0.3248
   10MOL    C81 3519   3.716   2.474   4.211 -0.1913 -0.0153  0.2773
   10MOL    C82 3520   3.656   2.508   4.346 -0.2046  0.8552  0.1067
   10MOL    C83 3521   3.620   2.658   4.377  0.8979  0.0185  0.3769
   10MOL    O84 3522   3.754   2.641   3.951  0.3433 -0.7334 -0.1719
   10MOL    H85 3523   3.548   2.395   3.851 -1.9348  0.7452 -0.9290
   10MOL    H86 3524   3.513   2.570   3.852 -0.9273  0.0156 -0.1980
   10MOL    H87 3525   3.775   2.435   3.934  1.1947  0.0794 -0.3761
   10MOL    H88 3526   3.572   2.585   4.108  2.8830  1.8434 -0.7539
   10MOL    H89 3527   3.561   2.400   4.089  1.1253 -1.1364 -3.3709
   10MOL    H90 3528   3.805   2.534   4.193 -0.3165  0.2814  0.6429
   10MOL    H91 3529   3.749   2.371   4.203  4.2995  1.4352 -1.2150
   10MOL    H92 3530   3.569   2.443   4.351 -0.2546  1.0664  2.9479
   10MOL    H93 3531   3.725   2.473   4.422 -0.8638 -0.3853  0.1501
   10MOL    H94 3532   3.535   2.680   4.313  1.3955 -0.6815 -0.5261
   10MOL    H95 3533   3.685   2.738   4.343  1.4603 -1.3498 -1.8341
   10MOL    H96 3534   3.617   2.669   4.486 -1.3884  2.0132  0.1398
   10MOL    C97 3535   3.864   2.664   3.873  0.1365 -0.6234  0.0188
   10MOL    C98 3536   3.948   2.774   3.931  0.3892  0.8580  0.1587
   10MOL    C99 3537   4.017   2.734   4.062 -0.6186  0.5442 -0.5609
   10MOL   C100 3538   4.113   2.610   4.060  0.1137 -0.0223 -0.1173
   10MOL   C101 3539   4.207   2.614   4.183 -0.4049  0.0068 -0.4693
   10MOL   C102 3540   4.321   2.503   4.186  0.0228  0.4529  0.5955
   10MOL   O103 3541   4.050   2.799   3.830  0.6953 -0.1001  0.3310
   10MOL   H104 3542   3.818   2.694   3.779 -0.5902 -3.8513 -0.7252
   10MOL   H105 3543   3.921   2.573   3.854 -0.1357 -0.9681  0.8050
   10MOL   H106 3544   3.898   2.869   3.948 -0.2426  0.1089  2.7001
   10MOL   H107 3545   3.944   2.708   4.138  0.6804 -0.3397  0.4042
   10MOL   H108 3546   4.063   2.827   4.096 -2.5362  1.4788 -0.4381
   10MOL   H109 3547   4.183   2.614   3.977  0.7379 -0.4230  0.3851
   10MOL   H110 3548   4.060   2.516   4.050  1.1753 -0.5532 -0.7984
   10MOL   H111 3549   4.152   2.602   4.277  0.6469 -1.4813 -0.0151
   10MOL   H112 3550   4.252   2.714   4.188  1.3674 -0.8546  3.1184
   10MOL   H113 3551   4.389   2.525   4.268  0.1753  0.5621  0.4384
   10MOL   H114 3552   4.284   2.402   4.204 -2.0078  0.7685 -1.5709
   10MOL   H115 3553   4.373   2.495   4.091 -2.5574  1.1989 -0.9396
   10MOL   C116 3554   4.106   2.927   3.825 -0.7698  0.7106 -0.1614
   10MOL   C117 3555   4.201   2.906   3.711 -0.6429 -0.0098  0.1920
   10MOL   C118 3556   4.328   2.993   3.728 -0.5674  0.1241 -0.0608
   10MOL   C119 3557   4.304   3.148   3.712  0.2171 -0.7841  0.5648
   10MOL   C120 3558   4.435   3.232   3.697 -0.3565 -0.7134 -0.3555
   10MOL   C121 3559   4.504   3.198   3.560  0.0204 -1.1340 -0.3051
   10MOL   O122 3560   4.127   2.954   3.590 -0.3432 -0.1416 -0.3238
   10MOL   H123 3561   4.031   3.003   3.804 -2.0686 -0.7733 -1.0152
   10MOL   H124 3562   4.163   2.944   3.916 -0.6833 -2.8401  0.5391
   10MOL   H125 3563   4.233   2.802   3.709 -0.0194  0.1744 -3.0213
   10MOL   H126 3564   4.387   2.969   3.816  2.9112  1.0762 -2.0508
   10MOL   H127 3565   4.388   2.969   3.641 -0.7836  1.2348 -0.5310
   10MOL   H128 3566   4.242   3.171   3.799 -1.3773 -0.2469 -0.6902
   10MOL   H129 3567   4.241   3.169   3.625  0.3182 -0.1369  0.6491
   10MOL   H130 3568   4.408   3.338   3.701 -0.2130 -0.7497  2.4784
   10MOL   H131 3569   4.508   3.227   3.778 -0.0774  0.2075 -0.5439
   10MOL   H132 3570   4.436   3.195   3.475 -1.1305 -0.8946  0.5839
   10MOL   H133 3571   4.590   3.260   3.537  0.6156 -1.8385  0.0244
   10MOL   H134 3572   4.542   3.096   3.559 -0.0719 -1.1716  0.1100
   10MOL   C135 3573   4.060   2.857   3.524 -0.0348  0.0447  0.4776
   10MOL   C136 3574   4.041   2.896   3.378 -0.3860  0.6168 -0.8255
   10MOL   C137 3575   3.929   2.812   3.314 -0.3927 -0.3673 -0.5477
   10MOL   C138 3576   3.929   2.802   3.157  0.1665 -0.8869 -0.2966
   10MOL   C139 3577   3.796   2.733   3.111  0.1854  0.5688  0.1333
   10MOL   C140 3578   3.806   2.698   2.962 -0.0004 -0.5233  0.3973
   10MOL   O141 3579   4.146   2.873   3.287  0.1426 -0.5537  0.5200
   10MOL   H142 3580   4.086   2.753   3.541 -2.1871 -0.5936 -0.0051
   10MOL   H143 3581   3.964   2.861   3.575  0.4385  0.2122  1.3648
   10MOL   H144 3582   4.005   2.999   3.369 -0.1797  0.7326 -0.3298
   10MOL   H145 3583   3.930   2.707   3.343 -1.4640 -0.0430  0.7041
   10MOL   H146 3584   3.832   2.850   3.347 -0.1214 -1.6074  1.8114
   10MOL   H147 3585   4.014   2.752   3.110 -0.0010 -1.8990  0.4618
   10MOL   H148 3586   3.929   2.902   3.113 -1.9045 -1.0001 -0.6059
   10MOL   H149 3587   3.711   2.802   3.121 -1.7275 -1.5782 -0.7688
   10MOL   H150 3588   3.767   2.646   3.170 -1.4609  0.2536 -1.0941
   10MOL   H151 3589   3.837   2.784   2.902  0.3422 -2.3609 -2.1053
   10MOL   H152 3590   3.889   2.628   2.959  0.6431  0.1159  2.0447
   10MOL   H153 3591   3.721   2.652   2.913 -0.2425  1.4199 -1.0701
   10MOL   C154 3592   4.263   2.940   3.329 -0.2042 -0.2705 -0.0767
   10MOL   C155 3593   4.351   2.970   3.204  0.0279  0.0486  0.1847
   10MOL   C156 3594   4.386   2.833   3.142  0.7040  0.0088  0.2795
   10MOL   C157 3595   4.488   2.832   3.032 -0.1347  0.1269  0.2045
   10MOL   C158 3596   4.633   2.860   3.083 -0.1171  0.5303 -0.1681
   10MOL   C159 3597   4.743   2.859   2.975  0.4268  0.1593  0.7830
   10MOL   O160 3598   4.272   3.050   3.114 -0.2910 -0.4858 -0.1533
   10MOL   H161 3599   4.318   2.884   3.404 -2.0330 -1.3601  0.4891
   10MOL   H162 3600   4.248   3.043   3.362  1.9743 -0.0373  0.2435
   10MOL   H163 3601   4.437   3.027   3.239  2.2953 -1.5606 -2.5612
   10MOL   H164 3602   4.299   2.780   3.103 -0.4672  2.4981 -0.5288
   10MOL   H165 3603   4.419   2.770   3.225  3.1045  0.6337 -0.1555
   10MOL   H166 3604   4.455   2.911   2.965  1.5853  1.0841  0.4455
   10MOL   H167 3605   4.491   2.740   2.974  0.9885  0.2765  0.0223
   10MOL   H168 3606   4.619   2.951   3.141  2.5133  0.9412 -0.1028
   10MOL   H169 3607   4.650   2.773   3.147 -2.9506  1.5257  2.0475
   10MOL   H170 3608   4.718   2.951   2.924  1.9892 -0.4265 -1.1156
   10MOL   H171 3609   4.734   2.774   2.907 -0.0019 -0.3320  1.4435
   10MOL   H172 3610   4.849   2.865   3.001  0.0334 -0.6597  2.6607
   10MOL   C173 3611   4.319   3.177   3.080  0.0430 -0.3095 -0.1291
   10MOL   C174 3612   4.282   3.292   3.178  0.5715  0.3647 -0.1623
   10MOL   C175 3613   4.357   3.420   3.155  0.0140 -0.6939 -0.1486
   10MOL   C176 3614   4.352   3.516   3.273 -0.2702  0.4372 -0.2488
   10MOL   C177 3615   4.478   3.501   3.358 -0.1139  0.2097  0.1141
   10MOL   C178 3616   4.601   3.570   3.306 -0.4249 -0.0424 -0.7300
   10MOL   O179 3617   4.146   3.338   3.153 -0.1680 -0.4296 -0.5946
   10MOL   H180 3618   4.287   3.203   2.979 -1.1145 -1.0261  0.0420
   10MOL   H181 3619   4.428   3.174   3.071  0.0656  0.6085 -0.2204
   10MOL   H182 3620   4.286   3.247   3.277 -1.1077  0.5725  0.0133
   10MOL   H183 3621   4.460   3.396   3.129  0.3841 -0.2030  0.8338
   10MOL   H184 3622   4.303   3.466   3.073 -1.1596 -3.4914 -1.0156
   10MOL   H185 3623   4.331   3.617   3.237  0.9082  1.2327  1.2118
   10MOL   H186 3624   4.266   3.505   3.340  0.8547  2.2125  1.5709
   10MOL   H187 3625   4.470   3.545   3.458  0.5340 -0.2510  0.3701
   10MOL   H188 3626   4.504   3.397   3.377  0.1589  0.2436 -0.0712
   10MOL   H189 3627   4.687   3.556   3.371 -1.2802  1.1378  0.6852
   10MOL   H190 3628   4.594   3.678   3.295  0.4941  0.0962 -0.0071
   10MOL   H191 3629   4.630   3.525   3.211 -1.0998  3.5076 -2.7101
   10MOL   C192 3630   4.044   3.266   3.209 -0.7673 -0.4182  0.2914
   10MOL   C193 3631   3.908   3.307   3.144 -0.5091  0.6147 -0.0821
   10MOL   C194 3632   3.799   3.246   3.230  0.9344 -0.8179  0.3481
   10MOL   C195 3633   3.659   3.291   3.184  0.4977  0.6586  0.1385
   10MOL   C196 3634   3.553   3.234   3.282 -0.3654 -0.4439 -0.5857
   10MOL   C197 3635   3.517   3.089   3.252 -1.0766  0.3689 -0.3061
   10MOL   O198 3636   3.881   3.253   3.011  0.2864 -0.1608 -0.2047
   10MOL   H199 3637   4.069   3.161   3.193 -0.5130 -0.4532  0.9114
   10MOL   H200 3638   4.049   3.282   3.317  1.7129 -0.1981  0.1828
   10MOL   H201 3639   3.900   3.415   3.157  0.2861  0.8661 -1.6186
   10MOL   H202 3640   3.797   3.138   3.221  1.4991 -0.8761  0.8918
   10MOL   H203 3641   3.828   3.257   3.335  0.3073 -2.6834  0.7191
   10MOL   H204 3642   3.637   3.265   3.080  0.7478 -1.3784  0.5795
   10MOL   H205 3643   3.649   3.399   3.185 -1.3193  0.5395 -1.1726
   10MOL   H206 3644   3.575   3.256   3.387  0.3903 -2.8109 -0.2270
   10MOL   H207 3645   3.466   3.300   3.272  1.0296  1.8237  1.4660
   10MOL   H208 3646   3.592   3.019   3.288  1.6167  3.0380 -0.5055
   10MOL   H209 3647   3.433   3.070   3.320  0.0688  0.2104  1.0919
   10MOL   H210 3648   3.504   3.074   3.145  2.2260 -1.7874 -0.4669
   10MOL   C211 3649   3.958   3.310   2.912  0.1668  0.4972  0.1736
   10MOL   C212 3650   3.902   3.258   2.778 -0.3639 -1.0522  0.6168
   10MOL   C213 3651   3.749   3.297   2.743 -0.5631 -0.1126  0.3756
   10MOL   C214 3652   3.704   3.259   2.602 -0.1242 -0.9018 -0.2032
   10MOL   C215 3653   3.556   3.280   2.582 -0.0443 -0.4764 -0.0749
   10MOL   C216 3654   3.509   3.216   2.446  0.1176  0.1724  0.0061
   10MOL   O217 3655   3.933   3.112   2.760  0.0470  0.0654 -0.0953
   10MOL   H218 3656   4.061   3.278   2.928 -0.4826 -0.6261  2.2666
   10MOL   H219 3657   3.958   3.418   2.917  0.3521  0.5389 -0.6310
   10MOL   H220 3658   3.964   3.300   2.699  1.5504 -1.6802  1.7280
   10MOL   H221 3659   3.695   3.239   2.818 -0.8892 -1.0707 -0.5856
   10MOL   H222 3660   3.736   3.405   2.756 -1.6241 -0.3962  1.8082
   10MOL   H223 3661   3.764   3.320   2.535 -1.1336  1.6307  1.1542
   10MOL   H224 3662   3.726   3.156   2.574  1.8713 -1.2038  2.3150
   10MOL   H225 3663   3.506   3.237   2.669 -0.1872  1.9990  1.1018
   10MOL   H226 3664   3.547   3.388   2.572  0.3294 -0.3365  1.0533
   10MOL   H227 3665   3.413   3.262   2.421  0.9562  2.0303  0.1632
   10MOL   H228 3666   3.504   3.107   2.443  0.3707  0.1951 -1.3458
   10MOL   H229 3667   3.577   3.244   2.367  0.2134 -1.6970 -0.6032
   10MOL   C230 3668   4.065   3.063   2.761 -0.2953  0.0541  0.2272
   10MOL   C231 3669   4.071   2.918   2.701 -0.1963 -0.2650  0.1507
   10MOL   C232 3670   4.196   2.845   2.751 -0.5880  0.0767  0.0053
   10MOL   C233 3671   4.224   2.705   2.690  0.3460 -0.2717 -0.0219
   10MOL   C234 3672   4.109   2.601   2.692  0.0297  0.3125 -0.1140
   10MOL   C235 3673   4.149   2.482   2.603  0.0377 -0.1319 -0.3775
   10MOL   O236 3674   4.083   2.912   2.557 -0.3580 -0.5078 -0.1599
   10MOL   H237 3675   4.126   3.129   2.701  0.9765 -0.1497  1.2723
   10MOL   H238 3676   4.100   3.061   2.864 -2.0602  1.7777  0.8977
   10MOL   H239 3677   3.976   2.867   2.721  0.9534 -1.4298  2.9305
   10MOL   H240 3678   4.205   2.841   2.860 -0.8938  1.8918  0.1140
   10MOL   H241 3679   4.291   2.896   2.734 -0.7140  0.3306  0.0623
   10MOL   H242 3680   4.304   2.665   2.752  0.0043 -1.4315 -0.3246
   10MOL   H243 3681   4.260   2.716   2.587  0.4306  0.5175  0.0872
   10MOL   H244 3682   4.107   2.576   2.798  1.9881  2.2785  0.4300
   10MOL   H245 3683   4.012   2.639   2.660  1.2059  1.9253 -1.9004
   10MOL   H246 3684   4.172   2.529   2.508  0.2438  0.2424 -0.1418
   10MOL   H247 3685   4.068   2.408   2.600  1.5252 -1.7303 -3.4990
   10MOL   H248 3686   4.235   2.431   2.645 -0.5949 -1.0390 -0.1769
   10MOL   C249 3687   3.973   2.959   2.480  0.1633  0.3528  0.2522
   10MOL   C250 3688   4.003   2.958   2.329  0.3322  0.6718  0.0209
   10MOL   C251 3689   3.943   3.089   2.257 -0.2653  0.0444 -0.8459
   10MOL   C252 3690   3.991   3.112   2.113  0.4138  1.0560  0.5839
   10MOL   C253 3691   3.973   3.262   2.059  0.1792 -1.0489  0.7298
   10MOL   C254 3692   4.040   3.260   1.916 -0.2543  0.4193  0.4299
   10MOL   O255 3693   3.941   2.859   2.253 -0.0671  0.3257  0.2431
   10MOL   H256 3694   3.892   2.892   2.509  0.7558 -0.1495  0.7315
   10MOL   H257 3695   3.957   3.059   2.520  1.8240  0.5850  0.3751
   10MOL   H258 3696   4.109   2.949   2.307  0.1479  2.5968 -1.8755
   10MOL   H259 3697   3.835   3.084   2.255 -0.1755 -1.8662 -2.4383
   10MOL   H260 3698   3.972   3.172   2.322  3.4307 -0.3068 -1.9077
   10MOL   H261 3699   4.095   3.081   2.097  0.2271  0.8188 -0.1857
   10MOL   H262 3700   3.928   3.053   2.046  2.1431 -1.2742  0.9332
   10MOL   H263 3701   3.867   3.283   2.046  0.6897  0.8710 -0.4431
   10MOL   H264 3702   4.015   3.345   2.116 -0.6169  0.5143 -0.9459
   10MOL   H265 3703   4.033   3.359   1.872  0.1862  1.1074  1.8958
   10MOL   H266 3704   3.993   3.195   1.843 -0.3561  0.9226  0.0477
   10MOL   H267 3705   4.143   3.224   1.926 -0.1186  0.9265  0.8367
   10MOL   C268 3706   3.979   2.722   2.280 -0.7416 -0.2207  0.5619
   10MOL   C269 3707   3.907   2.625   2.181  0.2980 -0.0081  0.0326
   10MOL   C270 3708   3.924   2.473   2.222  0.5677  0.0650  0.7096
   10MOL   C271 3709   3.832   2.375   2.147 -0.0545 -0.1796  0.0701
   10MOL   C272 3710   3.821   2.235   2.214 -0.4341 -0.6850 -0.2663
   10MOL   C273 3711   3.741   2.135   2.127 -0.1498 -0.2810  0.5432
   10MOL   O274 3712   3.976   2.630   2.053 -0.3190 -0.1373  0.1067
   10MOL   H275 3713   3.971   2.682   2.381  0.9325 -0.9930  0.4037
   10MOL   H276 3714   4.084   2.714   2.253 -0.9102 -2.0126  0.3608
   10MOL   H277 3715   3.800   2.643   2.177  0.2178 -0.0785  1.5939
   10MOL   H278 3716   4.025   2.444   2.194  0.4539  0.5928 -0.2419
   10MOL   H279 3717   3.908   2.466   2.330 -0.9584 -0.5333  0.4616
   10MOL   H280 3718   3.732   2.415   2.129  0.7005  0.7859 -2.2728
   10MOL   H281 3719   3.880   2.344   2.054  0.3365  0.1179  0.1677
   10MOL   H282 3720   3.917   2.193   2.247 -0.9748 -1.9715 -0.2857
   10MOL   H283 3721   3.772   2.228   2.312 -2.3106 -3.0940 -1.3337
   10MOL   H284 3722   3.746   2.037   2.175  0.8549 -1.1411 -1.2678
   10MOL   H285 3723   3.634   2.154   2.116 -0.4988 -1.6554  1.3352
   10MOL   H286 3724   3.776   2.119   2.025 -1.0625 -0.7505  0.2942
   10MOL   C287 3725   3.902   2.696   1.950 -0.4130 -0.0826  1.3854
   10MOL   C288 3726   3.977   2.699   1.809  0.2739  0.5192 -0.0604
   10MOL   C289 3727   4.121   2.755   1.802  0.1733  0.1847 -0.3531
   10MOL   C290 3728   4.124   2.899   1.839  0.1522 -0.3149 -0.0594
   10MOL   C291 3729   4.257   2.971   1.805 -0.6855 -0.6522 -0.2413
   10MOL   C292 3730   4.367   2.939   1.905  0.9905  0.1201 -0.0601
   10MOL   O293 3731   3.895   2.768   1.711 -0.1512  0.0416  0.3134
   10MOL   H294 3732   3.883   2.798   1.984 -0.2069 -0.1163  1.6007
   10MOL   H295 3733   3.811   2.642   1.925  0.7384 -1.1247 -0.6124
   10MOL   H296 3734   3.964   2.597   1.772  1.2280  1.0303 -1.8573
   10MOL   H297 3735   4.180   2.703   1.878  0.5460  1.7581  0.4506
   10MOL   H298 3736   4.167   2.739   1.704 -1.3634  0.0972 -1.0665
   10MOL   H299 3737   4.045   2.948   1.782 -0.0783 -0.9558 -0.2823
   10MOL   H300 3738   4.097   2.915   1.944  0.2155  2.7049 -0.4557
   10MOL   H301 3739   4.233   3.077   1.800 -2.3297 -1.0138 -0.3235
   10MOL   H302 3740   4.296   2.946   1.706 -3.6629  0.3665 -1.7172
   10MOL   H303 3741   4.393   2.833   1.893  1.6941  0.0430  1.9583
   10MOL   H304 3742   4.462   2.986   1.880  0.1946 -0.1477 -4.0521
   10MOL   H305 3743   4.334   2.954   2.007 -0.7786  1.4492 -0.7922
   10MOL   C306 3744   3.943   2.774   1.578 -0.5128 -0.3683 -0.6870
   10MOL   C307 3745   3.831   2.812   1.474 -0.3521  0.5798  0.7534
   10MOL   C308 3746   3.883   2.832   1.332  1.1402 -0.3856 -0.1259
   10MOL   C309 3747   3.777   2.834   1.220 -0.4905  0.1260 -0.0253
   10MOL   C310 3748   3.822   2.885   1.082 -0.4407 -0.3544 -0.1379
   10MOL   C311 3749   3.942   2.808   1.029 -0.5413  0.4246  0.3343
   10MOL   O312 3750   3.772   2.938   1.517  0.1171 -0.5885 -0.2341
   10MOL   H313 3751   4.026   2.844   1.575 -2.4889  2.0049 -2.2202
   10MOL   H314 3752   3.977   2.674   1.551  1.0468 -0.1841  0.5348
   10MOL   H315 3753   3.755   2.734   1.480  0.7659 -0.7163 -1.1782
   10MOL   H316 3754   3.955   2.752   1.318  1.4080 -0.9161  3.6891
   10MOL   H317 3755   3.934   2.928   1.338 -0.0970  0.1588  2.8355
   10MOL   H318 3756   3.729   2.738   1.202 -0.7619  0.0981  0.8774
   10MOL   H319 3757   3.700   2.905   1.248  0.1537  0.4221  1.0216
   10MOL   H320 3758   3.848   2.990   1.071 -0.7707 -0.4091 -1.5426
   10MOL   H321 3759   3.742   2.870   1.009 -2.5235 -0.8133  2.1517
   10MOL   H322 3760   3.922   2.704   1.054 -3.1054  0.7638 -0.1386
   10MOL   H323 3761   3.952   2.832   0.923 -0.5455 -0.9489  0.0208
   10MOL   H324 3762   4.030   2.847   1.081 -2.4449  0.6978  3.5229
   10MOL   C325 3763   3.660   2.936   1.606 -0.1360 -0.1841 -0.0313
   10MOL   C326 3764   3.635   3.070   1.683  0.0038  0.3123  0.5459
   10MOL   C327 3765   3.553   3.047   1.808 -0.5937 -0.5420 -0.2645
   10MOL   C328 3766   3.581   3.164   1.904 -0.8024 -0.1609  0.6122
   10MOL   C329 3767   3.504   3.159   2.035 -0.1406  0.4820  0.1986
   10MOL   C330 3768   3.545   3.039   2.126  0.1062  0.0024 -0.7350
   10MOL   O331 3769   3.573   3.166   1.606  0.0760  0.4228  0.2475
   10MOL   H332 3770   3.676   2.860   1.682  1.5238  1.6988  1.5628
   10MOL   H333 3771   3.581   2.902   1.538  0.1977  2.4947 -1.8458
   10MOL   H334 3772   3.733   3.095   1.722  0.6355 -1.5914  0.2484
   10MOL   H335 3773   3.447   3.052   1.785 -1.2302 -1.9448  2.1407
   10MOL   H336 3774   3.574   2.950   1.852  1.9621 -0.2430 -0.7452
   10MOL   H337 3775   3.685   3.182   1.931 -0.2066 -3.3639  0.6296
   10MOL   H338 3776   3.550   3.251   1.846  2.2209 -0.2122 -1.1881
   10MOL   H339 3777   3.517   3.250   2.094  3.0566 -1.3312  2.4692
   10MOL   H340 3778   3.397   3.151   2.019 -0.1036  0.8357 -0.2103
   10MOL   H341 3779   3.503   2.950   2.079  0.4175 -0.2296 -0.5740
   10MOL   H342 3780   3.653   3.025   2.131 -0.0726 -1.8781 -1.7822
   10MOL   H343 3781   3.521   3.047   2.232  0.9055 -2.6172 -0.3449
   10MOL   C344 3782   3.668   3.237   1.526 -0.3337 -0.8040 -0.0433
   10MOL   C345 3783   3.611   3.354   1.437  0.4460  0.0514  0.1613
   10MOL   C346 3784   3.732   3.442   1.385  0.0743  0.6563  0.1899
   10MOL   C347 3785   3.701   3.564   1.302 -0.1643 -0.0981 -0.2111
   10MOL   C348 3786   3.644   3.543   1.159  0.2444 -0.4585 -0.7511
   10MOL   C349 3787   3.587   3.675   1.101  0.2698 -0.2549 -0.6055
   10MOL   O350 3788   3.560   3.286   1.314 -0.2211 -0.0803 -0.5697
   10MOL   H351 3789   3.737   3.183   1.461  0.0872 -1.6527  1.0852
   10MOL   H352 3790   3.734   3.287   1.598 -2.1297  2.2315 -0.4213
   10MOL   H353 3791   3.536   3.409   1.494 -2.1015 -3.2023  0.0735
   10MOL   H354 3792   3.796   3.378   1.325 -1.7187  0.8109 -1.9476
   10MOL   H355 3793   3.791   3.471   1.473  0.3849 -0.4935  0.3667
   10MOL   H356 3794   3.790   3.626   1.299 -0.3730  0.2783  0.9273
   10MOL   H357 3795   3.618   3.618   1.350 -0.4854 -0.5277 -0.2826
   10MOL   H358 3796   3.558   3.477   1.161 -1.0040  1.1412  1.2094
   10MOL   H359 3797   3.724   3.496   1.103  1.1516  1.0166 -0.7319
   10MOL   H360 3798   3.512   3.717   1.170 -1.7451 -0.0267 -2.8728
   10MOL   H361 3799   3.531   3.642   1.014 -0.0852  2.0875 -1.3160
   10MOL   H362 3800   3.668   3.746   1.086  0.0793  0.1700  0.2770
   10MOL   C363 3801   3.433   3.245   1.327  0.7856 -0.6437  0.8386
   10MOL   C364 3802   3.404   3.139   1.222  0.9641  0.3783  0.1978
   10MOL   C365 3803   3.448   3.177   1.082 -0.3960 -0.5495 -0.3699
   10MOL   C366 3804   3.387   3.081   0.977 -0.5973 -0.0175 -0.6857
   10MOL   C367 3805   3.432   3.102   0.833  0.6579  0.1104  0.1793
   10MOL   C368 3806   3.583   3.074   0.816  0.8294 -0.3626 -0.5961
   10MOL   O369 3807   3.484   3.024   1.261 -0.0367  0.2437  0.4389
   10MOL   H370 3808   3.384   3.338   1.298  2.1703 -0.0784  0.2942
   10MOL   H371 3809   3.401   3.221   1.429 -2.1035  1.4423  0.5154
   10MOL   H372 3810   3.296   3.123   1.224  0.6827  2.1317  0.3549
   10MOL   H373 3811   3.391   3.270   1.078  2.7304  1.4214 -1.0743
   10MOL   H374 3812   3.555   3.200   1.085 -0.4993 -0.1859  0.6734
   10MOL   H375 3813   3.423   2.979   0.996  2.2499  0.6146 -2.4091
   10MOL   H376 3814   3.279   3.085   0.986 -0.4643  0.9192  0.6070
   10MOL   H377 3815   3.365   3.028   0.790  1.9123 -1.6373  1.1800
   10MOL   H378 3816   3.399   3.197   0.792  2.6265  0.6698 -0.1978
   10MOL   H379 3817   3.603   2.977   0.861  1.0936  1.5055  3.5217
   10MOL   H380 3818   3.617   3.076   0.712 -0.8267 -1.5633 -1.1779
   10MOL   H381 3819   3.647   3.141   0.874  0.0163 -0.5205  0.4849
   10MOL   H382 3820   3.573   3.054   1.273 -0.7540  2.5177  0.3233
   11MOL     C1 3821   0.686   3.096   3.273  0.5945  0.2702  0.2410
   11MOL     C2 3822   0.833   3.063   3.273 -0.5135  0.1294 -0.4524
   11MOL     C3 3823   0.883   2.917   3.241 -0.3822 -0.1809 -0.7873
   11MOL     C4 3824   0.862   2.881   3.091 -0.1545 -0.5436  0.0963
   11MOL     C5 3825   0.923   2.749   3.036  0.0186 -0.0318  0.6327
   11MOL     C6 3826   0.902   2.731   2.882 -0.1109 -0.3528  0.2871
   11MOL     O7 3827   0.911   3.143   3.184  0.6086 -0.2448  0.0299
   11MOL     H8 3828   0.671   3.204   3.285  3.7670  0.6563  1.2347
   11MOL     H9 3829   0.638   3.056   3.363 -1.1544  2.2950  0.2446
   11MOL    H10 3830   0.861   3.078   3.377 -0.3059  2.3805 -0.8079
   11MOL    H11 3831   0.989   2.916   3.268 -0.3316 -1.1969 -1.0213
   11MOL    H12 3832   0.826   2.848   3.303 -1.0552  1.6269  0.6889
   11MOL    H13 3833   0.754   2.882   3.077 -0.3496 -0.9531  1.4914
   11MOL    H14 3834   0.901   2.965   3.033  1.2689  0.3860  2.3304
   11MOL    H15 3835   1.029   2.744   3.060  0.3588 -1.0946 -0.9271
   11MOL    H16 3836   0.870   2.673   3.093 -1.2204 -1.3660 -2.1751
   11MOL    H17 3837   0.967   2.653   2.843  0.2729  0.8915 -1.6179
   11MOL    H18 3838   0.799   2.705   2.860 -0.3849 -0.8174  2.0319
   11MOL    H19 3839   0.945   2.819   2.834 -0.7714  0.1212  0.5621
   11MOL    H20 3840   0.639   3.053   3.185  2.3194 -0.6438 -0.2563
   11MOL    C21 3841   0.940   3.283   3.219 -0.0654 -0.1229 -0.6709
   11MOL    C22 3842   1.076   3.334   3.157  0.2570 -1.0217 -0.3760
   11MOL    C23 3843   1.071   3.481   3.110  0.0272 -0.3071  0.5448
   11MOL    C24 3844   1.194   3.523   3.030  0.1445  0.4433  1.0123
   11MOL    C25 3845   1.191   3.671   2.994 -0.3714 -0.0745  0.5259
   11MOL    C26 3846   1.196   3.707   2.840 -0.3235 -0.5958 -0.0827
   11MOL    O27 3847   1.183   3.308   3.254  0.1635  0.0208 -0.2044
   11MOL    H28 3848   0.853   3.337   3.181 -1.1272 -0.4352  1.2418
   11MOL    H29 3849   0.931   3.314   3.323 -1.5101  1.5569 -1.2755
   11MOL    H30 3850   1.103   3.266   3.076  1.0964  0.4777 -1.3685
   11MOL    H31 3851   1.036   3.545   3.191 -0.3504 -1.4961  1.3368
   11MOL    H32 3852   0.991   3.480   3.037  1.3535 -0.3032 -0.9279
   11MOL    H33 3853   1.203   3.459   2.942 -1.2679 -0.4489  1.4994
   11MOL    H34 3854   1.288   3.507   3.083  0.4110  0.0689  0.4250
   11MOL    H35 3855   1.097   3.710   3.033 -0.7069 -2.7668  2.5577
   11MOL    H36 3856   1.279   3.702   3.050 -0.2756  0.2436  0.2006
   11MOL    H37 3857   1.130   3.644   2.781  0.1931  0.5854 -1.9508
   11MOL    H38 3858   1.297   3.698   2.801  0.6340  0.9462  1.9281
   11MOL    H39 3859   1.179   3.814   2.831  0.7882 -0.5050 -1.2235
   11MOL    C40 3860   1.215   3.166   3.266  0.5335  0.3454 -0.8188
   11MOL    C41 3861   1.314   3.148   3.384  0.1951 -0.0354  0.1840
   11MOL    C42 3862   1.400   3.020   3.352  0.1572 -0.4593  0.2136
   11MOL    C43 3863   1.523   3.017   3.439  0.7752 -0.3448  0.4738
   11MOL    C44 3864   1.619   2.913   3.395 -0.3197 -0.7630  0.1532
   11MOL    C45 3865   1.571   2.763   3.425  0.9187 -0.0605  0.6005
   11MOL    O46 3866   1.249   3.124   3.509  0.3029 -0.4387 -0.1243
   11MOL    H47 3867   1.246   3.113   3.176  2.5728 -0.1906  0.1558
   11MOL    H48 3868   1.124   3.122   3.304 -1.3693  4.0653 -0.8063
   11MOL    H49 3869   1.379   3.234   3.402 -0.7797  1.0713 -1.4446
   11MOL    H50 3870   1.335   2.933   3.366  1.9184 -1.9100 -0.4481
   11MOL    H51 3871   1.428   3.017   3.246  3.5961  3.2942  0.8892
   11MOL    H52 3872   1.494   3.001   3.543 -0.0298 -0.9832  0.1487
   11MOL    H53 3873   1.566   3.117   3.439  0.0255 -0.0213 -0.4876
   11MOL    H54 3874   1.634   2.927   3.288 -1.8762 -1.6798 -0.1931
   11MOL    H55 3875   1.713   2.939   3.444 -0.3528 -1.4122  0.5678
   11MOL    H56 3876   1.562   2.732   3.529  1.0723 -1.8302  0.0956
   11MOL    H57 3877   1.472   2.754   3.381  1.0340 -0.0286  0.3305
   11MOL    H58 3878   1.628   2.687   3.371 -0.7148  0.4583 -1.9399
   11MOL    C59 3879   1.249   3.237   3.596  0.5693 -0.1620  0.0167
   11MOL    C60 3880   1.183   3.205   3.730 -0.0913 -1.0733 -0.2378
   11MOL    C61 3881   1.215   3.297   3.846  0.2469 -0.4857  0.1567
   11MOL    C62 3882   1.129   3.261   3.963  0.4890  0.6717  0.1269
   11MOL    C63 3883   1.123   3.364   4.078 -0.7507 -0.5542  0.0124
   11MOL    C64 3884   1.051   3.491   4.037  0.0256 -0.4737 -0.1875
   11MOL    O65 3885   1.041   3.220   3.707  0.5310  0.7986 -0.4432
   11MOL    H66 3886   1.210   3.330   3.554  0.2589 -0.7936 -1.1148
   11MOL    H67 3887   1.348   3.259   3.634  0.0040 -1.5074  2.3899
   11MOL    H68 3888   1.196   3.104   3.768 -4.0900 -1.8799 -0.7772
   11MOL    H69 3889   1.202   3.404   3.827 -1.5510 -1.0690 -2.1196
   11MOL    H70 3890   1.320   3.299   3.876 -0.0247 -1.2338  1.1655
   11MOL    H71 3891   1.152   3.163   4.004 -1.3337  1.2830  2.7579
   11MOL    H72 3892   1.026   3.254   3.930  0.5419 -3.1306  0.5532
   11MOL    H73 3893   1.222   3.390   4.115 -0.1029 -1.4031 -1.0726
   11MOL    H74 3894   1.076   3.322   4.166 -1.2942 -1.0704 -0.5148
   11MOL    H75 3895   1.014   3.540   4.127 -0.7351 -1.0879 -0.1537
   11MOL    H76 3896   1.101   3.551   3.961 -2.7963 -0.5822 -2.2119
   11MOL    H77 3897   0.957   3.459   3.992 -1.8917  3.6564  0.7163
   11MOL    C78 3898   0.979   3.095   3.647  0.0569 -0.1911  0.1179
   11MOL    C79 3899   0.935   3.000   3.762  0.6001  0.2378  0.5822
   11MOL    C80 3900   0.942   2.850   3.719  0.2511  0.3156  0.4213
   11MOL    C81 3901   0.892   2.756   3.829 -0.0168 -0.6679 -0.2260
   11MOL    C82 3902   1.014   2.719   3.921  0.2828  0.4048 -0.5718
   11MOL    C83 3903   0.977   2.636   4.042  0.0550  0.3195  0.0497
   11MOL    O84 3904   0.792   3.031   3.796  0.4248  0.0933  0.2117
   11MOL    H85 3905   1.061   3.047   3.593  0.0461 -0.1451  0.0602
   11MOL    H86 3906   0.895   3.118   3.583  0.4856  0.7868 -0.1077
   11MOL    H87 3907   1.005   3.015   3.844  0.8719  0.3095  0.3363
   11MOL    H88 3908   0.867   2.838   3.640  1.9775 -2.3963 -0.8661
   11MOL    H89 3909   1.036   2.833   3.667  0.4360  1.4016  0.4014
   11MOL    H90 3910   0.842   2.673   3.779 -0.5551 -1.5434  1.7417
   11MOL    H91 3911   0.812   2.807   3.882  0.5564  2.4056 -2.1763
   11MOL    H92 3912   1.081   2.657   3.862 -1.0861 -1.4795 -0.1983
   11MOL    H93 3913   1.072   2.805   3.955  0.4331 -0.2081  0.7888
   11MOL    H94 3914   0.893   2.672   4.101  0.6095  0.3721  0.8081
   11MOL    H95 3915   1.057   2.641   4.116 -1.3820  0.4952  1.6153
   11MOL    H96 3916   0.969   2.529   4.024 -1.5442  0.9910 -3.6539
   11MOL    C97 3917   0.781   3.134   3.901 -0.1747  0.2426  0.3712
   11MOL    C98 3918   0.634   3.157   3.922  1.1091 -0.1047 -0.5511
   11MOL    C99 3919   0.597   3.214   4.058 -0.5406 -1.2307 -0.0913
   11MOL   C100 3920   0.657   3.356   4.065 -0.0458  0.0624 -0.0909
   11MOL   C101 3921   0.634   3.403   4.212  0.2242 -0.1326 -0.2877
   11MOL   C102 3922   0.681   3.550   4.240  0.1461 -0.4717  0.2666
   11MOL   O103 3923   0.586   3.245   3.825  0.2091 -0.1436 -0.2736
   11MOL   H104 3924   0.823   3.231   3.876  2.8499 -0.9952  0.5479
   11MOL   H105 3925   0.831   3.094   3.989 -1.0793 -1.5943  0.0999
   11MOL   H106 3926   0.589   3.058   3.928  2.1166 -0.8097 -3.4505
   11MOL   H107 3927   0.640   3.157   4.139 -0.2179  0.2121  0.7696
   11MOL   H108 3928   0.489   3.208   4.075 -0.7454  0.8382 -0.4706
   11MOL   H109 3929   0.604   3.417   3.992  0.3675  0.5565  0.0223
   11MOL   H110 3930   0.765   3.358   4.049 -0.0622  2.3763 -0.1318
   11MOL   H111 3931   0.686   3.344   4.287 -1.4003 -0.9751  0.1969
   11MOL   H112 3932   0.528   3.396   4.237  0.1357 -0.6433 -0.8047
   11MOL   H113 3933   0.779   3.559   4.194 -0.6552 -1.4780 -1.7031
   11MOL   H114 3934   0.610   3.623   4.199 -0.7554 -1.8296 -0.6185
   11MOL   H115 3935   0.696   3.555   4.348  0.3910  0.6640  0.1854
   11MOL   C116 3936   0.526   3.177   3.715  0.2319  0.1423 -0.6022
   11MOL   C117 3937   0.486   3.292   3.618 -0.1750  0.8525 -0.2989
   11MOL   C118 3938   0.398   3.242   3.497 -0.1045 -1.0288 -0.6775
   11MOL   C119 3939   0.248   3.214   3.530 -0.3678 -0.5460 -0.1767
   11MOL   C120 3940   0.168   3.341   3.479 -0.2872 -0.6966  0.2836
   11MOL   C121 3941   0.033   3.362   3.552 -1.0587 -0.5257  0.2451
   11MOL   O122 3942   0.599   3.341   3.553 -0.3537  0.4879 -0.0915
   11MOL   H123 3943   0.593   3.103   3.672  2.5977  0.5797  2.2165
   11MOL   H124 3944   0.443   3.129   3.766  1.1224  1.1654  1.8570
   11MOL   H125 3945   0.442   3.372   3.678 -0.8383 -0.1839  0.6144
   11MOL   H126 3946   0.410   3.314   3.415 -2.4007 -0.1572 -0.2921
   11MOL   H127 3947   0.436   3.146   3.462  2.8997  0.0021 -0.3624
   11MOL   H128 3948   0.234   3.184   3.634  0.8632 -0.7230 -0.0572
   11MOL   H129 3949   0.214   3.129   3.471  0.0311 -0.8109 -0.0308
   11MOL   H130 3950   0.234   3.425   3.496  0.5197 -1.8764  3.3120
   11MOL   H131 3951   0.161   3.324   3.371  1.1470  0.5459 -0.0109
   11MOL   H132 3952   7.752   3.278   3.530 -0.6261 -0.3121 -1.9104
   11MOL   H133 3953   0.039   3.360   3.661 -1.9737  2.3805  0.3712
   11MOL   H134 3954   7.782   3.459   3.521 -0.0363  0.2267  1.3443
   11MOL   C135 3955   0.672   3.434   3.634  0.8010  1.6095 -0.2790
   11MOL   C136 3956   0.749   3.533   3.550  1.0995 -0.9337  0.2653
   11MOL   C137 3957   0.886   3.567   3.604 -0.8219  0.1635  0.6267
   11MOL   C138 3958   0.957   3.677   3.523  0.5127  0.6493 -0.1213
   11MOL   C139 3959   1.103   3.643   3.489  0.6339  0.9784 -0.1362
   11MOL   C140 3960   1.176   3.751   3.409  0.3439 -0.4534 -0.4684
   11MOL   O141 3961   0.675   3.658   3.537 -0.2852  0.2697  0.5735
   11MOL   H142 3962   0.612   3.491   3.704  0.2039  1.8864 -1.0080
   11MOL   H143 3963   0.742   3.365   3.681 -0.9848  0.5102  0.7841
   11MOL   H144 3964   0.766   3.487   3.453  0.6756  0.9297 -0.7258
   11MOL   H145 3965   0.866   3.608   3.703  0.9475 -1.9257  1.8724
   11MOL   H146 3966   0.942   3.474   3.608 -0.7090  0.1796 -0.4743
   11MOL   H147 3967   0.951   3.779   3.561 -0.0149  0.1596  1.1217
   11MOL   H148 3968   0.913   3.684   3.423  0.9583  2.6966 -0.1992
   11MOL   H149 3969   1.103   3.554   3.426 -1.9606  0.3548  0.6713
   11MOL   H150 3970   1.160   3.610   3.576 -0.4947  1.7483  0.9131
   11MOL   H151 3971   1.279   3.729   3.381  0.7321  0.3122  0.3119
   11MOL   H152 3972   1.116   3.755   3.318 -0.9698 -0.4196  0.3826
   11MOL   H153 3973   1.188   3.847   3.459 -1.7258 -0.8109  0.7940
   11MOL   C154 3974   0.563   3.659   3.447 -0.3953  0.7150 -0.7351
   11MOL   C155 3975   0.610   3.729   3.318 -0.1376 -0.2398  0.0354
   11MOL   C156 3976   0.555   3.664   3.195  0.1168 -0.3523 -0.8127
   11MOL   C157 3977   0.605   3.722   3.062  0.5651  0.4509 -0.1786
   11MOL   C158 3978   0.547   3.632   2.954  0.8829  0.5842 -0.0686
   11MOL   C159 3979   0.576   3.683   2.811  0.0875 -0.2934 -0.1755
   11MOL   O160 3980   0.582   3.865   3.308 -0.2471  0.6091 -0.5767
   11MOL   H161 3981   0.475   3.700   3.497  1.0426 -0.6528  3.0875
   11MOL   H162 3982   0.535   3.555   3.434 -4.3447  1.6060  0.0355
   11MOL   H163 3983   0.717   3.715   3.306 -0.1674 -1.0667  0.7075
   11MOL   H164 3984   0.448   3.663   3.216  0.7992  1.1538  2.9621
   11MOL   H165 3985   0.591   3.563   3.214  0.6530  0.5410  3.1390
   11MOL   H166 3986   0.714   3.732   3.065  0.7045 -1.2516  2.1378
   11MOL   H167 3987   0.580   3.828   3.052 -0.5978  0.2829  0.8071
   11MOL   H168 3988   0.600   3.536   2.959 -1.4496 -0.6589  1.4695
   11MOL   H169 3989   0.439   3.633   2.969  0.7982  2.0384 -0.7128
   11MOL   H170 3990   0.684   3.667   2.805 -0.3261 -3.0793 -0.8218
   11MOL   H171 3991   0.552   3.789   2.806  2.8790  0.2789 -2.7927
   11MOL   H172 3992   0.527   3.632   2.728 -1.1690  2.1275 -0.9635
   11MOL   C173 3993   0.644   3.949   3.407 -0.1390  0.6863 -0.4429
   11MOL   C174 3994   0.620   4.103   3.371  0.1412  0.2039 -0.0242
   11MOL   C175 3995   0.481   4.148   3.413 -0.7221 -0.2517  0.1478
   11MOL   C176 3996   0.458   4.288   3.376  0.1792 -0.8628  0.4977
   11MOL   C177 3997   0.316   4.341   3.368 -0.1890 -0.2693  0.2800
   11MOL   C178 3998   0.320   4.481   3.311 -0.1579  0.1316  0.8605
   11MOL   O179 3999   0.730   4.181   3.420 -0.5519  0.6449  0.3915
   11MOL   H180 4000   0.750   3.926   3.419  0.0834  1.9977  0.2402
   11MOL   H181 4001   0.605   3.925   3.506  2.4883 -3.2894 -0.2243
   11MOL   H182 4002   0.624   4.104   3.262  0.9082  1.0065  0.0105
   11MOL   H183 4003   0.401   4.090   3.367 -0.5840 -0.3457  0.0277
   11MOL   H184 4004   0.478   4.132   3.521 -0.5881  0.9432  0.3392
   11MOL   H185 4005   0.514   4.349   3.447  0.7505 -0.8614  0.0461
   11MOL   H186 4006   0.512   4.308   3.283  0.9160 -1.6639  0.7526
   11MOL   H187 4007   0.245   4.283   3.309 -0.1573  0.4121 -0.4356
   11MOL   H188 4008   0.271   4.333   3.467  1.8478 -0.6159  1.1989
   11MOL   H189 4009   0.359   4.535   3.397 -3.1819  1.0981  1.6851
   11MOL   H190 4010   0.222   4.524   3.293 -0.4298 -1.1758 -0.8750
   11MOL   H191 4011   0.391   4.496   3.229 -0.3310 -0.9693  0.4975
   11MOL   C192 4012   0.749   4.187   3.559  0.6226 -0.4486 -0.3727
   11MOL   C193 4013   0.879   4.257   3.596  0.6256 -0.4211  0.4783
   11MOL   C194 4014   1.005   4.197   3.525 -0.0085  0.0351 -0.5377
   11MOL   C195 4015   1.126   4.289   3.538  0.8351  0.1631 -0.1947
   11MOL   C196 4016   1.260   4.224   3.496  0.1689 -0.1290 -0.1917
   11MOL   C197 4017   1.359   4.318   3.423  0.2730  0.1025  0.3190
   11MOL   O198 4018   0.911   4.251   3.732 -0.3781 -0.2077 -0.4275
   11MOL   H199 4019   0.673   4.246   3.609  1.1942  0.0999 -0.1412
   11MOL   H200 4020   0.748   4.088   3.606  0.2936  0.1614  0.9138
   11MOL   H201 4021   0.879   4.363   3.570  1.9125 -0.9853 -1.9364
   11MOL   H202 4022   1.011   4.095   3.564  1.2658 -0.0977 -1.0599
   11MOL   H203 4023   0.978   4.189   3.419  0.1161 -0.5618 -0.5273
   11MOL   H204 4024   1.133   4.326   3.641 -0.3087 -1.2324  0.4071
   11MOL   H205 4025   1.107   4.379   3.480  2.1383  0.8945  0.4775
   11MOL   H206 4026   1.309   4.182   3.584  3.2370  1.1315 -1.2376
   11MOL   H207 4027   1.249   4.140   3.428  0.7145  0.2453 -0.7404
   11MOL   H208 4028   1.334   4.360   3.326 -1.0864 -1.5040 -0.0378
   11MOL   H209 4029   1.386   4.406   3.482  0.4538  0.7622 -0.7396
   11MOL   H210 4030   1.448   4.255   3.415 -1.6625 -2.9457  1.7558
   11MOL   C211 4031   0.851   4.359   3.815 -0.5714  0.2864 -0.0600
   11MOL   C212 4032   0.888   4.346   3.971  0.4234 -0.6687  0.2724
   11MOL   C213 4033   0.805   4.444   4.057  0.6639  0.3949 -0.2956
   11MOL   C214 4034   0.823   4.442   4.210 -0.1929  0.2079  0.3217
   11MOL   C215 4035   0.704   4.510   4.270  0.2629 -0.9899 -0.1582
   11MOL   C216 4036   0.691   4.486   4.421  0.0393 -0.4131  0.6536
   11MOL   O217 4037   1.028   4.385   3.991 -0.4668 -0.0434 -0.1379
   11MOL   H218 4038   0.745   4.366   3.793 -0.8723 -2.2584  0.3378
   11MOL   H219 4039   0.896   4.453   3.782  0.7998 -1.6028 -3.9602
   11MOL   H220 4040   0.860   4.243   3.993 -2.1744 -0.2126 -0.7181
   11MOL   H221 4041   0.835   4.541   4.017  0.1093 -0.4965 -2.9795
   11MOL   H222 4042   0.700   4.429   4.029  0.6165  1.1087 -0.5098
   11MOL   H223 4043   0.823   4.334   4.224 -0.8501 -0.0701 -1.6292
   11MOL   H224 4044   0.918   4.491   4.233 -0.4963  0.3563  1.2795
   11MOL   H225 4045   0.729   4.614   4.249  1.1735 -1.1478  0.1106
   11MOL   H226 4046   0.603   4.488   4.237 -0.6858  1.5390  0.9210
   11MOL   H227 4047   0.613   4.551   4.460  1.2151  0.8045  1.0562
   11MOL   H228 4048   0.779   4.520   4.476 -0.1538 -1.9047  1.9198
   11MOL   H229 4049   0.687   4.383   4.456 -1.2473 -0.7064 -0.3421
   11MOL   C230 4050   1.128   4.289   3.968 -0.6731  0.0585  0.7038
   11MOL   C231 4051   1.258   4.362   4.011 -0.4635 -0.0828  0.6654
   11MOL   C232 4052   1.360   4.354   3.897 -0.1332  0.3774  0.5424
   11MOL   C233 4053   1.504   4.416   3.923 -0.6675  0.4211  0.7108
   11MOL   C234 4054   1.615   4.354   3.822 -0.0727  0.0606 -0.2835
   11MOL   C235 4055   1.757   4.407   3.843  0.1120 -0.0780  0.4708
   11MOL   O236 4056   1.299   4.317   4.139  0.2225  0.2700 -0.0579
   11MOL   H237 4057   1.121   4.195   4.023  0.5124  1.0777  2.6200
   11MOL   H238 4058   1.125   4.259   3.863 -2.1102 -0.1961  0.8074
   11MOL   H239 4059   1.232   4.468   4.017  1.5141  0.4484  0.4308
   11MOL   H240 4060   1.313   4.392   3.806  0.8442  0.0983 -0.0959
   11MOL   H241 4061   1.382   4.249   3.877  2.3064  0.9617 -0.0858
   11MOL   H242 4062   1.531   4.397   4.026  0.9645  2.3338  0.6764
   11MOL   H243 4063   1.493   4.523   3.903  1.1221  0.7504  1.3567
   11MOL   H244 4064   1.634   4.249   3.841 -1.5112 -0.6146 -2.3780
   11MOL   H245 4065   1.571   4.364   3.722 -2.8317  0.2852  0.9133
   11MOL   H246 4066   1.826   4.346   3.784  0.3644  0.8172 -0.1724
   11MOL   H247 4067   1.788   4.402   3.947  1.4863 -0.4090  0.0611
   11MOL   H248 4068   1.765   4.510   3.808  3.9927 -1.8945 -4.5739
   11MOL   C249 4069   1.225   4.365   4.256  1.3263 -0.6330 -0.0763
   11MOL   C250 4070   1.265   4.503   4.308 -0.4382 -0.5801 -0.8057
   11MOL   C251 4071   1.227   4.521   4.458 -0.2060 -0.9249  0.5166
   11MOL   C252 4072   1.274   4.661   4.518  0.5022 -0.3491 -0.1155
   11MOL   C253 4073   1.237   4.667   4.670  0.4901 -0.3478  0.3223
   11MOL   C254 4074   1.270   4.798   4.736  0.0598  0.1058  0.3134
   11MOL   O255 4075   1.216   4.605   4.223  0.0018  0.3513  0.3889
   11MOL   H256 4076   1.119   4.370   4.233  1.5216  1.2610 -0.6308
   11MOL   H257 4077   1.235   4.288   4.333  1.0412 -1.4628 -0.8625
   11MOL   H258 4078   1.371   4.483   4.294  0.2655  0.4654  2.6218
   11MOL   H259 4079   1.124   4.504   4.488 -0.6190 -2.8543 -1.8570
   11MOL   H260 4080   1.281   4.452   4.523 -2.5357 -1.3098  2.1065
   11MOL   H261 4081   1.382   4.679   4.513  0.5016  0.7241  2.9206
   11MOL   H262 4082   1.225   4.735   4.455  0.9012  0.2192  0.2389
   11MOL   H263 4083   1.130   4.649   4.682  0.1893  1.9444  1.3176
   11MOL   H264 4084   1.281   4.584   4.726 -0.3359 -2.1228 -1.5826
   11MOL   H265 4085   1.197   4.877   4.718  0.6084  0.7082  0.6746
   11MOL   H266 4086   1.357   4.835   4.682 -1.0042  1.9241 -0.1823
   11MOL   H267 4087   1.275   4.784   4.844 -1.6631  1.3511  0.5788
   11MOL   C268 4088   1.310   4.705   4.185  0.2380  0.3100  0.9016
   11MOL   C269 4089   1.228   4.808   4.107  0.0934 -0.2240  0.5753
   11MOL   C270 4090   1.306   4.894   4.002 -0.0293  0.1875 -0.0349
   11MOL   C271 4091   1.223   5.014   3.946  0.4801  0.2710 -0.5703
   11MOL   C272 4092   1.291   5.101   3.836 -0.5919  0.4819 -0.1903
   11MOL   C273 4093   1.200   5.202   3.758 -0.2938 -0.7158 -0.2135
   11MOL   O274 4094   1.162   4.901   4.196 -0.0757 -0.1357  0.0904
   11MOL   H275 4095   1.371   4.649   4.114  0.0481  2.3299 -0.9359
   11MOL   H276 4096   1.364   4.748   4.269 -0.9221  0.0707  1.7831
   11MOL   H277 4097   1.148   4.757   4.053  1.3476 -2.0809  0.4754
   11MOL   H278 4098   1.403   4.926   4.041  1.4937 -1.4312 -2.3073
   11MOL   H279 4099   1.339   4.837   3.915  1.6465  2.2317 -0.7925
   11MOL   H280 4100   1.127   4.973   3.916  0.5972  0.1211 -0.7407
   11MOL   H281 4101   1.202   5.086   4.025 -0.0897 -2.3742  1.7811
   11MOL   H282 4102   1.369   5.155   3.889  0.6966 -0.5428 -0.9920
   11MOL   H283 4103   1.343   5.039   3.763  0.4559  0.3007  0.7096
   11MOL   H284 4104   1.264   5.290   3.754  0.3552 -1.1479  0.4427
   11MOL   H285 4105   1.164   5.160   3.664 -0.6327 -1.5783  0.2951
   11MOL   H286 4106   1.112   5.228   3.817  0.0753  2.3739 -0.9437
   11MOL   C287 4107   1.040   4.857   4.260  0.3270 -0.6826 -0.1142
   11MOL   C288 4108   0.982   4.970   4.353 -0.6977 -0.0402  0.9532
   11MOL   C289 4109   0.978   4.938   4.503  0.0461 -0.0118 -0.2322
   11MOL   C290 4110   0.878   4.823   4.552 -0.3521 -0.3963  0.7430
   11MOL   C291 4111   0.820   4.832   4.688 -0.1398 -0.3244  0.1073
   11MOL   C292 4112   0.739   4.714   4.734 -0.0281  0.3193 -0.4723
   11MOL   O293 4113   0.848   5.013   4.317 -0.0592 -0.0594  0.7007
   11MOL   H294 4114   1.053   4.762   4.312  1.3955 -0.2722  0.3821
   11MOL   H295 4115   0.982   4.837   4.170  2.7622  3.5242 -2.7815
   11MOL   H296 4116   1.046   5.058   4.350 -2.9784  1.6264 -0.5446
   11MOL   H297 4117   1.076   4.920   4.547  1.3778  1.6598 -2.3980
   11MOL   H298 4118   0.949   5.028   4.556  2.3426 -0.2180  1.4040
   11MOL   H299 4119   0.792   4.828   4.486  2.5433 -2.2740 -3.3683
   11MOL   H300 4120   0.924   4.726   4.535 -1.9537 -0.9604 -0.5127
   11MOL   H301 4121   0.759   4.918   4.714  0.9013 -0.1609  2.1454
   11MOL   H302 4122   0.909   4.840   4.750 -0.2752 -1.2514  0.4372
   11MOL   H303 4123   0.710   4.746   4.834  0.8556 -1.9062  0.5198
   11MOL   H304 4124   0.667   4.695   4.654  0.3874 -2.1665 -0.2824
   11MOL   H305 4125   0.796   4.622   4.731 -1.6484 -0.7902  1.5770
   11MOL   C306 4126   0.845   5.117   4.221 -0.0470 -0.6653  0.6258
   11MOL   C307 4127   0.712   5.193   4.216 -0.2002 -0.3409 -0.1372
   11MOL   C308 4128   0.595   5.098   4.188  0.4110  0.2880 -0.6222
   11MOL   C309 4129   0.591   5.016   4.062 -0.6596 -0.1489  0.4053
   11MOL   C310 4130   0.469   4.924   4.034 -0.0555  0.3889  0.2612
   11MOL   C311 4131   0.433   4.818   4.144 -0.3767 -0.2925  0.6955
   11MOL   O312 4132   0.730   5.281   4.105 -0.0426  0.2881 -0.3767
   11MOL   H313 4133   0.933   5.179   4.238  1.3687 -2.4080 -0.0883
   11MOL   H314 4134   0.878   5.082   4.123 -0.8743 -0.9667  0.4507
   11MOL   H315 4135   0.704   5.252   4.308  0.2797  2.1603 -1.6504
   11MOL   H316 4136   0.503   5.154   4.200 -0.2732 -1.0704  0.6316
   11MOL   H317 4137   0.591   5.028   4.272 -0.9769 -0.9167 -1.6496
   11MOL   H318 4138   0.612   5.090   3.985 -1.8124  0.1887  0.4047
   11MOL   H319 4139   0.676   4.948   4.073 -1.7810 -1.3216  1.9687
   11MOL   H320 4140   0.486   4.875   3.938  2.9662  1.3581  0.2770
   11MOL   H321 4141   0.385   4.992   4.023 -0.1600  0.5154  1.8342
   11MOL   H322 4142   0.369   4.743   4.099  0.7256 -1.1021  0.4571
   11MOL   H323 4143   0.519   4.769   4.189  0.3137 -0.0250 -0.3307
   11MOL   H324 4144   0.369   4.864   4.221 -3.2377 -0.2631 -1.6272
   11MOL   C325 4145   0.642   5.391   4.100  0.1649  0.2028  0.2784
   11MOL   C326 4146   0.712   5.509   4.042  0.0956  0.2727  0.7004
   11MOL   C327 4147   0.658   5.643   4.101 -0.4689  0.4787  0.1753
   11MOL   C328 4148   0.725   5.764   4.041  0.3678 -0.0445  0.3328
   11MOL   C329 4149   0.662   5.906   4.085 -0.2390 -0.0404  0.2782
   11MOL   C330 4150   0.674   5.937   4.238 -0.4026  0.1651  0.3849
   11MOL   O331 4151   0.692   5.513   3.902  0.3257  0.4079  0.0062
   11MOL   H332 4152   0.620   5.407   4.206 -0.9656  1.3090 -0.1129
   11MOL   H333 4153   0.548   5.364   4.051 -0.1347  2.7958 -0.6432
   11MOL   H334 4154   0.820   5.504   4.059  0.3048 -0.7485 -0.8638
   11MOL   H335 4155   0.553   5.656   4.077 -0.2563  0.2969 -0.8936
   11MOL   H336 4156   0.652   5.633   4.209  0.5298 -0.4921  0.1532
   11MOL   H337 4157   0.831   5.760   4.067  0.2980 -1.3728  0.4488
   11MOL   H338 4158   0.717   5.751   3.933 -0.6570  1.4045  0.2028
   11MOL   H339 4159   0.704   5.990   4.031 -0.3827 -0.6104 -0.7345
   11MOL   H340 4160   0.558   5.922   4.060 -0.3510  0.0591  0.7951
   11MOL   H341 4161   0.632   5.859   4.302  0.0796  0.2194  0.7640
   11MOL   H342 4162   0.778   5.954   4.266 -0.5326  2.4167 -0.4506
   11MOL   H343 4163   0.625   6.029   4.269 -0.2674  0.8637 -1.3817
   11MOL   C344 4164   0.781   5.432   3.823  0.1377  0.2784  0.0497
   11MOL   C345 4165   0.741   5.453   3.678 -0.0872 -0.2467 -0.4165
   11MOL   C346 4166   0.849   5.420   3.579  0.5526 -0.0987 -0.2136
   11MOL   C347 4167   0.946   5.537   3.573  1.0189  0.2202  0.0522
   11MOL   C348 4168   1.049   5.513   3.462  0.1738 -0.0825 -0.4610
   11MOL   C349 4169   1.161   5.624   3.465 -0.2199 -0.1239  0.3500
   11MOL   O350 4170   0.631   5.365   3.646 -0.5776 -0.1094  0.4624
   11MOL   H351 4171   0.785   5.330   3.860  2.0015  0.7689  1.2237
   11MOL   H352 4172   0.884   5.456   3.848  0.4367  0.8345 -1.6059
   11MOL   H353 4173   0.714   5.556   3.658 -1.0804 -0.6850 -1.3956
   11MOL   H354 4174   0.793   5.415   3.485  1.7799 -0.9888 -0.9124
   11MOL   H355 4175   0.888   5.322   3.606  1.4158  0.5008  0.7023
   11MOL   H356 4176   0.998   5.538   3.669  1.2276  1.0955 -0.0587
   11MOL   H357 4177   0.904   5.636   3.554 -0.1701 -0.0170  1.3611
   11MOL   H358 4178   1.000   5.505   3.365  0.9737 -1.6305 -0.7540
   11MOL   H359 4179   1.106   5.422   3.480 -1.4382 -0.9288  0.5561
   11MOL   H360 4180   1.236   5.615   3.387  0.7377  1.2273  1.0887
   11MOL   H361 4181   1.214   5.628   3.560 -0.3503 -0.5356  0.4403
   11MOL   H362 4182   1.115   5.721   3.443 -0.7152 -0.3124  0.5421
   11MOL   C363 4183   0.518   5.385   3.732  0.3507 -0.4061  0.4903
   11MOL   C364 4184   0.398   5.308   3.683  0.0271  0.2982  0.2803
   11MOL   C365 4185   0.418   5.162   3.698  0.0613  1.0521  0.8152
   11MOL   C366 4186   0.303   5.073   3.636 -0.9392  0.0508  0.2167
   11MOL   C367 4187   0.333   4.919   3.633 -1.0905  0.1301 -0.1472
   11MOL   C368 4188   0.204   4.836   3.606  0.2905 -0.7331  0.2352
   11MOL   O369 4189   0.307   5.353   3.781 -0.5179  0.4346 -0.0307
   11MOL   H370 4190   0.489   5.490   3.724 -0.0458 -0.4217  1.7040
   11MOL   H371 4191   0.535   5.364   3.837  1.4990 -0.6175  0.2664
   11MOL   H372 4192   0.372   5.338   3.582 -0.2685  0.7281  0.4801
   11MOL   H373 4193   0.515   5.133   3.657  0.0635 -2.4842  3.0387
   11MOL   H374 4194   0.424   5.130   3.802  0.3333  0.5895  0.6595
   11MOL   H375 4195   0.224   5.089   3.709  0.5705 -0.7040  2.0657
   11MOL   H376 4196   0.271   5.116   3.541  0.3506 -0.1938 -0.3411
   11MOL   H377 4197   0.410   4.894   3.561  0.0471  0.8479  0.8016
   11MOL   H378 4198   0.375   4.893   3.731 -1.1975  0.1974 -0.0829
   11MOL   H379 4199   0.137   4.855   3.690 -1.8253 -1.2139 -1.3058
   11MOL   H380 4200   0.143   4.874   3.524 -0.7493 -1.5004  0.6455
   11MOL   H381 4201   0.221   4.729   3.593  1.8535 -0.4697 -0.0142
   11MOL   H382 4202   0.219   5.322   3.766  0.3519 -2.2506  0.1191
   12MOL     C1 4203   5.420   5.816   0.188 -0.2965 -0.1761 -0.1472
   12MOL     C2 4204   5.295   5.759   0.119  0.0463  0.1213  0.0776
   12MOL     C3 4205   5.338   5.637   0.038 -0.2068 -0.7266  0.8032
   12MOL     C4 4206   5.228   5.555   7.750 -0.0634 -0.0915  0.1636
   12MOL     C5 4207   5.275   5.420   7.692  0.2472  0.2419 -0.2120
   12MOL     C6 4208   5.400   5.426   7.598  0.0548  0.1524 -0.2627
   12MOL     O7 4209   5.196   5.709   0.214  0.1955  0.8550 -0.4954
   12MOL     H8 4210   5.467   5.735   0.244 -0.0592  1.2559  1.8059
   12MOL     H9 4211   5.386   5.897   0.253  0.2333  0.7325 -0.9837
   12MOL    H10 4212   5.246   5.843   0.070 -2.5015  0.5621  3.2260
   12MOL    H11 4213   5.407   5.668   7.745 -0.6501  0.3570  0.8420
   12MOL    H12 4214   5.401   5.575   0.102 -0.4655 -0.9689  0.8264
   12MOL    H13 4215   5.146   5.527   0.031 -0.0671 -0.1473  0.1347
   12MOL    H14 4216   5.190   5.621   7.672 -1.2898 -0.1423  0.7015
   12MOL    H15 4217   5.281   5.337   7.762  0.3038 -0.8050 -1.4586
   12MOL    H16 4218   5.195   5.386   7.627  0.7645 -0.4566 -0.4926
   12MOL    H17 4219   5.391   5.329   7.550 -0.8526  1.2998 -2.4867
   12MOL    H18 4220   5.381   5.495   7.516  1.4252  0.3734 -0.3979
   12MOL    H19 4221   5.499   5.443   7.640 -0.8126 -0.3562  2.1137
   12MOL    H20 4222   5.491   5.864   0.120 -1.4025 -1.4387 -2.2508
   12MOL    C21 4223   5.117   5.814   0.281  0.0102  0.2566 -0.5649
   12MOL    C22 4224   4.986   5.750   0.337 -0.5028 -0.1623  0.1091
   12MOL    C23 4225   4.945   5.834   0.459 -0.4719 -0.4616 -0.5267
   12MOL    C24 4226   4.818   5.768   0.526  0.2004  0.2881  0.6392
   12MOL    C25 4227   4.772   5.850   0.648 -0.2150  0.3754  1.3411
   12MOL    C26 4228   4.649   5.801   0.717  0.1197  0.1946  0.2108
   12MOL    O27 4229   4.896   5.759   0.231  0.2234  0.0343  0.1285
   12MOL    H28 4230   5.191   5.848   0.354  1.1822  0.2942 -1.7498
   12MOL    H29 4231   5.095   5.905   0.225 -0.5341  0.7930  0.5138
   12MOL    H30 4232   5.003   5.644   0.358 -0.9038 -0.5984 -1.7201
   12MOL    H31 4233   4.917   5.933   0.423  2.0783  1.8679  3.5047
   12MOL    H32 4234   5.023   5.863   0.529  0.0850  0.0924 -1.3748
   12MOL    H33 4235   4.851   5.666   0.544 -0.3279  0.0630  0.3397
   12MOL    H34 4236   4.741   5.756   0.449  1.4059  0.0978 -0.5521
   12MOL    H35 4237   4.849   5.833   0.723  0.1627  0.8935  1.0761
   12MOL    H36 4238   4.758   5.958   0.640 -2.6594 -0.0155 -0.1639
   12MOL    H37 4239   4.566   5.798   0.646 -0.8973 -3.6896  1.4429
   12MOL    H38 4240   4.622   5.840   0.815  0.7267  1.4042 -0.0873
   12MOL    H39 4241   4.665   5.695   0.738 -0.6127 -0.0362 -0.3672
   12MOL    C40 4242   4.878   5.643   0.153  0.0707  0.6107  0.5092
   12MOL    C41 4243   4.829   5.684   0.014  1.0313  0.1313  0.2616
   12MOL    C42 4244   4.787   5.555   7.718  0.7656 -0.1602  0.2394
   12MOL    C43 4245   4.743   5.576   7.571 -0.2399  1.0292 -0.2904
   12MOL    C44 4246   4.714   5.436   7.508 -0.0455 -0.7953  0.5850
   12MOL    C45 4247   4.669   5.451   7.359  0.1983  0.2762 -0.1918
   12MOL    O46 4248   4.922   5.744   7.714 -0.0870 -0.0528 -0.0421
   12MOL    H47 4249   4.802   5.580   0.200  1.6371 -1.6499  0.0940
   12MOL    H48 4250   4.970   5.586   0.141 -0.8848 -0.7385 -0.5106
   12MOL    H49 4251   4.734   5.736   0.014 -0.3154 -2.1042 -3.5546
   12MOL    H50 4252   4.880   5.498   7.714  0.6710 -0.3882  1.1677
   12MOL    H51 4253   4.708   5.505   7.772  1.7241  0.2542  2.0767
   12MOL    H52 4254   4.809   5.632   7.506  2.0026 -0.6913  0.4665
   12MOL    H53 4255   4.652   5.636   7.566 -0.3706  0.7678 -1.0181
   12MOL    H54 4256   4.802   5.372   7.513 -0.2445 -1.1000  0.1772
   12MOL    H55 4257   4.641   5.381   7.567  1.8667 -0.5782  3.2167
   12MOL    H56 4258   4.637   5.354   7.320  0.6176  0.0442  0.0361
   12MOL    H57 4259   4.576   5.505   7.342  0.3682 -0.0216 -2.1348
   12MOL    H58 4260   4.740   5.498   7.292  0.4925 -0.2758 -0.2686
   12MOL    C59 4261   4.939   5.885   7.740  0.7555 -0.0286 -0.0897
   12MOL    C60 4262   4.852   5.973   7.643 -0.0912 -0.8616 -0.4328
   12MOL    C61 4263   4.818   6.125   7.698 -0.1846  0.3226  0.1536
   12MOL    C62 4264   4.744   6.206   7.599  0.1465 -0.1680 -0.1601
   12MOL    C63 4265   4.713   6.353   7.647 -0.5284 -0.0326  0.8299
   12MOL    C64 4266   4.673   6.444   7.527 -0.6887  0.7219 -0.0463
   12MOL    O65 4267   4.928   6.006   7.524  0.1401  0.5739 -0.4042
   12MOL    H66 4268   5.047   5.898   7.727  0.8400 -1.9399 -1.5084
   12MOL    H67 4269   4.910   5.911   0.057 -0.7695 -0.6901 -0.3442
   12MOL    H68 4270   4.754   5.937   7.614  0.0347 -1.8984  0.3913
   12MOL    H69 4271   4.914   6.169   7.725  0.2602 -1.3400  1.3035
   12MOL    H70 4272   4.758   6.116   0.002  2.1309 -0.7252  1.6344
   12MOL    H71 4273   4.650   6.160   7.568  0.2574 -0.2357 -0.3958
   12MOL    H72 4274   4.799   6.214   7.505  0.2770  0.3273 -0.0419
   12MOL    H73 4275   4.801   6.391   7.698 -0.0421  1.8678 -1.3551
   12MOL    H74 4276   4.633   6.343   7.720 -0.7212  0.2186  0.6560
   12MOL    H75 4277   4.624   6.538   7.552 -0.2962  0.0249  3.6854
   12MOL    H76 4278   4.767   6.451   7.471 -0.3216 -1.4253  0.2498
   12MOL    H77 4279   4.594   6.386   7.480  0.0385  0.9664 -1.6016
   12MOL    C78 4280   4.876   5.942   7.409  0.3124 -0.0880 -0.9141
   12MOL    C79 4281   4.961   5.966   7.285  0.3302  0.3078 -0.0168
   12MOL    C80 4282   4.885   5.958   7.158  0.2101 -0.5240 -0.2961
   12MOL    C81 4283   4.963   5.986   7.028  0.8253 -0.8390  0.0919
   12MOL    C82 4284   4.871   6.002   6.903 -0.7247  0.1482  0.2254
   12MOL    C83 4285   4.807   6.138   6.911  0.4682  0.1016 -1.0592
   12MOL    O84 4286   5.057   5.870   7.280  0.3706 -0.3462  0.1017
   12MOL    H85 4287   4.769   5.964   7.405  0.3571  0.3230 -0.0479
   12MOL    H86 4288   4.884   5.839   7.443 -3.4999  0.9032  3.4292
   12MOL    H87 4289   5.001   6.067   7.297 -0.6601  0.8866 -1.4697
   12MOL    H88 4290   4.837   5.860   7.151  0.1867 -0.5394  0.0533
   12MOL    H89 4291   4.808   6.033   7.175  0.9064  0.0095  0.4863
   12MOL    H90 4292   5.027   5.901   7.005  0.2308 -0.5551 -2.8102
   12MOL    H91 4293   5.033   6.068   7.043  1.2482 -1.5664  2.4385
   12MOL    H92 4294   4.932   6.009   6.812 -1.7710  2.9512 -0.3081
   12MOL    H93 4295   4.799   5.921   6.891 -1.3616  0.3656  2.4401
   12MOL    H94 4296   4.745   6.158   6.999 -0.2890 -0.6997 -1.4017
   12MOL    H95 4297   4.740   6.141   6.826  0.5894  0.4922 -1.1412
   12MOL    H96 4298   4.881   6.218   6.912  0.6274 -0.0379  0.6096
   12MOL    C97 4299   5.147   5.867   7.392 -0.0533 -0.3099  0.1207
   12MOL    C98 4300   5.285   5.808   7.355  1.4585  0.7405 -0.4341
   12MOL    C99 4301   5.396   5.839   7.462  0.5035 -0.1289  0.0522
   12MOL   C100 4302   5.530   5.776   7.429  0.8269 -0.3776 -0.4003
   12MOL   C101 4303   5.616   5.788   7.551  0.1058 -0.2532  0.1607
   12MOL   C102 4304   5.762   5.727   7.536  0.5107  0.8058 -0.3784
   12MOL   O103 4305   5.280   5.670   7.325  0.0797  0.4332 -0.7287
   12MOL   H104 4306   5.105   5.816   7.479 -0.9275 -1.2522 -0.8595
   12MOL   H105 4307   5.161   5.971   7.422  0.0347 -0.9313  2.3473
   12MOL   H106 4308   5.311   5.863   7.265 -1.6499 -0.8395 -2.3760
   12MOL   H107 4309   5.352   5.800   7.553  1.2430 -1.4031 -0.1192
   12MOL   H108 4310   5.409   5.946   7.477 -0.0384 -0.0072 -0.3324
   12MOL   H109 4311   5.569   5.822   7.338  3.1301 -2.0783 -0.3011
   12MOL   H110 4312   5.508   5.672   7.408  0.8235  0.2060 -3.5412
   12MOL   H111 4313   5.572   5.742   7.640 -0.0751  0.9213  0.6857
   12MOL   H112 4314   5.634   5.889   7.587  0.4005 -0.5725  0.9327
   12MOL   H113 4315   5.808   5.750   7.439  0.4523 -0.5621 -0.7416
   12MOL   H114 4316   5.838   5.749   7.611 -1.4992 -1.5795  2.4769
   12MOL   H115 4317   5.757   5.618   7.544 -0.4301  0.8098 -0.8907
   12MOL   C116 4318   5.288   5.625   7.191 -0.2279  0.3245 -0.0840
   12MOL   C117 4319   5.304   5.469   7.189  0.6690 -0.6741 -0.0914
   12MOL   C118 4320   5.199   5.402   7.278  0.3619  0.0801 -0.1958
   12MOL   C119 4321   5.193   5.246   7.265 -0.0993  0.3886  0.0674
   12MOL   C120 4322   5.073   5.196   7.340 -0.8039 -0.1707 -0.3743
   12MOL   C121 4323   5.050   5.048   7.294 -0.3985  1.0886 -0.5379
   12MOL   O122 4324   5.427   5.418   7.235 -0.2145 -0.2256  0.5144
   12MOL   H123 4325   5.194   5.654   7.143  0.6454  2.2869 -0.6309
   12MOL   H124 4326   5.366   5.677   7.136  1.0659  0.0745  1.4743
   12MOL   H125 4327   5.280   5.443   7.086  1.2547 -3.9951  0.5681
   12MOL   H126 4328   5.210   5.437   7.380  2.3526  2.3624 -1.1433
   12MOL   H127 4329   5.103   5.442   7.245  0.8667  1.6274  0.1399
   12MOL   H128 4330   5.285   5.203   7.302 -0.5514  1.0607  2.0920
   12MOL   H129 4331   5.175   5.229   7.159  0.7185 -0.2360  0.0301
   12MOL   H130 4332   5.095   5.206   7.447  0.6057 -2.0813 -0.4671
   12MOL   H131 4333   4.986   5.257   7.318 -0.4293 -0.0247 -1.4870
   12MOL   H132 4334   4.963   5.006   7.345  0.7284  0.7642  1.1733
   12MOL   H133 4335   5.025   5.039   7.188  2.2530 -1.1571 -1.0354
   12MOL   H134 4336   5.141   4.989   7.302 -0.4237  1.1150 -0.0385
   12MOL   C135 4337   5.545   5.455   7.173 -0.0074  0.4804 -0.0768
   12MOL   C136 4338   5.651   5.340   7.182 -0.4884  0.2094 -0.4230
   12MOL   C137 4339   5.797   5.399   7.204 -0.5272 -0.2945  0.6185
   12MOL   C138 4340   5.913   5.300   7.254 -0.2799  0.5236 -0.1970
   12MOL   C139 4341   5.949   5.193   7.142  0.4072  0.5740 -0.2062
   12MOL   C140 4342   6.073   5.101   7.166  0.1528  0.0426  0.0939
   12MOL   O141 4343   5.664   5.274   7.058 -0.1502  1.0097 -0.0894
   12MOL   H142 4344   5.525   5.467   7.066 -0.0749  0.7718 -0.0323
   12MOL   H143 4345   5.578   5.553   7.206  0.5979  0.9883 -2.1193
   12MOL   H144 4346   5.633   5.263   7.258  1.7328 -2.0420 -2.1150
   12MOL   H145 4347   5.833   5.440   7.110 -3.3897  0.2900 -0.2665
   12MOL   H146 4348   5.792   5.482   7.275 -2.0639  0.5369 -0.4248
   12MOL   H147 4349   5.880   5.238   7.338  1.5305 -1.1945 -0.7250
   12MOL   H148 4350   5.999   5.359   7.283  1.8159 -1.0154 -3.0696
   12MOL   H149 4351   5.966   5.234   7.042 -0.6247 -1.4411 -1.2427
   12MOL   H150 4352   5.863   5.128   7.127  0.0682  0.8691  0.4625
   12MOL   H151 4353   6.061   5.027   7.246  3.1622  0.1644  0.6995
   12MOL   H152 4354   6.092   5.025   7.089 -1.1628 -0.5895  0.3713
   12MOL   H153 4355   6.164   5.159   7.177  0.3538 -0.2366 -0.0624
   12MOL   C154 4356   5.559   5.191   7.017 -0.5848 -0.3789 -0.1440
   12MOL   C155 4357   5.610   5.095   6.901 -0.0218 -0.2626  0.3042
   12MOL   C156 4358   5.559   4.961   6.925  0.1776 -0.1220  0.5163
   12MOL   C157 4359   5.588   4.847   6.825  0.1433  0.9656 -0.1467
   12MOL   C158 4360   5.550   4.708   6.886 -0.4281 -0.2547  0.2062
   12MOL   C159 4361   5.403   4.713   6.931  0.5817 -0.0095  0.0317
   12MOL   O160 4362   5.566   5.147   6.778 -0.2478  0.2922  0.5187
   12MOL   H161 4363   5.465   5.240   6.992 -0.9748 -1.3275 -0.5681
   12MOL   H162 4364   5.533   5.123   7.099 -0.0003 -0.1714  0.2104
   12MOL   H163 4365   5.718   5.091   6.916 -0.1891 -0.2144  1.5320
   12MOL   H164 4366   5.450   4.964   6.937  0.1704  1.8055  0.0730
   12MOL   H165 4367   5.591   4.939   7.027  0.8324 -3.0972 -0.2663
   12MOL   H166 4368   5.695   4.843   6.804 -0.3881 -1.7875 -2.7429
   12MOL   H167 4369   5.524   4.847   6.736 -1.2020 -0.3438  0.7907
   12MOL   H168 4370   5.564   4.640   6.802  0.7536  0.5193 -0.2438
   12MOL   H169 4371   5.622   4.695   6.967 -0.8866  0.5973  0.7516
   12MOL   H170 4372   5.363   4.617   6.965 -1.3401  1.3915  1.8730
   12MOL   H171 4373   5.336   4.745   6.852  0.5968 -1.8837 -0.7600
   12MOL   H172 4374   5.380   4.783   7.011  0.3288  0.3061 -0.3190
   12MOL   C173 4375   5.634   5.263   6.730  0.1418 -0.1137  0.6326
   12MOL   C174 4376   5.592   5.307   6.587  0.0187 -0.0387  0.2364
   12MOL   C175 4377   5.619   5.450   6.550 -0.3826 -0.1603  0.7237
   12MOL   C176 4378   5.533   5.487   6.431  0.4332  0.5269  0.1972
   12MOL   C177 4379   5.579   5.623   6.374 -0.0841 -0.0645 -0.5523
   12MOL   C178 4380   5.604   5.747   6.477  0.1064 -0.0908 -0.4155
   12MOL   O179 4381   5.660   5.226   6.495  0.3172  0.5886 -0.0568
   12MOL   H180 4382   5.742   5.247   6.734 -0.1271 -1.9013  1.2087
   12MOL   H181 4383   5.615   5.348   6.795 -0.5348  0.6798 -0.5884
   12MOL   H182 4384   5.484   5.297   6.585 -0.0621  0.9288 -0.5388
   12MOL   H183 4385   5.589   5.503   6.641 -2.0369 -1.2630  0.8336
   12MOL   H184 4386   5.724   5.474   6.532 -0.3293  0.8919  2.3105
   12MOL   H185 4387   5.535   5.423   6.343  2.4633  0.0187  0.5742
   12MOL   H186 4388   5.430   5.501   6.463  0.6902  0.1830  1.2094
   12MOL   H187 4389   5.666   5.604   6.311 -2.5074 -2.8659 -3.2133
   12MOL   H188 4390   5.507   5.661   6.303 -1.0990 -2.4240 -0.8395
   12MOL   H189 4391   5.602   5.844   6.427  0.3732  0.2045  0.1315
   12MOL   H190 4392   5.693   5.733   6.539  0.2506  1.4777 -0.2329
   12MOL   H191 4393   5.527   5.742   6.553  0.4397  1.1527  0.0156
   12MOL   C192 4394   5.606   5.103   6.469  0.1557 -0.5861  0.9346
   12MOL   C193 4395   5.630   5.076   6.319 -0.1709 -0.3305  0.3795
   12MOL   C194 4396   5.563   4.939   6.277 -0.4293  0.1240 -0.0564
   12MOL   C195 4397   5.569   4.913   6.121 -0.7432 -0.0136 -0.0252
   12MOL   C196 4398   5.550   4.767   6.092  0.5077 -0.1848 -0.1527
   12MOL   C197 4399   5.569   4.735   5.946  0.3122 -0.7572 -0.4386
   12MOL   O198 4400   5.768   5.046   6.291 -0.4869 -0.2575 -0.2760
   12MOL   H199 4401   5.642   5.016   6.524 -1.4176 -2.1389 -0.4536
   12MOL   H200 4402   5.498   5.110   6.479 -0.1040  0.1992 -1.8512
   12MOL   H201 4403   5.593   5.152   6.251  1.3937  0.0130 -0.0999
   12MOL   H202 4404   5.600   4.849   6.327  0.3114  0.3233 -0.2423
   12MOL   H203 4405   5.458   4.942   6.303 -0.2868 -0.4846  0.6088
   12MOL   H204 4406   5.673   4.931   6.095 -0.2272  1.8545  3.0501
   12MOL   H205 4407   5.513   4.990   6.067  0.3841 -0.1885 -1.4529
   12MOL   H206 4408   5.625   4.712   6.149 -0.2105 -1.6403 -0.5869
   12MOL   H207 4409   5.450   4.730   6.114  0.8120 -1.2874 -0.6085
   12MOL   H208 4410   5.565   4.628   5.922  0.4668 -0.4879 -1.6848
   12MOL   H209 4411   5.482   4.779   5.897 -0.5020 -0.3264  1.3323
   12MOL   H210 4412   5.660   4.783   5.910  0.3074 -0.2219  0.2520
   12MOL   C211 4413   5.838   5.161   6.250  0.6872  0.0093  0.6137
   12MOL   C212 4414   5.980   5.123   6.201 -0.0188 -0.0357 -0.5449
   12MOL   C213 4415   6.061   5.246   6.152  0.7380  0.8522 -0.4437
   12MOL   C214 4416   6.205   5.202   6.113  0.5301  0.0447  0.0690
   12MOL   C215 4417   6.298   5.319   6.079 -0.0232 -0.0529  0.0669
   12MOL   C216 4418   6.247   5.406   5.958 -0.0828 -0.2587  0.2400
   12MOL   O217 4419   5.962   5.025   6.102  0.3945 -0.0069  0.0528
   12MOL   H218 4420   5.842   5.228   6.337 -0.9027  1.0128 -0.0511
   12MOL   H219 4421   5.782   5.216   6.174 -1.0422 -2.8422 -0.2467
   12MOL   H220 4422   6.041   5.084   6.283 -1.2111  2.0539  1.3591
   12MOL   H221 4423   6.007   5.286   6.066 -1.5104 -1.2243 -0.0417
   12MOL   H222 4424   6.076   5.313   6.236 -0.1335  0.3723  0.0950
   12MOL   H223 4425   6.245   5.142   6.195  0.5082  0.6432  0.5186
   12MOL   H224 4426   6.191   5.140   6.025  0.8057 -0.1333  0.1502
   12MOL   H225 4427   6.306   5.386   6.165  2.9981  1.1877 -1.1034
   12MOL   H226 4428   6.398   5.277   6.069 -0.0771 -1.0177  3.1422
   12MOL   H227 4429   6.252   5.363   5.858  1.4800  0.3266  0.0592
   12MOL   H228 4430   6.307   5.496   5.966  2.6283 -1.9126 -0.6355
   12MOL   H229 4431   6.144   5.438   5.974 -0.5025 -0.7619 -1.3211
   12MOL   C230 4432   6.009   4.896   6.137  0.6259  0.1431  0.2901
   12MOL   C231 4433   5.979   4.808   6.015  0.0504 -0.3003 -0.3687
   12MOL   C232 4434   5.991   4.660   6.049 -0.2687 -0.1352  0.3469
   12MOL   C233 4435   5.969   4.562   5.935  0.5077  0.5102  0.2429
   12MOL   C234 4436   6.005   4.420   5.979  0.1545  0.3351 -0.3484
   12MOL   C235 4437   5.982   4.308   5.873 -0.2127 -0.6799  0.2155
   12MOL   O236 4438   6.068   4.831   5.908 -0.2656  0.0697 -0.3809
   12MOL   H237 4439   6.113   4.897   6.168  1.3840  1.7953 -2.2119
   12MOL   H238 4440   5.945   4.867   6.221 -3.4972  1.2945 -2.2774
   12MOL   H239 4441   5.876   4.833   5.987  0.1828  0.0135 -0.5738
   12MOL   H240 4442   5.908   4.641   6.117 -1.9364  1.4183 -1.2092
   12MOL   H241 4443   6.084   4.641   6.102  0.1281 -0.4558 -0.4619
   12MOL   H242 4444   6.040   4.592   5.858  1.8545  1.4062  1.7944
   12MOL   H243 4445   5.867   4.577   5.900 -0.1533 -0.8638  1.5222
   12MOL   H244 4446   6.107   4.418   6.016 -0.2363  1.0187  0.7925
   12MOL   H245 4447   5.945   4.403   6.069  0.5710  0.9708  0.0562
   12MOL   H246 4448   5.875   4.310   5.850 -0.2810  1.3694  0.6305
   12MOL   H247 4449   6.004   4.212   5.919  0.3949  0.1756  1.7254
   12MOL   H248 4450   6.042   4.320   5.783 -1.5540  0.7965 -0.5182
   12MOL   C249 4451   6.012   4.908   5.802  0.6255  0.0083 -0.4640
   12MOL   C250 4452   6.107   4.955   5.691 -0.1495  0.0781  0.1370
   12MOL   C251 4453   6.064   5.090   5.623  0.1286  0.2242  0.5143
   12MOL   C252 4454   6.156   5.134   5.506  0.1185  0.3054  0.3394
   12MOL   C253 4455   6.136   5.273   5.458 -0.4501 -0.6225 -0.1324
   12MOL   C254 4456   6.229   5.387   5.520  0.6645 -0.5883 -0.2243
   12MOL   O255 4457   6.113   4.861   5.583  0.3721 -0.1113 -0.5556
   12MOL   H256 4458   5.924   4.857   5.764  0.1793 -0.4419  1.1488
   12MOL   H257 4459   5.964   4.995   5.846  1.8872  0.0357  0.9298
   12MOL   H258 4460   6.203   4.976   5.739  0.1461 -1.5247  0.2848
   12MOL   H259 4461   5.963   5.091   5.581 -0.0596  0.7801  0.9785
   12MOL   H260 4462   6.065   5.164   5.703  1.7653  0.8107 -0.0421
   12MOL   H261 4463   6.261   5.113   5.526  0.3667 -1.2328 -2.3393
   12MOL   H262 4464   6.138   5.072   5.418 -1.5626  0.9051  0.2492
   12MOL   H263 4465   6.154   5.269   5.351  1.9044  1.5794  0.1158
   12MOL   H264 4466   6.033   5.304   5.470  0.8083  3.1128  1.6414
   12MOL   H265 4467   6.239   5.383   5.629 -0.6308 -0.1951 -0.0858
   12MOL   H266 4468   6.175   5.479   5.497  2.5142  0.2047 -1.5025
   12MOL   H267 4469   6.335   5.380   5.495  0.9655  0.3149  0.7287
   12MOL   C268 4470   6.174   4.732   5.610  0.2167 -0.6736 -0.1996
   12MOL   C269 4471   6.188   4.649   5.480 -0.3449  0.0210  0.7789
   12MOL   C270 4472   6.291   4.690   5.381 -0.8889  0.7138  0.3731
   12MOL   C271 4473   6.293   4.600   5.252  0.1454 -0.0539  0.0924
   12MOL   C272 4474   6.412   4.643   5.154  0.7529 -0.5500 -0.2436
   12MOL   C273 4475   6.424   4.540   5.041  0.7988 -0.3131  0.5106
   12MOL   O274 4476   6.061   4.661   5.416 -0.0427  0.6414 -0.0534
   12MOL   H275 4477   6.119   4.681   5.689  1.2471  1.4391  1.9414
   12MOL   H276 4478   6.271   4.750   5.656  0.4604  1.1842 -1.3862
   12MOL   H277 4479   6.216   4.549   5.511  4.0223  1.4977  1.9643
   12MOL   H278 4480   6.265   4.794   5.364 -1.2842  0.3343 -1.4810
   12MOL   H279 4481   6.391   4.682   5.423 -0.7825  0.9014  0.1603
   12MOL   H280 4482   6.302   4.496   5.283  2.6365  0.0597 -0.1637
   12MOL   H281 4483   6.202   4.623   5.197  0.2296 -0.4383 -0.2069
   12MOL   H282 4484   6.403   4.745   5.116  1.4647  0.0518  1.2035
   12MOL   H283 4485   6.504   4.645   5.211 -0.3232  3.0749  1.5300
   12MOL   H284 4486   6.344   4.544   4.967 -0.7433 -3.0042  1.9519
   12MOL   H285 4487   6.510   4.552   4.974  1.2410 -1.5053  0.8463
   12MOL   H286 4488   6.420   4.438   5.080 -0.5569  0.1611  1.6386
   12MOL   C287 4489   5.952   4.604   5.487  0.0807 -0.3724  0.6520
   12MOL   C288 4490   5.825   4.607   5.391  0.1624  0.0539 -0.3652
   12MOL   C289 4491   5.690   4.614   5.473  0.2833 -0.4505 -0.0493
   12MOL   C290 4492   5.675   4.526   5.599  0.5567  0.8802  0.1615
   12MOL   C291 4493   5.532   4.528   5.665 -0.6064  0.4058  0.5470
   12MOL   C292 4494   5.486   4.412   5.760  0.3986 -0.2559 -0.3670
   12MOL   O293 4495   5.814   4.497   5.301  0.0195  0.7991  0.2746
   12MOL   H294 4496   5.932   4.659   5.579 -1.1359  1.2599 -0.5598
   12MOL   H295 4497   5.970   4.499   5.508  1.5990 -0.7747 -2.4700
   12MOL   H296 4498   5.826   4.698   5.330  3.2982  0.4564  0.2104
   12MOL   H297 4499   5.669   4.719   5.494  1.4407 -0.0845 -0.6442
   12MOL   H298 4500   5.603   4.597   5.409 -0.6692  0.7688  0.9107
   12MOL   H299 4501   5.705   4.424   5.574 -1.1607  0.4724 -0.3354
   12MOL   H300 4502   5.736   4.556   5.684 -0.9310  0.2533  1.4784
   12MOL   H301 4503   5.469   4.516   5.577  1.7277  3.7002 -1.7108
   12MOL   H302 4504   5.499   4.627   5.697 -1.5551  0.3962 -0.3873
   12MOL   H303 4505   5.525   4.318   5.720  1.8210  0.0886  0.2001
   12MOL   H304 4506   5.519   4.425   5.863  0.2189  2.0219 -0.5676
   12MOL   H305 4507   5.379   4.405   5.776  0.5468  0.5956  1.0864
   12MOL   C306 4508   5.918   4.487   5.210  0.3456 -0.1512 -0.6085
   12MOL   C307 4509   5.870   4.376   5.119 -0.4992  0.7272  0.0491
   12MOL   C308 4510   5.886   4.242   5.198  0.1483  0.9094 -0.3219
   12MOL   C309 4511   5.853   4.111   5.119  0.4069 -0.0895 -0.0331
   12MOL   C310 4512   5.879   3.978   5.206  0.0914  0.7201  0.2662
   12MOL   C311 4513   5.878   3.843   5.127  0.3487 -0.4273  0.3479
   12MOL   O312 4514   5.951   4.348   5.011 -0.5843  0.9157  0.2495
   12MOL   H313 4515   5.936   4.582   5.160 -0.7480  0.5778  0.3549
   12MOL   H314 4516   6.017   4.464   5.250  0.5515  0.8588 -0.5131
   12MOL   H315 4517   5.767   4.394   5.091 -0.6522 -1.4673 -0.9069
   12MOL   H316 4518   5.823   4.259   5.286  1.7431  2.1484  0.5915
   12MOL   H317 4519   5.991   4.241   5.225  0.0711  1.6946  0.0256
   12MOL   H318 4520   5.748   4.122   5.094 -0.0555  0.9255  2.2198
   12MOL   H319 4521   5.911   4.102   5.027  1.3143  0.9108  0.4374
   12MOL   H320 4522   5.810   3.977   5.289  0.3770 -0.0065  0.5029
   12MOL   H321 4523   5.980   3.978   5.249  2.1685 -1.2993 -4.2702
   12MOL   H322 4524   5.919   3.769   5.197  3.8567  1.5752  0.4806
   12MOL   H323 4525   5.775   3.810   5.112  0.7294 -1.5602  0.1686
   12MOL   H324 4526   5.943   3.836   5.041  0.1794  1.6383  0.0245
   12MOL   C325 4527   5.948   4.439   4.906 -0.8014 -0.2638 -0.7183
   12MOL   C326 4528   6.049   4.408   4.793  0.1887  0.9534  0.4632
   12MOL   C327 4529   6.129   4.532   4.745  0.5167  0.1786  0.1310
   12MOL   C328 4530   6.257   4.499   4.659  0.3006 -0.6560 -0.2912
   12MOL   C329 4531   6.356   4.623   4.643 -0.0575  1.1793  0.0646
   12MOL   C330 4532   6.458   4.586   4.530  0.2747 -0.0166  0.0386
   12MOL   O331 4533   5.969   4.342   4.690  0.0295  0.1911 -0.4270
   12MOL   H332 4534   5.961   4.541   4.942 -0.1957 -1.0930  1.4864
   12MOL   H333 4535   5.845   4.443   4.870 -0.6507  0.2447 -1.1074
   12MOL   H334 4536   6.123   4.331   4.816 -0.6194  0.2371  0.7171
   12MOL   H335 4537   6.070   4.612   4.699 -1.3470 -1.4965 -0.4413
   12MOL   H336 4538   6.162   4.588   4.833  2.5440 -0.1698 -0.3889
   12MOL   H337 4539   6.324   4.422   4.697  1.5729 -0.5922 -2.3550
   12MOL   H338 4540   6.240   4.458   4.559  3.0119 -0.6026 -0.8026
   12MOL   H339 4541   6.294   4.702   4.600 -1.1870  0.3038  0.0294
   12MOL   H340 4542   6.408   4.651   4.734  0.7052  2.6945 -0.8403
   12MOL   H341 4543   6.513   4.677   4.505  1.0947 -0.9075 -1.4848
   12MOL   H342 4544   6.536   4.521   4.569 -1.0889 -0.7369  1.6150
   12MOL   H343 4545   6.404   4.548   4.443  0.3902 -0.4098  0.1420
   12MOL   C344 4546   5.924   4.204   4.710 -0.0539  0.2644 -0.1953
   12MOL   C345 4547   5.910   4.117   4.579  0.0860 -0.2026  0.3943
   12MOL   C346 4548   5.970   3.977   4.591  0.4042 -0.8007 -0.6896
   12MOL   C347 4549   5.966   3.910   4.458  0.3287  0.0837  0.4417
   12MOL   C348 4550   6.052   3.784   4.426  0.6292 -0.2228 -0.1728
   12MOL   C349 4551   6.205   3.807   4.416 -0.5759  0.0648 -0.1053
   12MOL   O350 4552   5.767   4.108   4.554 -0.5906  0.7200  0.3801
   12MOL   H351 4553   5.830   4.203   4.765  0.5672  0.3064  0.8807
   12MOL   H352 4554   5.993   4.156   4.779 -0.5836  2.0369  1.6110
   12MOL   H353 4555   5.959   4.173   4.499  2.8656 -1.5003  1.1394
   12MOL   H354 4556   5.917   3.920   4.668  0.0770  2.3839  1.5277
   12MOL   H355 4557   6.070   3.984   4.634  0.5128 -1.0104 -0.9022
   12MOL   H356 4558   5.990   3.989   4.386 -0.6707 -1.9441 -2.2031
   12MOL   H357 4559   5.862   3.895   4.428 -0.3376 -0.2055  2.8160
   12MOL   H358 4560   6.015   3.744   4.332  1.6272 -2.0523  0.1742
   12MOL   H359 4561   6.028   3.701   4.494 -2.5880  0.1420 -0.7789
   12MOL   H360 4562   6.233   3.885   4.346 -0.8415  0.1627 -0.1024
   12MOL   H361 4563   6.261   3.715   4.398 -3.1995 -1.5530 -0.3897
   12MOL   H362 4564   6.233   3.846   4.513  0.9850  3.8917 -1.9786
   12MOL   C363 4565   5.714   4.215   4.470 -0.1926  0.1999 -0.5081
   12MOL   C364 4566   5.564   4.207   4.480 -0.0067 -0.4811  0.1001
   12MOL   C365 4567   5.494   4.077   4.448  0.2385 -0.0497  0.1811
   12MOL   C366 4568   5.346   4.086   4.459  0.5996  0.3356  0.8621
   12MOL   C367 4569   5.278   3.968   4.398  0.5094  0.2053  0.0236
   12MOL   C368 4570   5.125   3.970   4.409  0.4899 -0.0641  0.4798
   12MOL   O369 4571   5.534   4.240   4.618  0.2433  0.3967  0.7587
   12MOL   H370 4572   5.745   4.181   4.372 -0.4332 -0.6145 -0.3140
   12MOL   H371 4573   5.763   4.299   4.519 -0.0748 -0.0560 -0.1838
   12MOL   H372 4574   5.519   4.283   4.415  1.2975 -0.9656 -1.3774
   12MOL   H373 4575   5.524   4.054   4.345  0.1300 -0.4155  0.2318
   12MOL   H374 4576   5.531   3.995   4.511 -0.3132  0.2636  0.9158
   12MOL   H375 4577   5.317   4.112   4.561  0.4449  0.3340  0.8190
   12MOL   H376 4578   5.309   4.167   4.396  1.9863  0.3793  0.0746
   12MOL   H377 4579   5.303   3.970   4.292 -0.3888 -0.4803 -0.2105
   12MOL   H378 4580   5.308   3.869   4.431 -0.6070 -1.0774 -2.6500
   12MOL   H379 4581   5.093   4.071   4.381 -2.4504 -1.7862 -2.7092
   12MOL   H380 4582   5.088   3.888   4.347  1.3558 -0.5586  0.6008
   12MOL   H381 4583   5.095   3.958   4.513  1.5840 -0.6563  0.7368
   12MOL   H382 4584   5.602   4.191   4.662  1.9420  0.5020 -1.6327
   13MOL     C1 4585   4.491   0.642   1.807  0.5046  0.0879 -0.4526
   13MOL     C2 4586   4.471   0.553   1.688  0.4591 -0.3682  0.8325
   13MOL     C3 4587   4.509   0.403   1.715  0.6020  0.0953  0.2779
   13MOL     C4 4588   4.538   0.321   1.588 -0.0640 -0.4183  0.0246
   13MOL     C5 4589   4.604   0.185   1.593  0.0423  0.7705  0.6799
   13MOL     C6 4590   4.642   0.153   1.446  0.5090 -0.0237 -0.1835
   13MOL     O7 4591   4.338   0.562   1.649  0.1119 -0.0721  0.0761
   13MOL     H8 4592   4.417   0.618   1.884  1.7694 -2.3532  0.0301
   13MOL     H9 4593   4.483   0.749   1.785 -2.0088  0.3830  1.6151
   13MOL    H10 4594   4.534   0.594   1.610 -0.1998 -0.3730  0.2901
   13MOL    H11 4595   4.596   0.398   1.780  2.2274  0.4863 -1.8075
   13MOL    H12 4596   4.444   0.345   1.780  0.4611 -0.7535 -0.6135
   13MOL    H13 4597   4.451   0.322   1.523  0.3245  1.3132 -0.4883
   13MOL    H14 4598   4.603   0.391   1.535 -0.3881  0.0169  0.2037
   13MOL    H15 4599   4.698   0.188   1.648  0.2464 -0.5204  0.4153
   13MOL    H16 4600   4.539   0.107   1.633 -0.0381  0.9973  0.9857
   13MOL    H17 4601   4.715   0.222   1.404  1.4761 -0.0264  1.4385
   13MOL    H18 4602   4.680   0.051   1.439  1.5903  0.3374  0.3505
   13MOL    H19 4603   4.549   0.163   1.391 -1.0724  0.5652  2.5014
   13MOL    H20 4604   4.589   0.618   1.848  0.8121 -2.4234 -2.5351
   13MOL    C21 4605   4.323   0.645   1.540 -0.1240 -0.3404  0.0942
   13MOL    C22 4606   4.177   0.691   1.522  0.6311  0.0314  0.5141
   13MOL    C23 4607   4.158   0.824   1.445 -0.1176  0.1659  0.0355
   13MOL    C24 4608   4.018   0.893   1.451 -0.0906  0.4184 -0.3507
   13MOL    C25 4609   4.022   1.026   1.377  0.4180 -0.0586  0.6952
   13MOL    C26 4610   3.882   1.082   1.384  0.0163  0.1036 -0.3827
   13MOL    O27 4611   4.102   0.593   1.438 -0.3151 -0.2759  0.4410
   13MOL    H28 4612   4.385   0.731   1.567  1.8352 -1.8156  0.4573
   13MOL    H29 4613   4.368   0.614   1.446  1.5669 -1.8520  1.3691
   13MOL    H30 4614   4.132   0.708   1.620 -2.8558  0.5859 -1.1084
   13MOL    H31 4615   4.187   0.824   1.340 -2.0973 -0.7878 -0.5304
   13MOL    H32 4616   4.235   0.890   1.486  1.9590 -1.1468 -1.6397
   13MOL    H33 4617   3.993   0.902   1.556  0.4917  1.3804 -0.2920
   13MOL    H34 4618   3.945   0.825   1.407 -0.0130  0.8318 -1.1296
   13MOL    H35 4619   4.089   1.094   1.428  3.2354 -1.3723 -1.1239
   13MOL    H36 4620   4.044   1.020   1.270 -0.3671  0.3293  0.5057
   13MOL    H37 4621   3.863   1.112   1.487  1.7784  0.9503 -0.2933
   13MOL    H38 4622   3.808   1.008   1.353  0.8697 -1.1525  0.5140
   13MOL    H39 4623   3.873   1.175   1.328 -0.8820  0.7034  0.7159
   13MOL    C40 4624   4.105   0.457   1.469 -0.2320 -0.3829 -0.0176
   13MOL    C41 4625   4.013   0.429   1.587  0.2954 -0.2999 -0.5068
   13MOL    C42 4626   4.042   0.292   1.651 -0.1479  0.1144 -0.5866
   13MOL    C43 4627   3.951   0.260   1.774  0.1662 -0.4116 -0.3344
   13MOL    C44 4628   3.916   0.110   1.777  0.1563  0.4407  0.4194
   13MOL    C45 4629   3.809   0.062   1.679 -0.3332  0.4900  0.0068
   13MOL    O46 4630   3.877   0.424   1.554  0.2757 -0.1340  0.6841
   13MOL    H47 4631   4.210   0.431   1.480  0.0255  0.2538 -0.9510
   13MOL    H48 4632   4.083   0.390   1.386  1.3929 -0.0979 -0.6942
   13MOL    H49 4633   4.031   0.510   1.657  0.7238 -1.4573  0.7482
   13MOL    H50 4634   4.007   0.222   1.575  0.4994 -1.3673  0.4361
   13MOL    H51 4635   4.149   0.271   1.663 -0.1770  0.1417 -0.2798
   13MOL    H52 4636   3.863   0.325   1.779 -0.6037 -1.5800  2.7923
   13MOL    H53 4637   4.005   0.280   1.867  1.9557  2.9201 -2.0291
   13MOL    H54 4638   4.005   0.049   1.759 -0.3891 -0.6316  1.2968
   13MOL    H55 4639   3.874   0.088   1.875  0.4776 -2.0077  0.0447
   13MOL    H56 4640   3.711   0.111   1.681 -1.0047 -0.8818  0.9841
   13MOL    H57 4641   3.839   0.071   1.574 -1.7758 -0.2658 -0.4879
   13MOL    H58 4642   3.786   7.742   1.688 -2.3919  0.9177  0.0523
   13MOL    C59 4643   3.824   0.538   1.485 -0.3212  0.4306 -0.5402
   13MOL    C60 4644   3.672   0.555   1.504  0.0782 -0.4236 -0.5614
   13MOL    C61 4645   3.633   0.702   1.482 -0.2784  0.4451  0.1205
   13MOL    C62 4646   3.486   0.710   1.509  0.3575  0.2760 -0.3982
   13MOL    C63 4647   3.441   0.857   1.504  0.0281  0.2620 -0.1399
   13MOL    C64 4648   3.292   0.883   1.513 -0.2651 -0.2767  0.1126
   13MOL    O65 4649   3.595   0.469   1.423  0.0848 -0.4833  0.0184
   13MOL    H66 4650   3.850   0.518   1.381 -0.6572  0.9026 -0.7189
   13MOL    H67 4651   3.879   0.627   1.514  0.9293  0.3603 -2.5433
   13MOL    H68 4652   3.655   0.526   1.607 -0.6888  3.0216  0.3501
   13MOL    H69 4653   3.652   0.722   1.377  2.0183 -0.6665  0.3058
   13MOL    H70 4654   3.681   0.781   1.539 -1.3847 -0.3319  2.2102
   13MOL    H71 4655   3.458   0.658   1.600  1.2732 -0.3432 -0.4683
   13MOL    H72 4656   3.452   0.665   1.416 -0.6738  1.1666 -0.4679
   13MOL    H73 4657   3.484   0.908   1.418  2.7110  1.2016  1.7023
   13MOL    H74 4658   3.485   0.908   1.590  2.0812 -0.8468 -0.4931
   13MOL    H75 4659   3.250   0.839   1.603 -0.6639 -0.8811 -0.3685
   13MOL    H76 4660   3.279   0.992   1.511  2.1567  0.0364  0.0746
   13MOL    H77 4661   3.232   0.837   1.435 -0.1081 -1.8915  0.9308
   13MOL    C78 4662   3.593   0.337   1.471 -1.0337 -0.0281 -0.2667
   13MOL    C79 4663   3.486   0.253   1.400 -0.2248 -0.0088 -0.1419
   13MOL    C80 4664   3.425   0.139   1.491  0.7045  0.5859 -0.8167
   13MOL    C81 4665   3.334   0.036   1.415  0.1595 -0.1785 -0.5619
   13MOL    C82 4666   3.250   7.725   1.507  0.9065 -0.2429  0.1098
   13MOL    C83 4667   3.176   7.616   1.430 -0.2859 -0.0916 -0.1420
   13MOL    O84 4668   3.535   0.202   1.277 -0.2899 -0.3650  0.4224
   13MOL    H85 4669   3.578   0.326   1.579 -1.3026 -0.6160 -0.3624
   13MOL    H86 4670   3.687   0.282   1.479 -0.5282  0.8306 -0.1734
   13MOL    H87 4671   3.397   0.310   1.373  0.4022  2.0213  1.8746
   13MOL    H88 4672   3.505   0.082   1.539 -1.3248 -2.0634 -0.4496
   13MOL    H89 4673   3.386   0.193   1.577  2.5700 -1.9497  1.7282
   13MOL    H90 4674   3.398   7.777   1.338  1.0969 -0.4597  0.3774
   13MOL    H91 4675   3.260   0.088   1.354 -0.4413 -0.2916  0.0619
   13MOL    H92 4676   3.330   7.682   1.567 -0.0245 -0.8186  0.9436
   13MOL    H93 4677   3.182   7.779   1.573 -1.7616 -3.0550 -0.2376
   13MOL    H94 4678   3.233   7.595   1.339  2.2033  0.5966  1.2227
   13MOL    H95 4679   3.079   7.655   1.400 -0.8973  0.1203  2.0394
   13MOL    H96 4680   3.169   7.529   1.494  0.1897 -0.7760 -0.9998
   13MOL    C97 4681   3.554   0.304   1.175 -0.3292 -0.3696  0.3271
   13MOL    C98 4682   3.614   0.233   1.051  0.0404 -0.3290  0.5764
   13MOL    C99 4683   3.558   0.298   0.921  0.0096 -0.2592  0.3696
   13MOL   C100 4684   3.630   0.240   0.800 -0.5310  0.5462 -0.7278
   13MOL   C101 4685   3.570   0.263   0.666 -0.2533 -0.2183 -0.1440
   13MOL   C102 4686   3.667   0.217   0.556 -0.3373 -0.2041  0.3624
   13MOL   O103 4687   3.756   0.247   1.048  0.5837 -0.7065 -0.1360
   13MOL   H104 4688   3.613   0.393   1.197 -0.6607  0.4671 -2.0740
   13MOL   H105 4689   3.455   0.336   1.145 -0.3081 -1.6053 -1.1160
   13MOL   H106 4690   3.590   0.127   1.055 -0.9694 -0.0813  1.8679
   13MOL   H107 4691   3.549   0.406   0.913 -1.4811 -0.4255 -0.4528
   13MOL   H108 4692   3.454   0.265   0.926  0.3759 -1.5161 -0.1519
   13MOL   H109 4693   3.620   0.132   0.810 -1.1797  0.4779 -2.0803
   13MOL   H110 4694   3.735   0.267   0.812 -1.4505  3.2361  1.8897
   13MOL   H111 4695   3.548   0.370   0.668  0.7912  0.0361 -1.2590
   13MOL   H112 4696   3.475   0.212   0.649 -1.5491  1.6303  1.4915
   13MOL   H113 4697   3.629   0.229   0.454 -1.6554 -0.2580  0.8371
   13MOL   H114 4698   3.762   0.267   0.575 -1.0293  1.7561 -1.1959
   13MOL   H115 4699   3.684   0.111   0.574  0.9207  0.1888  1.6182
   13MOL   C116 4700   3.828   0.205   1.161  0.4837 -0.5756 -0.3419
   13MOL   C117 4701   3.983   0.199   1.131 -0.2495 -0.5984 -0.1871
   13MOL   C118 4702   4.043   0.118   1.246  0.6435 -0.2581 -0.1185
   13MOL   C119 4703   4.200   0.115   1.262  0.4211 -0.5160 -0.7345
   13MOL   C120 4704   4.248   7.776   1.344  0.0346 -0.1493 -0.0408
   13MOL   C121 4705   4.210   0.008   1.488 -0.2919  0.4544  0.1186
   13MOL   O122 4706   4.049   0.327   1.149 -0.1108 -0.0296  0.2374
   13MOL   H123 4707   3.808   0.262   1.252  1.4304  0.1410 -0.5698
   13MOL   H124 4708   3.797   0.103   1.182 -0.2855 -0.6839 -1.9593
   13MOL   H125 4709   4.024   0.146   1.045 -0.4799 -3.0673  1.1828
   13MOL   H126 4710   3.988   0.159   1.331 -0.0984 -0.2007 -0.6178
   13MOL   H127 4711   4.006   0.015   1.242  0.7438 -0.2396 -1.9085
   13MOL   H128 4712   4.229   0.208   1.311 -2.8726  0.4456 -0.5228
   13MOL   H129 4713   4.247   0.114   1.163  2.4403 -1.8078  0.1915
   13MOL   H130 4714   4.215   7.690   1.287 -1.6335  1.2538 -1.2561
   13MOL   H131 4715   4.357   7.770   1.340  0.0996 -0.5332  2.1692
   13MOL   H132 4716   4.220   7.698   1.538 -1.4977 -0.4886 -1.4148
   13MOL   H133 4717   4.268   0.088   1.535 -0.4590  0.6942 -0.0782
   13MOL   H134 4718   4.109   0.045   1.507 -0.9733 -1.4182  0.1569
   13MOL   C135 4719   4.033   0.412   1.033  0.4658 -0.6564 -0.1041
   13MOL   C136 4720   4.119   0.540   1.044  0.6770 -0.5343 -0.0524
   13MOL   C137 4721   4.080   0.624   0.924 -0.7858 -0.1757 -0.0566
   13MOL   C138 4722   4.182   0.735   0.907  0.4580 -0.5710 -0.0366
   13MOL   C139 4723   4.158   0.833   0.791  0.3126  0.1134 -0.8159
   13MOL   C140 4724   4.251   0.948   0.784 -0.2068 -0.0896 -0.0070
   13MOL   O141 4725   4.261   0.509   1.049 -0.4623 -0.4299  0.3455
   13MOL   H142 4726   4.071   0.352   0.950 -0.2374  0.5008 -1.3048
   13MOL   H143 4727   3.927   0.432   1.013  0.4096 -0.2607  0.5964
   13MOL   H144 4728   4.083   0.588   1.135 -0.8078 -2.6680  0.5222
   13MOL   H145 4729   4.073   0.563   0.834  0.3914 -1.6706  0.8454
   13MOL   H146 4730   3.980   0.663   0.945 -0.2433  0.9688  0.4360
   13MOL   H147 4731   4.281   0.692   0.889  0.5125  0.0759 -1.2921
   13MOL   H148 4732   4.183   0.788   1.003 -0.5714 -0.7349  0.0609
   13MOL   H149 4733   4.058   0.877   0.796  1.2157  2.2268 -1.0117
   13MOL   H150 4734   4.167   0.785   0.693  1.9715  1.7396 -1.5035
   13MOL   H151 4735   4.254   1.007   0.876 -0.8649  0.9015 -0.6139
   13MOL   H152 4736   4.354   0.926   0.757 -0.7777 -0.6939 -1.7130
   13MOL   H153 4737   4.213   1.006   0.700  0.9878 -0.8604 -1.0964
   13MOL   C154 4738   4.315   0.517   1.181  0.3029  0.2689 -0.1814
   13MOL   C155 4739   4.465   0.465   1.186 -0.1633 -0.2510 -0.3221
   13MOL   C156 4740   4.480   0.336   1.105 -0.1307 -0.2081  0.0803
   13MOL   C157 4741   4.624   0.273   1.107 -0.3723  0.0446 -0.2578
   13MOL   C158 4742   4.634   0.142   1.025  0.0294  0.1879 -0.8580
   13MOL   C159 4743   4.573   0.014   1.091  0.6707 -0.4275 -0.5049
   13MOL   O160 4744   4.568   0.564   1.171  0.4484 -0.2053  0.2602
   13MOL   H161 4745   4.255   0.449   1.242  2.0638 -0.9256  0.2451
   13MOL   H162 4746   4.307   0.619   1.217 -1.6930 -0.3237  1.1365
   13MOL   H163 4747   4.487   0.432   1.288  2.9310  1.2141 -0.4651
   13MOL   H164 4748   4.467   0.356   0.999 -0.9949  0.6727  0.3443
   13MOL   H165 4749   4.404   0.265   1.137  0.2379 -0.1662  1.0607
   13MOL   H166 4750   4.667   0.265   1.207 -0.1288 -1.6701 -0.4757
   13MOL   H167 4751   4.693   0.338   1.054  1.9493 -1.7970  0.3845
   13MOL   H168 4752   4.610   0.150   0.919 -0.1841 -3.8127 -1.1969
   13MOL   H169 4753   4.740   0.115   1.023  0.1489  0.5641 -0.0439
   13MOL   H170 4754   4.468   0.019   1.121  0.6816  0.5657 -0.6037
   13MOL   H171 4755   4.624   7.772   1.184  1.2123  0.0573 -0.6560
   13MOL   H172 4756   4.594   7.714   1.028  3.0102  0.4841 -1.0331
   13MOL   C173 4757   4.563   0.639   1.055 -0.1542 -0.4700 -0.3264
   13MOL   C174 4758   4.632   0.772   1.081  1.4613  0.1178  0.5042
   13MOL   C175 4759   4.629   0.858   0.951 -0.9566  0.4421  0.5190
   13MOL   C176 4760   4.705   0.993   0.962 -0.3038 -0.1154 -0.2450
   13MOL   C177 4761   4.675   1.092   0.849 -0.0946 -0.0491 -0.9026
   13MOL   C178 4762   4.773   1.212   0.853 -0.7077  0.1479  0.7589
   13MOL   O179 4763   4.573   0.859   1.176 -0.2682  0.1512  0.4753
   13MOL   H180 4764   4.461   0.652   1.021 -0.1164  0.6675 -0.0336
   13MOL   H181 4765   4.611   0.582   0.976 -0.4133  0.9858 -1.5478
   13MOL   H182 4766   4.735   0.752   1.111  1.8216  2.4786  1.0093
   13MOL   H183 4767   4.665   0.794   0.870  0.0811  1.5642  0.0787
   13MOL   H184 4768   4.532   0.888   0.911 -0.6985  1.3638  0.5669
   13MOL   H185 4769   4.686   1.047   1.055  0.4381  1.9217 -1.2248
   13MOL   H186 4770   4.810   0.964   0.967 -0.0956  0.8202  1.4661
   13MOL   H187 4771   4.686   1.054   0.748 -1.0650  0.5266 -1.2309
   13MOL   H188 4772   4.573   1.126   0.865 -0.2241  0.0664 -2.0077
   13MOL   H189 4773   4.766   1.275   0.764  0.9512 -0.6538  0.0357
   13MOL   H190 4774   4.877   1.183   0.863 -0.8916 -0.6777  0.3241
   13MOL   H191 4775   4.741   1.269   0.940 -0.9150 -0.1905  0.9080
   13MOL   C192 4776   4.584   0.821   1.314  0.0683  0.9933  0.0974
   13MOL   C193 4777   4.639   0.939   1.386 -0.0910  0.9917 -0.0733
   13MOL   C194 4778   4.801   0.931   1.391  0.9130 -0.2031  0.2999
   13MOL   C195 4779   4.859   1.050   1.476  0.9216  0.1314 -0.4908
   13MOL   C196 4780   5.008   1.066   1.472 -0.1788  0.3671  0.2809
   13MOL   C197 4781   5.053   1.190   1.554  0.6125 -0.1321 -0.5351
   13MOL   O198 4782   4.602   0.950   1.520  0.1508 -0.2717 -0.1086
   13MOL   H199 4783   4.486   0.791   1.352  0.3929 -0.4015 -0.1222
   13MOL   H200 4784   4.651   0.734   1.319  0.5606  1.4119  0.9827
   13MOL   H201 4785   4.623   1.032   1.331 -1.0191  0.2639 -1.0451
   13MOL   H202 4786   4.827   0.835   1.435 -1.3261 -1.2793 -0.6407
   13MOL   H203 4787   4.835   0.921   1.288  1.8595  0.2351  0.5693
   13MOL   H204 4788   4.823   1.043   1.578  0.7922  2.0861 -0.3808
   13MOL   H205 4789   4.811   1.143   1.445  0.0098  0.1914  1.0752
   13MOL   H206 4790   5.052   0.980   1.523 -0.8487 -0.2735 -0.2106
   13MOL   H207 4791   5.055   1.056   1.374  0.9407 -0.5724  0.8951
   13MOL   H208 4792   5.017   1.285   1.513 -0.0791 -0.4917 -0.7555
   13MOL   H209 4793   5.027   1.178   1.659 -0.3347  2.0707 -0.4896
   13MOL   H210 4794   5.162   1.201   1.547  1.1351 -1.3423  3.9219
   13MOL   C211 4795   4.489   1.039   1.544  0.1533 -0.8410 -0.4857
   13MOL   C212 4796   4.457   1.046   1.694  0.5168  0.0005  1.3730
   13MOL   C213 4797   4.308   1.011   1.720  0.9726 -0.0294  0.2280
   13MOL   C214 4798   4.253   1.023   1.857 -1.0469  0.3839  0.2453
   13MOL   C215 4799   4.108   0.981   1.867  0.8068  0.4369  0.1079
   13MOL   C216 4800   4.011   1.092   1.822 -0.2748  0.1599 -0.7317
   13MOL   O217 4801   4.468   1.180   1.737  0.7236 -0.5930 -0.0768
   13MOL   H218 4802   4.403   1.000   1.489 -1.6527 -0.0097  1.6452
   13MOL   H219 4803   4.500   1.143   1.513 -1.3684 -0.7581 -0.8115
   13MOL   H220 4804   4.516   0.980   1.757 -0.8434  0.8380  3.5744
   13MOL   H221 4805   4.254   1.081   1.656 -0.1410 -0.6647  0.4522
   13MOL   H222 4806   4.291   0.909   1.685  1.4122 -0.2188  0.5695
   13MOL   H223 4807   4.303   0.946   1.916 -0.1638  1.8193  1.4159
   13MOL   H224 4808   4.265   1.124   1.897 -0.0970  0.7268 -0.8858
   13MOL   H225 4809   4.080   0.887   1.820 -0.3482  0.5628  0.5291
   13MOL   H226 4810   4.095   0.963   1.974 -0.6721  1.5582  0.1381
   13MOL   H227 4811   4.013   1.189   1.871 -0.0571 -0.7710  1.1614
   13MOL   H228 4812   3.908   1.056   1.830  0.3271 -1.6050 -0.7068
   13MOL   H229 4813   4.031   1.107   1.716  0.4993  1.9791 -0.3347
   13MOL   C230 4814   4.599   1.208   1.770 -0.0156 -0.2464  0.1284
   13MOL   C231 4815   4.612   1.358   1.789 -0.2867 -0.2986 -0.7237
   13MOL   C232 4816   4.582   1.447   1.667 -0.5664  0.4012  0.2726
   13MOL   C233 4817   4.687   1.434   1.551 -0.2678 -0.0737 -0.5724
   13MOL   C234 4818   4.682   1.552   1.459  0.4764 -0.4333  0.6555
   13MOL   C235 4819   4.745   1.682   1.510 -0.7631 -1.2761 -0.1182
   13MOL   O236 4820   4.743   1.393   1.824  0.3543  0.1318  0.2214
   13MOL   H237 4821   4.623   1.161   1.866  2.6597  0.1648 -0.3055
   13MOL   H238 4822   4.666   1.173   1.692 -0.0792 -0.4865  0.1801
   13MOL   H239 4823   4.544   1.384   1.871 -0.2550  0.3788 -0.9128
   13MOL   H240 4824   4.602   1.548   1.705  0.4197 -0.2385  1.5073
   13MOL   H241 4825   4.479   1.456   1.633 -0.6066 -1.2959 -0.0979
   13MOL   H242 4826   4.657   1.358   1.479  0.1218 -0.1904 -0.6086
   13MOL   H243 4827   4.788   1.407   1.580 -0.2566  0.7004  0.1333
   13MOL   H244 4828   4.744   1.533   1.371  0.0958 -0.9149  0.4932
   13MOL   H245 4829   4.576   1.558   1.437  0.8748  0.4377 -1.1022
   13MOL   H246 4830   4.697   1.712   1.603  1.0407  1.8150 -0.1037
   13MOL   H247 4831   4.741   1.773   1.450  0.3344 -2.1593 -1.5536
   13MOL   H248 4832   4.851   1.668   1.528 -0.7260 -2.1596 -0.9802
   13MOL   C249 4833   4.776   1.371   1.961  0.5469 -0.2108 -0.3825
   13MOL   C250 4834   4.807   1.506   2.029 -0.2523 -0.2036  0.3051
   13MOL   C251 4835   4.711   1.624   1.994 -0.7189 -0.0228 -0.0563
   13MOL   C252 4836   4.685   1.712   2.113 -0.0534 -0.4611  0.5536
   13MOL   C253 4837   4.599   1.831   2.085 -0.0348 -0.2570 -0.4710
   13MOL   C254 4838   4.671   1.933   2.002  0.1394 -0.5409  0.1871
   13MOL   O255 4839   4.948   1.542   2.020  0.0305 -0.1205 -0.0126
   13MOL   H256 4840   4.696   1.324   2.019 -0.1858 -0.1561 -1.3481
   13MOL   H257 4841   4.853   1.294   1.969  0.9263  0.3738  1.8863
   13MOL   H258 4842   4.797   1.475   2.133 -0.9163  0.6026  0.4943
   13MOL   H259 4843   4.743   1.685   1.910 -4.6546  1.6460 -0.4762
   13MOL   H260 4844   4.613   1.578   1.981 -0.1848 -1.1861 -0.0179
   13MOL   H261 4845   4.657   1.651   2.199 -2.0442  0.8023  0.8176
   13MOL   H262 4846   4.785   1.738   2.146  1.0940 -4.1749  0.2794
   13MOL   H263 4847   4.507   1.797   2.037 -0.4381 -0.8525  0.7123
   13MOL   H264 4848   4.575   1.885   2.176  1.3887 -1.9549  0.9504
   13MOL   H265 4849   4.599   2.004   1.962 -1.1386 -2.7142 -1.5035
   13MOL   H266 4850   4.731   1.891   1.921  1.8655  1.6637  0.2535
   13MOL   H267 4851   4.743   1.981   2.068 -1.6411 -2.4333  3.5867
   13MOL   C268 4852   5.006   1.566   1.889  0.0849  0.1143  0.4441
   13MOL   C269 4853   5.114   1.672   1.885  0.8886 -1.2032  1.2556
   13MOL   C270 4854   5.110   1.756   1.754  0.2804  0.0934 -0.1369
   13MOL   C271 4855   5.015   1.885   1.763 -0.4854  0.0517  0.7559
   13MOL   C272 4856   5.034   2.003   1.662 -0.5840  0.1819 -0.4973
   13MOL   C273 4857   5.023   1.951   1.519 -0.8193 -0.2959 -1.4511
   13MOL   O274 4858   5.237   1.602   1.897  0.5463  0.0869  0.3357
   13MOL   H275 4859   4.925   1.596   1.823 -1.4307 -1.7135  1.4143
   13MOL   H276 4860   5.033   1.474   1.838 -0.9617  0.4500 -0.7082
   13MOL   H277 4861   5.102   1.739   1.970  2.3554  1.9159 -0.8878
   13MOL   H278 4862   5.212   1.788   1.738  0.3937 -0.3219 -0.2621
   13MOL   H279 4863   5.090   1.702   1.662 -0.0776  0.7815 -0.4613
   13MOL   H280 4864   4.911   1.851   1.764 -0.7913  0.9378 -0.0284
   13MOL   H281 4865   5.033   1.938   1.857  1.6907  1.4030 -0.3928
   13MOL   H282 4866   4.948   2.067   1.684 -0.8153 -0.5064  0.6279
   13MOL   H283 4867   5.130   2.055   1.665 -1.1983  1.2864  0.3666
   13MOL   H284 4868   5.009   2.032   1.447  1.4048 -0.2769 -1.8825
   13MOL   H285 4869   5.120   1.906   1.498 -0.1606  0.6744 -0.5367
   13MOL   H286 4870   4.946   1.874   1.519 -1.3956  0.2751 -1.7969
   13MOL   C287 4871   5.273   1.564   2.034  0.7556  0.1055  0.0903
   13MOL   C288 4872   5.371   1.457   2.023  0.7103 -0.7099 -0.4374
   13MOL   C289 4873   5.299   1.323   2.008 -0.0404 -0.6296 -0.8413
   13MOL   C290 4874   5.402   1.219   1.973 -0.2296 -0.3753 -0.3884
   13MOL   C291 4875   5.357   1.073   1.960 -0.3791  0.5570  0.4784
   13MOL   C292 4876   5.300   1.015   2.088  0.4012  0.4919  0.2919
   13MOL   O293 4877   5.450   1.443   2.141 -0.4463  0.1226 -0.1033
   13MOL   H294 4878   5.190   1.533   2.097 -0.0365  0.6329 -0.6938
   13MOL   H295 4879   5.304   1.663   2.069 -1.0419 -0.0335  2.1662
   13MOL   H296 4880   5.442   1.483   1.944 -0.0574  1.5129 -0.4241
   13MOL   H297 4881   5.252   1.298   2.103 -1.3247  0.5062 -1.1634
   13MOL   H298 4882   5.227   1.336   1.928 -0.7526 -3.8003 -0.7774
   13MOL   H299 4883   5.455   1.250   1.883  1.4022 -0.3311  0.5732
   13MOL   H300 4884   5.469   1.228   2.059  0.0114 -0.2497 -0.5879
   13MOL   H301 4885   5.440   1.014   1.921  0.0919  0.5898  1.4386
   13MOL   H302 4886   5.281   1.069   1.881 -0.9401  1.8964  0.9325
   13MOL   H303 4887   5.197   1.043   2.110 -0.1067 -0.0082 -1.3566
   13MOL   H304 4888   5.302   0.906   2.086  0.2327  0.4953 -0.7794
   13MOL   H305 4889   5.367   1.025   2.173  2.6220 -0.0386 -1.3205
   13MOL   C306 4890   5.592   1.442   2.134 -0.6532 -1.0450 -0.2449
   13MOL   C307 4891   5.652   1.582   2.147  0.2555 -0.2465 -0.2293
   13MOL   C308 4892   5.577   1.675   2.252  0.3025  0.8328  0.4342
   13MOL   C309 4893   5.566   1.615   2.395 -0.1161 -0.4662 -0.1262
   13MOL   C310 4894   5.554   1.733   2.493  0.5480  0.0227  0.3186
   13MOL   C311 4895   5.545   1.681   2.637 -0.1171 -0.1094  0.1353
   13MOL   O312 4896   5.633   1.643   2.019  0.0557 -0.0185  0.3353
   13MOL   H313 4897   5.632   1.380   2.214 -1.2737 -0.0896  0.8123
   13MOL   H314 4898   5.622   1.394   2.041  1.0247  1.6593 -1.1545
   13MOL   H315 4899   5.758   1.567   2.166  0.6289  1.4230 -0.8704
   13MOL   H316 4900   5.479   1.701   2.213 -0.1571 -0.4934  0.7067
   13MOL   H317 4901   5.623   1.774   2.250  0.4816  0.7844  1.6645
   13MOL   H318 4902   5.486   1.541   2.395 -1.4769  0.9523 -1.2320
   13MOL   H319 4903   5.651   1.551   2.417  2.0949  2.5425  0.3780
   13MOL   H320 4904   5.473   1.805   2.477 -0.1890 -0.7227  0.6272
   13MOL   H321 4905   5.646   1.789   2.479  0.4999 -0.0968 -0.4907
   13MOL   H322 4906   5.540   1.764   2.708  0.8134  1.2906 -1.4243
   13MOL   H323 4907   5.450   1.627   2.637 -0.6014  0.7388  0.2593
   13MOL   H324 4908   5.627   1.610   2.654 -1.5884 -1.9319 -0.2571
   13MOL   C325 4909   5.729   1.610   1.915  1.0032 -0.1511 -0.1549
   13MOL   C326 4910   5.709   1.702   1.795 -0.5510 -0.3463 -0.0308
   13MOL   C327 4911   5.571   1.705   1.727  0.4106  0.5930  0.0610
   13MOL   C328 4912   5.540   1.589   1.630  0.2117  1.4211  0.1326
   13MOL   C329 4913   5.412   1.618   1.541  0.6895  0.0876  0.2666
   13MOL   C330 4914   5.358   1.492   1.479  0.8866 -0.0417 -0.5454
   13MOL   O331 4915   5.814   1.689   1.695  0.0531 -0.2880 -0.0380
   13MOL   H332 4916   5.725   1.507   1.878 -0.3742  0.0350 -0.5769
   13MOL   H333 4917   5.829   1.622   1.956  1.1731 -0.6141 -0.4267
   13MOL   H334 4918   5.722   1.798   1.845  2.4538 -0.9370  0.4493
   13MOL   H335 4919   5.490   1.711   1.799  0.7888 -1.2943  0.6602
   13MOL   H336 4920   5.569   1.799   1.672 -0.1952 -0.5998 -2.0291
   13MOL   H337 4921   5.628   1.575   1.566 -0.4168  2.0995 -0.8883
   13MOL   H338 4922   5.537   1.500   1.693  1.5089  2.0359  1.0847
   13MOL   H339 4923   5.327   1.658   1.596  1.0732 -0.3498  1.1904
   13MOL   H340 4924   5.442   1.680   1.456  0.2943 -1.0960 -0.7390
   13MOL   H341 4925   5.276   1.504   1.409  1.6879  4.6038 -0.8465
   13MOL   H342 4926   5.439   1.451   1.418  1.7240  0.4953  0.1870
   13MOL   H343 4927   5.333   1.416   1.553 -0.8225 -1.8162 -2.9085
   13MOL   C344 4928   5.923   1.780   1.731  0.2143  0.4579  0.0992
   13MOL   C345 4929   6.015   1.779   1.610 -0.2147  0.6495  0.6012
   13MOL   C346 4930   5.948   1.867   1.507  0.2551  0.2702 -0.5936
   13MOL   C347 4931   6.030   1.856   1.377  0.5125 -0.8387  0.2300
   13MOL   C348 4932   5.999   1.970   1.279 -0.4128  0.2715 -0.2865
   13MOL   C349 4933   6.064   1.948   1.141  0.1074 -0.7433  1.0413
   13MOL   O350 4934   6.127   1.846   1.654  0.5326  1.0418 -0.3593
   13MOL   H351 4935   5.974   1.747   1.821  4.2902 -1.4971 -2.7402
   13MOL   H352 4936   5.879   1.879   1.742 -2.4218 -0.4540 -1.6229
   13MOL   H353 4937   6.031   1.678   1.571 -0.3662 -0.0675  2.3481
   13MOL   H354 4938   5.941   1.970   1.542  1.2964 -0.1825  0.9884
   13MOL   H355 4939   5.852   1.826   1.474 -0.6131  0.6477  1.4202
   13MOL   H356 4940   6.012   1.756   1.338  0.1985 -0.8828  0.4861
   13MOL   H357 4941   6.137   1.857   1.398  0.3074  0.5467  1.3253
   13MOL   H358 4942   6.042   2.057   1.328  1.3177  0.5676 -2.2830
   13MOL   H359 4943   5.892   1.977   1.258 -1.2663 -4.8149  1.6671
   13MOL   H360 4944   6.037   2.020   1.064  0.9745 -0.8793  0.6008
   13MOL   H361 4945   6.034   1.852   1.100  0.1426  1.0880 -3.6067
   13MOL   H362 4946   6.170   1.935   1.161  0.4795 -0.1375 -0.4854
   13MOL   C363 4947   6.251   1.776   1.662  0.5021  0.2887 -0.6895
   13MOL   C364 4948   6.352   1.885   1.701  0.5299  0.4886  0.3463
   13MOL   C365 4949   6.480   1.819   1.749  0.0029 -0.7318 -0.6057
   13MOL   C366 4950   6.530   1.704   1.669 -0.4431  0.7368 -0.2238
   13MOL   C367 4951   6.686   1.686   1.683  0.2367 -0.2925  0.0740
   13MOL   C368 4952   6.735   1.639   1.821  0.0321  0.2171 -0.2758
   13MOL   O369 4953   6.373   1.972   1.585 -0.3084  0.3910 -0.4703
   13MOL   H370 4954   6.270   1.733   1.564  0.5447  0.3048 -0.6880
   13MOL   H371 4955   6.245   1.689   1.728  0.3920 -0.0525 -1.1444
   13MOL   H372 4956   6.313   1.948   1.781 -1.9423  1.1454 -1.3108
   13MOL   H373 4957   6.550   1.902   1.753 -1.1122  0.3984 -3.0832
   13MOL   H374 4958   6.466   1.784   1.851 -1.0320  1.3064 -0.0350
   13MOL   H375 4959   6.486   1.608   1.693  3.3348 -0.6524  1.4092
   13MOL   H376 4960   6.508   1.733   1.566 -0.4040  0.1328 -0.4033
   13MOL   H377 4961   6.720   1.631   1.595  1.4791  0.9242 -0.2314
   13MOL   H378 4962   6.740   1.779   1.663 -2.9778  1.4824 -0.6885
   13MOL   H379 4963   6.715   1.719   1.892  1.4182  1.4869 -1.2951
   13MOL   H380 4964   6.675   1.553   1.852  0.8072 -0.5493 -0.8453
   13MOL   H381 4965   6.841   1.615   1.829 -0.6039 -2.4210  0.8087
   13MOL   H382 4966   6.289   2.004   1.557 -0.3311  1.0599  0.3708
   14MOL     C1 4967   3.632   3.990   2.074 -0.4537  0.5029  0.6620
   14MOL     C2 4968   3.699   4.013   1.939 -0.1169 -0.2467  0.0414
   14MOL     C3 4969   3.694   3.888   1.844 -0.3122  0.0052 -0.2483
   14MOL     C4 4970   3.552   3.866   1.803 -0.2114 -0.2724  0.7380
   14MOL     C5 4971   3.534   3.754   1.703  0.4013 -0.5982  0.9298
   14MOL     C6 4972   3.570   3.616   1.759  0.2576  0.0431 -0.0951
   14MOL     O7 4973   3.660   4.134   1.883 -0.1752  0.4813 -0.2509
   14MOL     H8 4974   3.681   3.912   2.132 -0.4936 -0.2349 -0.2802
   14MOL     H9 4975   3.529   3.963   2.053 -0.7507  2.0986 -0.0320
   14MOL    H10 4976   3.806   4.027   1.954 -0.1377  1.2846 -1.0624
   14MOL    H11 4977   3.758   3.896   1.756  0.1811 -3.4792 -0.2618
   14MOL    H12 4978   3.727   3.807   1.908 -2.0780  0.5014  1.3449
   14MOL    H13 4979   3.482   3.854   1.886 -2.8459 -0.0850 -1.3851
   14MOL    H14 4980   3.523   3.962   1.762  1.8974  0.1672  0.2503
   14MOL    H15 4981   3.432   3.763   1.666  1.2783  0.7971 -1.2561
   14MOL    H16 4982   3.597   3.774   1.616  0.3758  2.9606  1.6578
   14MOL    H17 4983   3.679   3.607   1.762  0.1699 -0.9689  0.3486
   14MOL    H18 4984   3.531   3.605   1.860 -0.4295 -1.0854 -0.4752
   14MOL    H19 4985   3.540   3.529   1.701 -0.4396  0.5177 -0.4562
   14MOL    H20 4986   3.630   4.079   2.137  2.7028  0.5616  0.7964
   14MOL    C21 4987   3.693   4.168   1.743  0.1753  0.1172 -0.4346
   14MOL    C22 4988   3.670   4.321   1.726 -0.4332  0.0641 -0.0198
   14MOL    C23 4989   3.761   4.381   1.620  0.4292  0.0408 -0.0006
   14MOL    C24 4990   3.745   4.535   1.623 -0.6279 -0.6084  0.3799
   14MOL    C25 4991   3.832   4.611   1.526  0.1931 -0.1378 -0.4085
   14MOL    C26 4992   3.782   4.764   1.499  0.2062  0.3867 -0.3463
   14MOL    O27 4993   3.533   4.349   1.681 -0.0464  0.1534 -0.6330
   14MOL    H28 4994   3.798   4.142   1.726  0.3400 -0.2405  1.0466
   14MOL    H29 4995   3.625   4.125   1.671 -1.0868  4.0458 -1.7298
   14MOL    H30 4996   3.686   4.382   1.815  3.0044  0.0970 -0.6095
   14MOL    H31 4997   3.734   4.354   1.517  1.2430  1.8577 -0.7159
   14MOL    H32 4998   3.862   4.344   1.637  1.3149  2.8814  1.2401
   14MOL    H33 4999   3.752   4.579   1.722 -1.6549  1.1561 -0.3116
   14MOL    H34 5000   3.644   4.567   1.596 -0.5964  0.7554  1.8638
   14MOL    H35 5001   3.934   4.612   1.566  0.2046 -1.0245 -0.4133
   14MOL    H36 5002   3.827   4.561   1.430  0.3388 -2.8074  0.9427
   14MOL    H37 5003   3.678   4.770   1.466 -0.7016 -1.0887  2.0681
   14MOL    H38 5004   3.854   4.799   1.425 -1.6464  1.8374 -1.5190
   14MOL    H39 5005   3.784   4.831   1.585 -2.9888 -0.4246  0.4234
   14MOL    C40 5006   3.427   4.321   1.776  0.2117  1.1565  0.2006
   14MOL    C41 5007   3.411   4.412   1.902  0.5147  0.0071  0.4702
   14MOL    C42 5008   3.320   4.335   2.002  0.5507 -0.1517  0.7678
   14MOL    C43 5009   3.317   4.393   2.150  0.5911  0.1169 -0.9864
   14MOL    C44 5010   3.239   4.310   2.256 -0.4175  0.1837 -0.5220
   14MOL    C45 5011   3.204   4.380   2.383  0.9230  0.2314 -0.7262
   14MOL    O46 5012   3.347   4.539   1.874  0.3254 -0.2918  0.6217
   14MOL    H47 5013   3.453   4.221   1.811  0.8059  0.5020 -2.0483
   14MOL    H48 5014   3.334   4.312   1.720  0.8327 -0.3703 -0.6298
   14MOL    H49 5015   3.506   4.427   1.952  0.7344  0.2094 -0.0076
   14MOL    H50 5016   3.224   4.339   1.950  1.2038  1.9358 -0.2997
   14MOL    H51 5017   3.343   4.228   2.005 -1.1984 -0.5729  0.1238
   14MOL    H52 5018   3.283   4.497   2.151  0.3978  0.0558 -1.4216
   14MOL    H53 5019   3.422   4.398   2.181  0.4911  1.6565 -0.8451
   14MOL    H54 5020   3.149   4.254   2.231  0.7091 -1.6070 -0.6449
   14MOL    H55 5021   3.299   4.227   2.294  0.2243  1.3646  1.1259
   14MOL    H56 5022   3.175   4.300   2.452 -0.3195  2.1470  1.0338
   14MOL    H57 5023   3.279   4.448   2.422  1.2344  0.5760 -1.9089
   14MOL    H58 5024   3.112   4.433   2.358  0.9812 -0.3967 -2.2870
   14MOL    C59 5025   3.442   4.636   1.831  0.2783  0.4986  0.1808
   14MOL    C60 5026   3.419   4.767   1.903  0.0422 -0.2950 -0.4546
   14MOL    C61 5027   3.500   4.769   2.031  0.0463  0.6511 -0.1460
   14MOL    C62 5028   3.475   4.902   2.109  0.8120  0.4177  0.6084
   14MOL    C63 5029   3.551   4.909   2.242  0.4174 -0.3954  0.1597
   14MOL    C64 5030   3.699   4.917   2.218 -0.2202 -0.3279 -1.1636
   14MOL    O65 5031   3.464   4.880   1.826  0.4683  0.2157 -0.2867
   14MOL    H66 5032   3.440   4.638   1.722  0.1583 -2.0789  0.1010
   14MOL    H67 5033   3.545   4.608   1.851  0.9443  0.4658 -2.9957
   14MOL    H68 5034   3.315   4.784   1.927 -0.5229 -1.5328 -1.9209
   14MOL    H69 5035   3.606   4.758   2.009  0.1394  0.2742  0.4658
   14MOL    H70 5036   3.477   4.673   2.078  1.8160 -1.0963 -2.7014
   14MOL    H71 5037   3.370   4.904   2.139  0.3044  1.0488 -1.1267
   14MOL    H72 5038   3.499   4.982   2.039  0.1460 -1.8788 -2.3507
   14MOL    H73 5039   3.516   4.832   2.311 -0.8389  0.0202  0.0017
   14MOL    H74 5040   3.517   4.999   2.294  0.7556 -0.2774  0.1799
   14MOL    H75 5041   3.746   4.946   2.312  0.3256 -2.1814 -0.8492
   14MOL    H76 5042   3.737   4.821   2.184 -0.3196 -1.1387  0.9388
   14MOL    H77 5043   3.726   4.999   2.151  0.6545  0.2945 -0.0804
   14MOL    C78 5044   3.379   4.922   1.716 -0.2785 -0.0174  0.2361
   14MOL    C79 5045   3.427   5.067   1.673  0.4235  0.5945 -0.2262
   14MOL    C80 5046   3.408   5.169   1.784  0.4991  0.1197 -0.3650
   14MOL    C81 5047   3.483   5.301   1.748 -0.2213 -0.4146 -0.0086
   14MOL    C82 5048   3.506   5.389   1.870 -0.4859  0.2444  0.5517
   14MOL    C83 5049   3.380   5.460   1.925  0.2158 -0.1647 -0.1674
   14MOL    O84 5050   3.350   5.112   1.558  0.1258 -0.0675  0.1040
   14MOL    H85 5051   3.274   4.928   1.746 -0.2631 -0.4422  0.3659
   14MOL    H86 5052   3.394   4.851   1.635 -0.9519  1.6305 -1.3721
   14MOL    H87 5053   3.533   5.055   1.652  0.6634  1.3615  0.5358
   14MOL    H88 5054   3.301   5.183   1.794  0.9968  2.5638  2.3172
   14MOL    H89 5055   3.448   5.124   1.875 -0.3466 -0.4843 -0.2853
   14MOL    H90 5056   3.427   5.362   1.677  0.9047  1.7584  0.9410
   14MOL    H91 5057   3.586   5.290   1.713  0.0639  2.1836 -0.0438
   14MOL    H92 5058   3.570   5.340   1.944  1.2277  1.0387 -0.3589
   14MOL    H93 5059   3.576   5.462   1.829  0.9468 -0.2401  2.0741
   14MOL    H94 5060   3.323   5.513   1.848  1.5272 -0.0450 -1.0653
   14MOL    H95 5061   3.415   5.532   1.998 -0.6479  1.4680 -1.3164
   14MOL    H96 5062   3.310   5.393   1.975 -1.3333  1.4429 -0.1011
   14MOL    C97 5063   3.426   5.106   1.433  0.6819 -0.3120  0.9653
   14MOL    C98 5064   3.369   5.177   1.306  0.1894 -0.4267  0.0077
   14MOL    C99 5065   3.481   5.192   1.193  0.4548  0.0867  0.0670
   14MOL   C100 5066   3.448   5.230   1.048  0.4610 -0.0354  0.5359
   14MOL   C101 5067   3.572   5.260   0.962  0.2263  0.2545  0.1579
   14MOL   C102 5068   3.531   5.338   0.835  0.1626  0.2907 -0.2560
   14MOL   O103 5069   3.258   5.102   1.265 -0.3712 -0.3948 -0.1066
   14MOL   H104 5070   3.455   5.003   1.412  3.4061  0.3983  1.0150
   14MOL   H105 5071   3.525   5.149   1.452  0.9871 -0.7442  0.3598
   14MOL   H106 5072   3.347   5.282   1.328 -2.1538 -0.0379 -3.8408
   14MOL   H107 5073   3.556   5.113   1.196  1.7601  1.3276  1.3741
   14MOL   H108 5074   3.533   5.283   1.223 -1.4557  2.1078 -2.4639
   14MOL   H109 5075   3.393   5.323   1.040  0.3333 -0.2851 -1.7264
   14MOL   H110 5076   3.381   5.158   1.001 -1.5478  1.2330  1.3899
   14MOL   H111 5077   3.630   5.175   0.924 -2.1576 -1.5217  0.4167
   14MOL   H112 5078   3.641   5.324   1.016 -0.3338  1.1239 -0.1539
   14MOL   H113 5079   3.493   5.437   0.862 -1.1151 -0.8348  2.2134
   14MOL   H114 5080   3.624   5.353   0.781  0.4754  2.5327  0.8525
   14MOL   H115 5081   3.458   5.288   0.771 -2.7377  0.9329  2.4318
   14MOL   C116 5082   3.136   5.134   1.334 -0.2514  0.1525 -0.0797
   14MOL   C117 5083   3.051   5.237   1.263  0.1000  0.1868  0.6274
   14MOL   C118 5084   3.001   5.188   1.135 -0.0721  0.5894 -0.6214
   14MOL   C119 5085   2.904   5.277   1.058 -0.2399  0.0596  0.5030
   14MOL   C120 5086   2.882   5.231   0.909 -0.3034 -0.6719  0.4707
   14MOL   C121 5087   2.796   5.107   0.896  0.4487 -0.2846  0.5580
   14MOL   O122 5088   3.118   5.360   1.247 -0.2695  0.7830  0.3405
   14MOL   H123 5089   3.071   5.046   1.331  0.0437 -0.0664 -0.0898
   14MOL   H124 5090   3.150   5.161   1.439  0.3789  1.2413 -0.4364
   14MOL   H125 5091   2.961   5.259   1.321 -0.2863  0.7426 -0.1698
   14MOL   H126 5092   3.090   5.166   1.075  1.5337  1.6811  1.3114
   14MOL   H127 5093   2.952   5.092   1.146  0.3153  0.6348  1.5615
   14MOL   H128 5094   2.943   5.379   1.063  0.1133  0.1424 -2.8740
   14MOL   H129 5095   2.816   5.295   1.120 -2.0151  0.1846 -2.0010
   14MOL   H130 5096   2.825   5.304   0.851  0.8571 -1.3276 -1.5631
   14MOL   H131 5097   2.976   5.215   0.857  0.5881  1.6230  1.3355
   14MOL   H132 5098   2.845   5.022   0.945  1.3108 -1.0516 -1.5425
   14MOL   H133 5099   2.710   5.135   0.957  1.0195  1.2103  0.6859
   14MOL   H134 5100   2.764   5.082   0.795 -0.7818  1.3663  0.5262
   14MOL   C135 5101   3.104   5.443   1.363  0.3462 -0.1214 -0.4030
   14MOL   C136 5102   3.184   5.570   1.346  0.4329 -0.2999 -0.2239
   14MOL   C137 5103   3.152   5.641   1.214  0.6929  0.3435  0.4570
   14MOL   C138 5104   3.193   5.787   1.211  1.1383  0.0293 -0.2152
   14MOL   C139 5105   3.132   5.882   1.100  0.2146  0.5276 -0.4182
   14MOL   C140 5106   3.172   6.033   1.122  0.2433 -0.6538  0.2514
   14MOL   O141 5107   3.319   5.540   1.366 -0.2118  0.1946  0.6466
   14MOL   H142 5108   3.001   5.467   1.390  0.8669 -0.2761  1.8444
   14MOL   H143 5109   3.139   5.387   1.450 -1.8460  0.9971  1.2388
   14MOL   H144 5110   3.141   5.635   1.423 -0.0015  2.0106 -2.3338
   14MOL   H145 5111   3.202   5.583   1.137  5.1951  3.9766  0.3917
   14MOL   H146 5112   3.046   5.634   1.189  0.2547  0.3800  2.2922
   14MOL   H147 5113   3.302   5.798   1.202  0.8801  1.7254 -1.4638
   14MOL   H148 5114   3.172   5.825   1.310 -1.6828 -1.3185 -0.2385
   14MOL   H149 5115   3.024   5.867   1.105  0.5066 -1.2066  1.1069
   14MOL   H150 5116   3.160   5.840   1.003 -0.9098 -1.4063  0.0701
   14MOL   H151 5117   3.109   6.104   1.069 -1.9701 -0.8125  2.5720
   14MOL   H152 5118   3.157   6.055   1.228  3.3445 -2.0748  1.0381
   14MOL   H153 5119   3.277   6.032   1.093 -0.0836  1.7374 -1.1071
   14MOL   C154 5120   3.366   5.555   1.500 -0.2933 -0.3940  0.4355
   14MOL   C155 5121   3.408   5.699   1.528 -1.1207 -0.1353 -0.0973
   14MOL   C156 5122   3.369   5.734   1.665  0.5077 -0.4167 -0.1560
   14MOL   C157 5123   3.382   5.886   1.686  0.0143  0.6771  0.7091
   14MOL   C158 5124   3.354   5.925   1.833  0.3099  0.8285  0.1266
   14MOL   C159 5125   3.248   5.847   1.908 -0.0171 -0.6918 -0.0197
   14MOL   O160 5126   3.549   5.721   1.519  0.2268  0.2779 -0.3044
   14MOL   H161 5127   3.448   5.484   1.495 -1.0813 -1.2937  0.2814
   14MOL   H162 5128   3.289   5.522   1.570  0.2825 -1.9006  0.3763
   14MOL   H163 5129   3.363   5.773   1.461 -0.2504  1.4805  1.0992
   14MOL   H164 5130   3.442   5.692   1.735  1.2659  2.1283  0.6433
   14MOL   H165 5131   3.268   5.693   1.667  0.0963  0.4225 -2.5592
   14MOL   H166 5132   3.307   5.941   1.630  0.7795 -0.3814 -1.4017
   14MOL   H167 5133   3.480   5.922   1.656 -0.2682 -1.7703 -3.4823
   14MOL   H168 5134   3.443   5.911   1.894 -0.4108 -0.0131  1.0049
   14MOL   H169 5135   3.325   6.030   1.832 -0.9002  0.5026 -1.7756
   14MOL   H170 5136   3.234   5.897   2.004  1.2674  0.6455 -0.5252
   14MOL   H171 5137   3.288   5.749   1.935  1.2783 -0.1340  0.1230
   14MOL   H172 5138   3.151   5.827   1.863 -0.9055 -0.4034  1.7240
   14MOL   C173 5139   3.610   5.725   1.386  0.0956 -0.6804  0.4667
   14MOL   C174 5140   3.750   5.656   1.393  0.5688 -0.4366  0.2047
   14MOL   C175 5141   3.801   5.610   1.256 -0.4567 -0.0725  0.3351
   14MOL   C176 5142   3.938   5.548   1.265  0.6995  0.0056  0.2461
   14MOL   C177 5143   3.964   5.433   1.164 -0.1269  0.6383 -0.6480
   14MOL   C178 5144   3.963   5.474   1.017  0.0187  0.0525 -0.6763
   14MOL   O179 5145   3.846   5.746   1.449  0.2584  0.2099 -0.1571
   14MOL   H180 5146   3.601   5.825   1.342 -2.2510 -0.7827  0.6257
   14MOL   H181 5147   3.556   5.669   1.310  1.0336  1.6723 -2.0314
   14MOL   H182 5148   3.747   5.560   1.444 -1.3613 -1.1692 -1.2269
   14MOL   H183 5149   3.722   5.539   1.231 -0.7548  0.2856  0.2462
   14MOL   H184 5150   3.789   5.695   1.188  2.1830 -1.7071 -2.2496
   14MOL   H185 5151   4.018   5.618   1.241 -0.2434  0.6134 -1.1703
   14MOL   H186 5152   3.949   5.513   1.367 -1.1180 -0.0580  0.4325
   14MOL   H187 5153   4.059   5.382   1.183 -1.0417 -1.0049 -0.3505
   14MOL   H188 5154   3.878   5.366   1.171  0.7739 -0.6041 -1.2707
   14MOL   H189 5155   3.887   5.543   0.981  1.2294  1.0220 -1.4039
   14MOL   H190 5156   3.962   5.382   0.959 -1.6849  0.1178 -0.7508
   14MOL   H191 5157   4.066   5.508   1.002  0.3281 -0.9701 -0.9249
   14MOL   C192 5158   3.851   5.742   1.595 -1.0108 -0.1430 -0.0247
   14MOL   C193 5159   3.993   5.787   1.650  0.0185  0.0816  0.7285
   14MOL   C194 5160   4.101   5.697   1.592 -0.1411 -0.7796 -0.7120
   14MOL   C195 5161   4.100   5.551   1.630 -0.2388  0.4051  0.4881
   14MOL   C196 5162   4.228   5.474   1.575  0.0453  0.1196 -0.2999
   14MOL   C197 5163   4.274   5.367   1.668  0.4511 -0.1002  0.3097
   14MOL   O198 5164   3.986   5.781   1.792  0.0281  0.1976  0.3849
   14MOL   H199 5165   3.772   5.800   1.642  0.0506 -0.1146  1.7325
   14MOL   H200 5166   3.837   5.642   1.637 -2.7547 -0.4229 -1.1982
   14MOL   H201 5167   4.008   5.892   1.626  0.3746 -0.3808 -1.2018
   14MOL   H202 5168   4.092   5.708   1.484  0.7063 -1.4564 -0.8612
   14MOL   H203 5169   4.202   5.729   1.617 -0.1706 -0.8385 -0.5168
   14MOL   H204 5170   4.023   5.496   1.576  1.1723  0.1958 -1.3446
   14MOL   H205 5171   4.088   5.547   1.738  1.1844  0.5536  0.6659
   14MOL   H206 5172   4.211   5.430   1.476 -0.7841 -1.7475  0.6446
   14MOL   H207 5173   4.312   5.543   1.567 -0.9093  1.0844 -2.4916
   14MOL   H208 5174   4.199   5.288   1.677  0.2108  0.1093  0.1360
   14MOL   H209 5175   4.365   5.322   1.628  0.2485 -0.0329 -0.2235
   14MOL   H210 5176   4.292   5.397   1.772 -0.2415  1.4375 -0.0055
   14MOL   C211 5177   4.100   5.834   1.861 -0.5173  0.1554  0.0267
   14MOL   C212 5178   4.104   5.782   2.007 -0.7200  0.2486  0.7130
   14MOL   C213 5179   4.204   5.849   2.099 -0.1416 -0.0637 -0.3997
   14MOL   C214 5180   4.196   5.788   2.247  0.2540  0.0910 -0.1858
   14MOL   C215 5181   4.302   5.844   2.345  0.6294 -0.3975 -0.1731
   14MOL   C216 5182   4.323   5.746   2.470 -0.5188  0.1574  0.2892
   14MOL   O217 5183   4.145   5.647   2.002 -0.3911  0.0807  0.4713
   14MOL   H218 5184   4.090   5.942   1.861 -0.9718  0.1403 -2.9649
   14MOL   H219 5185   4.189   5.796   1.811  0.6449 -0.1715  2.2675
   14MOL   H220 5186   4.008   5.796   2.057 -0.5733  1.8865  0.5614
   14MOL   H221 5187   4.303   5.830   2.056 -0.1801  2.1393 -1.5543
   14MOL   H222 5188   4.185   5.956   2.111 -0.7175 -0.2867  0.7123
   14MOL   H223 5189   4.093   5.803   2.278  0.5160 -0.0693  0.8121
   14MOL   H224 5190   4.217   5.681   2.251  0.1304  0.0669 -0.1967
   14MOL   H225 5191   4.396   5.846   2.290  0.9422 -0.1227  0.3804
   14MOL   H226 5192   4.267   5.943   2.373 -0.3066 -0.2156 -1.8462
   14MOL   H227 5193   4.397   5.783   2.541  0.4720 -1.5743  0.1866
   14MOL   H228 5194   4.354   5.650   2.429  0.5472  0.3257  0.6770
   14MOL   H229 5195   4.226   5.729   2.517 -0.5397  3.0094  1.3683
   14MOL   C230 5196   4.030   5.561   2.001  0.8241 -0.8736 -0.1185
   14MOL   C231 5197   4.065   5.412   1.981  0.5242 -0.2941  0.3379
   14MOL   C232 5198   3.931   5.333   1.954  0.3375 -0.0829 -0.2325
   14MOL   C233 5199   3.945   5.181   1.931 -0.2937  0.0399  0.0757
   14MOL   C234 5200   3.809   5.120   1.879  0.8072 -0.2573  0.5477
   14MOL   C235 5201   3.837   4.979   1.835  0.7395 -0.1404  0.0954
   14MOL   O236 5202   4.136   5.362   2.105 -0.4181 -0.6480  0.2638
   14MOL   H237 5203   3.976   5.567   2.095  0.5909  1.9795 -0.3903
   14MOL   H238 5204   3.960   5.593   1.923 -0.8716  0.0060  1.7204
   14MOL   H239 5205   4.135   5.404   1.898  0.2535 -0.0833  0.0929
   14MOL   H240 5206   3.874   5.375   1.872 -0.8036 -0.1600  0.5030
   14MOL   H241 5207   3.870   5.333   2.044 -0.5251 -2.0342 -0.7841
   14MOL   H242 5208   3.968   5.130   2.025 -1.1776  3.2233  2.0975
   14MOL   H243 5209   4.022   5.162   1.857 -0.5737 -3.3799  0.5482
   14MOL   H244 5210   3.725   5.126   1.948  0.4097 -2.8137  0.3387
   14MOL   H245 5211   3.772   5.175   1.793 -2.1901 -0.0454  1.9247
   14MOL   H246 5212   3.893   4.984   1.741 -0.5429  2.1103 -0.5915
   14MOL   H247 5213   3.755   4.908   1.823  1.9601 -1.5903  0.2025
   14MOL   H248 5214   3.911   4.925   1.893 -1.0484 -4.0367 -1.1361
   14MOL   C249 5215   4.280   5.388   2.097  0.3258  0.3930 -0.0609
   14MOL   C250 5216   4.349   5.339   2.228 -0.4479  0.7106 -0.3170
   14MOL   C251 5217   4.464   5.423   2.267  0.2004 -0.2988  0.1949
   14MOL   C252 5218   4.544   5.379   2.396 -0.3845  0.4947  0.2630
   14MOL   C253 5219   4.680   5.453   2.397 -0.0632 -0.4744  0.3188
   14MOL   C254 5220   4.766   5.418   2.522  0.6031 -0.0399 -0.4188
   14MOL   O255 5221   4.398   5.210   2.201 -0.1560 -0.3554  0.5532
   14MOL   H256 5222   4.323   5.336   2.011  1.8912 -0.8663  1.4281
   14MOL   H257 5223   4.292   5.493   2.071 -2.3050  0.6272 -0.4677
   14MOL   H258 5224   4.278   5.342   2.311  1.1147 -1.6761  1.1603
   14MOL   H259 5225   4.545   5.421   2.195  0.9893 -0.5697  1.0825
   14MOL   H260 5226   4.434   5.528   2.267  2.1540  0.2736 -0.2351
   14MOL   H261 5227   4.507   5.412   2.493 -1.2435 -0.5917  0.3116
   14MOL   H262 5228   4.542   5.271   2.408 -1.4965  0.8598  3.6981
   14MOL   H263 5229   4.743   5.429   2.312  2.2239  2.9189  0.9694
   14MOL   H264 5230   4.662   5.560   2.394 -0.6365 -0.4537  3.1315
   14MOL   H265 5231   4.825   5.326   2.517 -0.3435 -0.5801 -2.2084
   14MOL   H266 5232   4.706   5.433   2.613  1.5595  0.6187  0.1077
   14MOL   H267 5233   4.840   5.497   2.525  3.2180 -2.3912 -0.6005
   14MOL   C268 5234   4.308   5.105   2.235  0.1352 -0.2289  0.4588
   14MOL   C269 5235   4.318   4.999   2.128  0.0594  0.6773  0.2395
   14MOL   C270 5236   4.200   4.907   2.156 -0.1117  0.4666  0.1973
   14MOL   C271 5237   4.187   4.793   2.052 -0.0229 -0.2917  0.0883
   14MOL   C272 5238   4.063   4.711   2.077 -0.1719 -0.5897  0.2689
   14MOL   C273 5239   4.035   4.610   1.971  0.2868  0.1294  0.5034
   14MOL   O274 5240   4.431   4.914   2.160  0.2652  0.3677  0.0435
   14MOL   H275 5241   4.208   5.144   2.218  0.0660 -1.1074 -1.3596
   14MOL   H276 5242   4.330   5.077   2.338 -1.2856 -1.0133  0.5538
   14MOL   H277 5243   4.313   5.049   2.031 -1.1232 -1.0758 -0.6319
   14MOL   H278 5244   4.214   4.860   2.254 -0.2696 -1.8952 -0.8747
   14MOL   H279 5245   4.105   4.960   2.162 -0.9923 -1.3606  3.6959
   14MOL   H280 5246   4.163   4.844   1.959  0.2627  1.9767  1.2108
   14MOL   H281 5247   4.284   4.744   2.052  0.1013 -0.1758  3.0480
   14MOL   H282 5248   4.089   4.662   2.171 -0.4281 -0.5168  0.3784
   14MOL   H283 5249   3.979   4.776   2.100  1.7196  3.2959 -3.1725
   14MOL   H284 5250   4.126   4.564   1.931  0.3226  1.7922 -1.4582
   14MOL   H285 5251   3.978   4.533   2.022 -0.4954 -0.7080 -1.6043
   14MOL   H286 5252   3.990   4.643   1.877  0.2164 -1.4413 -0.0299
   14MOL   C287 5253   4.552   4.947   2.091  0.1372 -0.7740  0.0101
   14MOL   C288 5254   4.668   4.860   2.140 -0.6668 -0.2801  0.0322
   14MOL   C289 5255   4.716   4.918   2.276  0.1216 -0.6767 -0.0271
   14MOL   C290 5256   4.844   4.846   2.324 -0.6358  0.5023  0.6079
   14MOL   C291 5257   4.881   4.893   2.458  0.4043 -0.0360  0.0551
   14MOL   C292 5258   4.779   4.837   2.573 -0.3922  0.2355 -0.4556
   14MOL   O293 5259   4.778   4.853   2.048  0.5202  0.0556 -0.1597
   14MOL   H294 5260   4.569   5.055   2.102  0.2315 -0.7344 -0.5354
   14MOL   H295 5261   4.533   4.935   1.985 -1.5047 -1.7992  0.4013
   14MOL   H296 5262   4.631   4.759   2.159  0.7160 -0.6556  0.8169
   14MOL   H297 5263   4.741   5.023   2.266 -1.1458 -0.4375 -0.7150
   14MOL   H298 5264   4.650   4.893   2.359  0.6882  0.6158  0.8287
   14MOL   H299 5265   4.828   4.739   2.332 -0.6034  0.3181 -1.5368
   14MOL   H300 5266   4.931   4.862   2.261 -0.0780 -0.5402  1.1013
   14MOL   H301 5267   4.884   5.002   2.462 -1.0891  0.0144  0.3171
   14MOL   H302 5268   4.984   4.865   2.481  1.2804  2.3638 -0.7906
   14MOL   H303 5269   4.754   4.919   2.641 -1.3773 -1.6598  1.5331
   14MOL   H304 5270   4.688   4.792   2.532  0.3572 -0.9494 -0.8368
   14MOL   H305 5271   4.838   4.766   2.630  0.1929  0.9655 -0.1339
   14MOL   C306 5272   4.769   4.742   1.959 -0.4246 -0.0775 -0.2074
   14MOL   C307 5273   4.845   4.775   1.828  0.7151  0.1290  0.3200
   14MOL   C308 5274   4.800   4.700   1.708 -0.7253 -0.3017  0.5745
   14MOL   C309 5275   4.863   4.745   1.575 -0.7411 -0.4234 -0.2475
   14MOL   C310 5276   4.778   4.705   1.453 -0.2012 -1.0211  0.4731
   14MOL   C311 5277   4.863   4.706   1.325 -0.0472  0.7165  0.6711
   14MOL   O312 5278   4.980   4.736   1.843  0.0859 -0.0690  0.0563
   14MOL   H313 5279   4.788   4.642   1.997 -0.1507  0.0228 -0.0876
   14MOL   H314 5280   4.667   4.737   1.918 -0.3536 -0.8250 -0.2952
   14MOL   H315 5281   4.850   4.882   1.812 -1.6633 -0.0089 -1.5439
   14MOL   H316 5282   4.692   4.704   1.716 -0.6971 -1.8117  2.0422
   14MOL   H317 5283   4.826   4.595   1.726 -2.4523 -1.0014 -0.8648
   14MOL   H318 5284   4.874   4.853   1.578 -0.1540 -0.3660 -2.7874
   14MOL   H319 5285   4.967   4.714   1.580 -0.9817 -1.0410  0.9829
   14MOL   H320 5286   4.687   4.766   1.450  0.2785 -0.2549  1.3129
   14MOL   H321 5287   4.747   4.601   1.466 -1.0514 -0.8351 -0.0495
   14MOL   H322 5288   4.888   4.806   1.290  1.7881  0.3839  0.9757
   14MOL   H323 5289   4.943   4.632   1.322 -2.9560 -2.7681  3.6117
   14MOL   H324 5290   4.805   4.652   1.250  1.2562 -1.0782  0.9247
   14MOL   C325 5291   5.055   4.767   1.965 -0.4531  0.4766 -0.1065
   14MOL   C326 5292   5.196   4.719   1.946  0.3912  0.1745 -0.9649
   14MOL   C327 5293   5.282   4.675   2.070  0.2470 -0.3136  0.7190
   14MOL   C328 5294   5.411   4.606   2.032  0.3324  0.4594  0.9617
   14MOL   C329 5295   5.487   4.571   2.149 -0.2106 -0.0051 -0.7430
   14MOL   C330 5296   5.427   4.476   2.244 -0.7859 -0.3900  0.9705
   14MOL   O331 5297   5.263   4.831   1.899  0.0554 -0.0806  0.1251
   14MOL   H332 5298   5.008   4.722   2.053  0.0333  3.0991  1.5601
   14MOL   H333 5299   5.042   4.875   1.973  0.6038  0.8582 -2.9980
   14MOL   H334 5300   5.186   4.640   1.872  1.9852  0.3745 -1.4274
   14MOL   H335 5301   5.309   4.762   2.129  0.8056 -1.9157  2.8774
   14MOL   H336 5302   5.213   4.616   2.130 -0.4390  0.2328  0.4809
   14MOL   H337 5303   5.383   4.516   1.977  0.9459  1.2928 -0.7431
   14MOL   H338 5304   5.467   4.673   1.967 -0.2564  1.0458  1.0492
   14MOL   H339 5305   5.583   4.535   2.110  0.8756  0.1623  1.6614
   14MOL   H340 5306   5.511   4.650   2.221  0.8360  0.2121 -1.3232
   14MOL   H341 5307   5.390   4.392   2.185 -1.6358  1.6922 -1.5448
   14MOL   H342 5308   5.502   4.450   2.319 -0.9416  2.9866  2.3597
   14MOL   H343 5309   5.346   4.519   2.303  0.9036  1.9280  1.6562
   14MOL   C344 5310   5.268   4.843   1.756 -0.5295  0.0891  0.4878
   14MOL   C345 5311   5.295   4.997   1.732 -0.1349  0.0128 -0.2160
   14MOL   C346 5312   5.192   5.080   1.803  0.0852 -0.1277 -0.0948
   14MOL   C347 5313   5.181   5.221   1.750  0.6658 -0.6441  0.5455
   14MOL   C348 5314   5.058   5.290   1.813 -0.2504  0.5531  0.5366
   14MOL   C349 5315   4.995   5.412   1.740 -0.0895 -0.2934 -0.9632
   14MOL   O350 5316   5.431   5.034   1.769 -0.4506  0.0067  0.0058
   14MOL   H351 5317   5.169   4.829   1.714  0.3457 -1.2642 -1.2001
   14MOL   H352 5318   5.334   4.770   1.708 -0.4453 -0.2308  1.0817
   14MOL   H353 5319   5.284   5.009   1.624 -1.2953 -2.3043 -0.3786
   14MOL   H354 5320   5.219   5.070   1.909 -0.8508 -1.7870  0.0035
   14MOL   H355 5321   5.101   5.022   1.788 -0.3788  0.7027 -0.5074
   14MOL   H356 5322   5.177   5.226   1.641 -0.8892  1.9768  0.6761
   14MOL   H357 5323   5.260   5.289   1.784  1.3015 -0.4140 -1.3394
   14MOL   H358 5324   5.081   5.328   1.913  1.6477 -0.9000  0.6776
   14MOL   H359 5325   4.978   5.217   1.825 -0.7095  0.6823 -1.6355
   14MOL   H360 5326   4.987   5.391   1.633 -1.8735  1.0060 -1.1003
   14MOL   H361 5327   5.043   5.505   1.769 -0.5920  0.2533 -1.8558
   14MOL   H362 5328   4.895   5.420   1.783  0.1082  1.3265 -0.7666
   14MOL   C363 5329   5.506   5.096   1.667 -0.2294  0.2311 -0.4821
   14MOL   C364 5330   5.633   5.125   1.749 -0.5918  0.3224  0.5639
   14MOL   C365 5331   5.748   5.163   1.655  0.6486 -0.4314 -0.1641
   14MOL   C366 5332   5.881   5.200   1.732  0.4006 -1.1558  0.4453
   14MOL   C367 5333   5.994   5.223   1.623  0.6514  0.5337 -0.7109
   14MOL   C368 5334   6.125   5.278   1.689 -0.3939  0.1268  0.6904
   14MOL   O369 5335   5.595   5.229   1.831  0.0518 -0.0434 -0.0536
   14MOL   H370 5336   5.453   5.181   1.626 -0.3229  0.4202  0.0231
   14MOL   H371 5337   5.508   5.013   1.597 -0.3392  0.5004 -0.8053
   14MOL   H372 5338   5.659   5.039   1.810  0.4013  1.6963  2.0889
   14MOL   H373 5339   5.761   5.077   1.589 -0.0513  0.7385 -1.8642
   14MOL   H374 5340   5.712   5.243   1.590  0.6884 -1.9219 -2.0482
   14MOL   H375 5341   5.879   5.290   1.793  0.4045 -0.0153 -1.2198
   14MOL   H376 5342   5.917   5.113   1.787  2.0411 -0.7243  0.0783
   14MOL   H377 5343   6.010   5.130   1.569  0.0450 -0.3331  0.5983
   14MOL   H378 5344   5.949   5.282   1.543  0.9055  0.8152 -0.6516
   14MOL   H379 5345   6.125   5.380   1.729 -2.6259 -0.4992  2.3851
   14MOL   H380 5346   6.157   5.215   1.773  1.0372  0.2742  0.2654
   14MOL   H381 5347   6.198   5.285   1.609  0.1783 -2.8700  0.8881
   14MOL   H382 5348   5.505   5.213   1.856 -0.2726  2.9542  0.8995
   15MOL     C1 5349   2.471   6.112   4.426 -0.6121 -0.0986  0.8296
   15MOL     C2 5350   2.608   6.122   4.347 -0.0785 -0.1647  0.1222
   15MOL     C3 5351   2.647   6.268   4.306 -0.0369  0.1576  0.2169
   15MOL     C4 5352   2.676   6.366   4.426  0.0463  0.3136 -0.2646
   15MOL     C5 5353   2.754   6.493   4.382  0.3809  0.0854  0.5821
   15MOL     C6 5354   2.765   6.601   4.482 -0.6089 -0.3371 -0.2923
   15MOL     O7 5355   2.712   6.080   4.434 -0.0157  0.2461 -0.2821
   15MOL     H8 5356   2.430   6.012   4.437 -1.5246  0.4918  3.1778
   15MOL     H9 5357   2.398   6.154   4.358 -1.0488 -0.9958  0.7331
   15MOL    H10 5358   2.597   6.059   4.258  0.9656 -1.8819  1.1668
   15MOL    H11 5359   2.741   6.264   4.251  0.5728 -1.5096  1.3350
   15MOL    H12 5360   2.563   6.301   4.245  0.7287  0.8607 -0.4677
   15MOL    H13 5361   2.584   6.394   4.477 -1.1187 -1.0493 -1.5290
   15MOL    H14 5362   2.734   6.323   4.507 -0.7210  0.6767  0.4826
   15MOL    H15 5363   2.858   6.475   4.355 -0.2768 -0.9149 -1.3772
   15MOL    H16 5364   2.698   6.543   4.303  0.2104  1.8722  1.8171
   15MOL    H17 5365   2.800   6.569   4.581  3.5972  2.1272 -0.8778
   15MOL    H18 5366   2.832   6.684   4.460  0.6527 -0.8471  1.4825
   15MOL    H19 5367   2.672   6.644   4.519 -0.6567 -2.0956  1.7431
   15MOL    H20 5368   2.469   6.168   4.520 -2.5571 -1.6380  1.7357
   15MOL    C21 5369   2.742   5.948   4.441  0.3686 -0.4382 -0.0494
   15MOL    C22 5370   2.844   5.922   4.561  0.6945  0.8908  0.3106
   15MOL    C23 5371   2.866   5.771   4.581  0.7834 -0.3615 -0.1455
   15MOL    C24 5372   2.951   5.737   4.709  0.5667  0.4095 -0.4293
   15MOL    C25 5373   2.973   5.591   4.729  0.1901  0.3826 -0.4877
   15MOL    C26 5374   3.064   5.548   4.850 -0.8356 -0.3271 -0.6322
   15MOL    O27 5375   2.973   5.963   4.540 -0.2940  0.1402  0.3859
   15MOL    H28 5376   2.652   5.894   4.471  1.2484 -1.4797  0.7774
   15MOL    H29 5377   2.777   5.914   4.344  0.1899  1.3310 -0.7525
   15MOL    H30 5378   2.793   5.956   4.652  1.7522  2.4676  0.3212
   15MOL    H31 5379   2.918   5.736   4.491  1.7965 -0.9153  0.6495
   15MOL    H32 5380   2.769   5.725   4.603  2.1058 -3.9596 -1.3556
   15MOL    H33 5381   2.921   5.786   4.802  1.4344 -1.1459  0.6862
   15MOL    H34 5382   3.053   5.772   4.690  1.6377 -1.8262  1.0895
   15MOL    H35 5383   2.876   5.546   4.751  0.5514  0.1860  0.7335
   15MOL    H36 5384   2.999   5.547   4.632  0.1377  0.1895 -0.4148
   15MOL    H37 5385   3.025   5.578   4.947  0.9932  1.7685 -0.5002
   15MOL    H38 5386   3.162   5.592   4.832 -2.3889  3.9641  0.5880
   15MOL    H39 5387   3.077   5.440   4.847  0.0400 -0.1966 -3.3767
   15MOL    C40 5388   2.992   6.106   4.513 -0.3452 -0.2888 -0.0391
   15MOL    C41 5389   3.132   6.172   4.545 -0.7021  0.1893  0.3776
   15MOL    C42 5390   3.127   6.324   4.507 -0.7961  0.3239  0.2239
   15MOL    C43 5391   3.238   6.398   4.579  0.5453 -0.1782  0.3267
   15MOL    C44 5392   3.224   6.552   4.553 -0.3198  0.1900 -1.0893
   15MOL    C45 5393   3.347   6.624   4.595 -0.3046  0.4324 -0.5464
   15MOL    O46 5394   3.237   6.127   4.459 -0.7259 -0.3938  0.2004
   15MOL    H47 5395   2.917   6.160   4.571  0.8944 -0.3942  1.6895
   15MOL    H48 5396   2.970   6.118   4.406 -0.9046 -2.9367 -0.2463
   15MOL    H49 5397   3.153   6.154   4.651  1.7194  2.0969  0.2857
   15MOL    H50 5398   3.138   6.346   4.401 -0.7388 -0.5730  0.0401
   15MOL    H51 5399   3.027   6.356   4.536 -0.4766  1.5172  0.0326
   15MOL    H52 5400   3.334   6.376   4.532  1.3021  0.8528  1.3627
   15MOL    H53 5401   3.240   6.391   4.688  0.6317 -2.0172  0.2192
   15MOL    H54 5402   3.220   6.571   4.446  0.7236  1.9321 -0.8350
   15MOL    H55 5403   3.129   6.585   4.594  0.7617  1.1828  0.6885
   15MOL    H56 5404   3.349   6.631   4.704 -2.0719  1.2579 -0.5607
   15MOL    H57 5405   3.444   6.588   4.561 -0.6245  0.3196 -1.3580
   15MOL    H58 5406   3.331   6.723   4.552 -2.5169 -0.9672 -3.0580
   15MOL    C59 5407   3.252   5.985   4.458  0.1792  0.5235 -0.1951
   15MOL    C60 5408   3.396   5.942   4.434  1.0318 -0.2051 -0.6927
   15MOL    C61 5409   3.468   5.959   4.568  0.6555  0.9747  0.8993
   15MOL    C62 5410   3.622   5.917   4.568 -0.0293  0.1157 -0.1190
   15MOL    C63 5411   3.680   5.964   4.701  0.2865 -0.3759 -0.3958
   15MOL    C64 5412   3.651   5.869   4.808 -0.7106 -0.1363  0.1994
   15MOL    O65 5413   3.413   5.811   4.372  0.1860 -0.1440  0.1569
   15MOL    H66 5414   3.181   5.966   4.377  0.1861 -1.1722  0.1692
   15MOL    H67 5415   3.219   5.957   4.558  2.4224  1.5525  0.8712
   15MOL    H68 5416   3.440   6.017   4.368  1.5560 -0.6105 -0.8018
   15MOL    H69 5417   3.420   5.901   4.648  0.3121 -0.8197 -0.5558
   15MOL    H70 5418   3.452   6.063   4.597  0.4473  0.5006  2.5710
   15MOL    H71 5419   3.673   5.973   4.490 -1.1882 -1.2540 -1.9102
   15MOL    H72 5420   3.640   5.812   4.546  0.4458 -0.1004  1.2404
   15MOL    H73 5421   3.646   6.067   4.717  0.1324 -0.6283  0.8922
   15MOL    H74 5422   3.786   5.982   4.685  1.1415 -1.6277  3.4534
   15MOL    H75 5423   3.694   5.895   4.904  1.3032 -2.2995 -0.0770
   15MOL    H76 5424   3.543   5.856   4.812 -0.8514 -0.1821 -2.6428
   15MOL    H77 5425   3.684   5.770   4.775  1.4766  0.0876  1.6460
   15MOL    C78 5426   3.402   5.818   4.227  0.3581  0.8612  0.1797
   15MOL    C79 5427   3.389   5.673   4.171  0.3765 -0.3956 -0.6980
   15MOL    C80 5428   3.439   5.649   4.026  0.3761 -0.0081 -0.0628
   15MOL    C81 5429   3.452   5.498   3.998  0.4887 -0.7336  0.0355
   15MOL    C82 5430   3.484   5.461   3.851 -0.1573  0.0854  0.0777
   15MOL    C83 5431   3.630   5.507   3.814 -0.0648 -0.3595  0.0379
   15MOL    O84 5432   3.248   5.646   4.166 -0.1837  0.5716 -0.0892
   15MOL    H85 5433   3.496   5.862   4.194  0.6729  0.8546  1.0529
   15MOL    H86 5434   3.317   5.875   4.189 -1.0925  0.7903  3.1715
   15MOL    H87 5435   3.451   5.608   4.233  1.1484  2.2553  1.4112
   15MOL    H88 5436   3.371   5.701   3.959  1.6984  0.8874 -0.7102
   15MOL    H89 5437   3.528   5.710   4.012 -0.0477  0.2251 -1.7932
   15MOL    H90 5438   3.355   5.450   4.011  0.2611 -0.6518 -1.3246
   15MOL    H91 5439   3.503   5.437   4.072 -0.9064 -0.6736  1.0565
   15MOL    H92 5440   3.483   5.354   3.834 -1.4907  0.0898  0.1198
   15MOL    H93 5441   3.419   5.491   3.769 -0.2531  0.5387  0.3160
   15MOL    H94 5442   3.649   5.612   3.834 -0.1904 -0.6708  1.8246
   15MOL    H95 5443   3.653   5.483   3.710 -0.9315 -0.1275 -0.2055
   15MOL    H96 5444   3.702   5.450   3.873  0.5219  0.7167  0.3814
   15MOL    C97 5445   3.190   5.604   4.284 -0.5433 -0.5448  0.2879
   15MOL    C98 5446   3.046   5.576   4.260 -0.2035  1.0053  0.0821
   15MOL    C99 5447   2.982   5.692   4.177 -0.1548 -0.3052 -0.6002
   15MOL   C100 5448   2.830   5.679   4.145 -0.0980  0.2073 -0.4848
   15MOL   C101 5449   2.781   5.806   4.073 -0.0154  0.0735 -0.5029
   15MOL   C102 5450   2.629   5.794   4.058  0.1073  1.4547 -0.1172
   15MOL   O103 5451   3.020   5.454   4.186  0.1553  0.5199 -0.5575
   15MOL   H104 5452   3.201   5.682   4.360  2.0368  0.3564 -0.9621
   15MOL   H105 5453   3.243   5.516   4.323 -0.6103  0.1620  2.0298
   15MOL   H106 5454   2.988   5.568   4.352 -1.5593 -0.1927 -0.8671
   15MOL   H107 5455   3.031   5.720   4.084  0.7044 -0.8403 -0.3194
   15MOL   H108 5456   2.988   5.783   4.235  0.8627 -0.0760 -1.0505
   15MOL   H109 5457   2.782   5.661   4.242  2.3586 -0.7168  0.5963
   15MOL   H110 5458   2.812   5.592   4.083  0.9832  0.9971 -1.9326
   15MOL   H111 5459   2.826   5.811   3.973  1.6373 -0.8096  0.1812
   15MOL   H112 5460   2.802   5.902   4.119  0.1439  0.2571 -0.9544
   15MOL   H113 5461   2.610   5.688   4.037  3.4795  0.6722  0.4497
   15MOL   H114 5462   2.572   5.833   4.142  0.6431  1.8660  0.0561
   15MOL   H115 5463   2.604   5.857   3.973 -1.1783  1.0770 -0.0272
   15MOL   C116 5464   3.025   5.336   4.260  0.3257  0.8953  0.3729
   15MOL   C117 5465   2.991   5.223   4.156  0.3531  0.7043  0.0251
   15MOL   C118 5466   2.844   5.230   4.106  0.4797 -0.7654 -0.0381
   15MOL   C119 5467   2.738   5.173   4.204  0.8567 -1.0580  0.7995
   15MOL   C120 5468   2.596   5.195   4.148 -0.0639 -0.0264 -0.3096
   15MOL   C121 5469   2.483   5.149   4.235  0.0667 -0.2303 -0.0904
   15MOL   O122 5470   3.024   5.107   4.225 -0.0922 -0.1601 -0.1619
   15MOL   H123 5471   3.126   5.328   4.301  1.4474  0.3293 -2.3222
   15MOL   H124 5472   2.960   5.332   4.347 -1.8991  0.5223 -1.2778
   15MOL   H125 5473   3.063   5.235   4.075  1.0200 -1.0548  0.3355
   15MOL   H126 5474   2.817   5.333   4.082 -0.6108 -0.2540  3.1180
   15MOL   H127 5475   2.836   5.179   4.010  0.6120 -1.5599  0.3669
   15MOL   H128 5476   2.743   5.218   4.303 -1.1364 -0.1474  0.5245
   15MOL   H129 5477   2.759   5.067   4.216 -0.7199 -1.5572 -0.5936
   15MOL   H130 5478   2.567   5.295   4.117 -3.0450 -0.7136  0.1180
   15MOL   H131 5479   2.592   5.136   4.056  0.9852 -2.5808  1.2196
   15MOL   H132 5480   2.398   5.158   4.168 -0.3668 -0.7708  0.3855
   15MOL   H133 5481   2.491   5.042   4.253 -0.6591 -0.3832 -0.6956
   15MOL   H134 5482   2.456   5.205   4.325  2.6387 -0.5123  0.9211
   15MOL   C135 5483   3.026   4.983   4.152 -0.8344  0.3633 -0.1627
   15MOL   C136 5484   3.057   4.864   4.242 -0.5225 -0.1078 -0.1531
   15MOL   C137 5485   3.084   4.733   4.165  0.1981 -0.1765 -0.0727
   15MOL   C138 5486   3.155   4.633   4.249  0.4328 -0.8603 -0.5278
   15MOL   C139 5487   3.183   4.501   4.189 -0.0869 -0.6112  0.1894
   15MOL   C140 5488   3.060   4.405   4.180  0.0261 -0.1651  0.9214
   15MOL   O141 5489   2.930   4.832   4.313  0.9287  0.2426 -0.2598
   15MOL   H142 5490   2.938   4.952   4.096 -0.6988 -0.5915  0.1468
   15MOL   H143 5491   3.107   4.981   4.078  1.7462  1.4972  2.5052
   15MOL   H144 5492   3.141   4.890   4.307  0.2178 -1.3698 -0.5878
   15MOL   H145 5493   2.992   4.703   4.115  0.3544  0.5499 -0.8060
   15MOL   H146 5494   3.141   4.748   4.074 -0.2695  0.5636 -0.2517
   15MOL   H147 5495   3.110   4.617   4.346  2.1979 -0.5491  0.3724
   15MOL   H148 5496   3.251   4.681   4.273  1.0030 -1.7901 -0.9269
   15MOL   H149 5497   3.261   4.447   4.243 -1.1770 -1.9270  0.4919
   15MOL   H150 5498   3.216   4.518   4.087 -0.3608 -1.1943  0.0015
   15MOL   H151 5499   3.093   4.306   4.150  2.2026  1.0283 -0.8101
   15MOL   H152 5500   3.003   4.398   4.272  1.3870 -1.8253  1.6696
   15MOL   H153 5501   2.993   4.452   4.108  0.6628  1.4670  1.3511
   15MOL   C154 5502   2.910   4.906   4.436 -0.4722 -0.0707 -0.2967
   15MOL   C155 5503   2.825   4.806   4.514 -0.0674  0.7611  0.3946
   15MOL   C156 5504   2.907   4.695   4.589 -0.6007  0.6175 -0.4395
   15MOL   C157 5505   2.820   4.585   4.663 -0.0216 -0.5794  0.2086
   15MOL   C158 5506   2.916   4.458   4.682 -0.7129  0.2605 -0.4218
   15MOL   C159 5507   3.024   4.484   4.794 -0.4692 -0.2983 -0.0057
   15MOL   O160 5508   2.734   4.870   4.605 -0.7183  0.0529  0.4834
   15MOL   H161 5509   2.861   5.001   4.419 -1.2704 -0.5899 -0.9721
   15MOL   H162 5510   3.004   4.932   4.483 -0.3947  0.0730 -0.5282
   15MOL   H163 5511   2.773   4.745   4.441 -0.9538  2.5343 -0.4962
   15MOL   H164 5512   2.978   4.734   4.662 -1.1376 -1.0739  1.0209
   15MOL   H165 5513   2.957   4.641   4.509 -1.4442 -2.1754  0.8668
   15MOL   H166 5514   2.733   4.548   4.609 -1.1281  1.8884  0.2432
   15MOL   H167 5515   2.774   4.625   4.754  0.5180 -1.7202  0.9938
   15MOL   H168 5516   2.850   4.374   4.708 -0.1366 -0.0393  0.0883
   15MOL   H169 5517   2.962   4.438   4.586  2.0298  0.0633  0.8817
   15MOL   H170 5518   3.094   4.558   4.755 -0.8675 -0.0300 -0.2155
   15MOL   H171 5519   3.076   4.389   4.807 -0.3206 -0.1136  0.7412
   15MOL   H172 5520   2.986   4.517   4.890  1.2739 -3.7185  1.9477
   15MOL   C173 5521   2.628   4.931   4.533 -0.1893  0.3692 -0.3614
   15MOL   C174 5522   2.506   4.937   4.623 -0.8960  0.1009  0.1789
   15MOL   C175 5523   2.444   5.079   4.622  0.0210  0.6261 -0.5577
   15MOL   C176 5524   2.356   5.098   4.753  0.0170 -0.5016 -0.1030
   15MOL   C177 5525   2.261   5.214   4.755 -0.0452  0.1785  0.9471
   15MOL   C178 5526   2.170   5.213   4.879  0.3062 -0.0557 -0.4505
   15MOL   O179 5527   2.418   4.839   4.590 -0.2794  0.3956 -0.4745
   15MOL   H180 5528   2.596   4.883   4.441 -1.1300 -0.5682  0.4452
   15MOL   H181 5529   2.666   5.032   4.518 -0.0595  0.5873  1.3403
   15MOL   H182 5530   2.542   4.919   4.724 -2.7661  2.0586  1.2404
   15MOL   H183 5531   2.518   5.159   4.619 -0.0014  0.6659 -0.0495
   15MOL   H184 5532   2.381   5.082   4.533 -3.5326 -1.8420  1.7630
   15MOL   H185 5533   2.303   5.009   4.785 -1.2117  0.5417  0.7883
   15MOL   H186 5534   2.432   5.109   4.830 -0.3263  3.2345 -0.2163
   15MOL   H187 5535   2.319   5.307   4.756  0.4120 -0.0747 -0.6251
   15MOL   H188 5536   2.194   5.210   4.669  1.4202 -0.0625 -0.2029
   15MOL   H189 5537   2.139   5.316   4.894  0.3378 -0.1803  0.4724
   15MOL   H190 5538   2.212   5.179   4.973 -0.6708  1.3541  0.5085
   15MOL   H191 5539   2.075   5.162   4.862 -0.1802  0.0558  1.8547
   15MOL   C192 5540   2.465   4.703   4.612  0.9178  0.5062  0.1027
   15MOL   C193 5541   2.337   4.613   4.621  0.2884 -0.1075  0.4437
   15MOL   C194 5542   2.275   4.626   4.755  0.0379 -0.6484 -0.2463
   15MOL   C195 5543   2.143   4.557   4.774  0.1157 -0.7153  0.0118
   15MOL   C196 5544   2.077   4.607   4.906  0.4430  0.6709  0.3995
   15MOL   C197 5545   1.930   4.570   4.908 -0.7750 -0.2115  0.2710
   15MOL   O198 5546   2.380   4.474   4.622  0.3122 -0.1769 -0.1920
   15MOL   H199 5547   2.516   4.676   4.519 -1.3387  1.4899 -1.4464
   15MOL   H200 5548   2.529   4.684   4.699  0.0847 -1.1105  0.3856
   15MOL   H201 5549   2.264   4.632   4.543 -1.8325 -0.2286  2.3528
   15MOL   H202 5550   2.343   4.586   4.830  1.3035  2.3893  0.2707
   15MOL   H203 5551   2.270   4.732   4.782 -3.0477 -1.0714  1.0899
   15MOL   H204 5552   2.156   4.449   4.766  0.7042 -1.0286  4.3808
   15MOL   H205 5553   2.073   4.592   4.698  0.8034 -0.4063 -0.4878
   15MOL   H206 5554   2.120   4.564   4.996  0.8402 -1.4850 -0.7891
   15MOL   H207 5555   2.097   4.714   4.900  1.8292  0.3847 -0.3823
   15MOL   H208 5556   1.885   4.602   5.002 -0.7794 -0.2020  0.2649
   15MOL   H209 5557   1.872   4.619   4.830  2.8588  2.7272 -0.7238
   15MOL   H210 5558   1.912   4.462   4.916 -0.0971 -0.5056 -1.8396
   15MOL   C211 5559   2.423   4.404   4.507  0.1978 -0.5617 -0.3382
   15MOL   C212 5560   2.497   4.280   4.553  0.1902 -0.0488 -0.0267
   15MOL   C213 5561   2.574   4.210   4.437 -0.0592  0.7105  0.4548
   15MOL   C214 5562   2.640   4.085   4.483 -0.3919 -0.0221  0.7616
   15MOL   C215 5563   2.720   4.006   4.376  0.5240  0.1850  0.5516
   15MOL   C216 5564   2.787   4.091   4.278  0.5392  0.2391 -0.1384
   15MOL   O217 5565   2.405   4.187   4.616 -0.6299  0.1479  0.2694
   15MOL   H218 5566   2.502   4.457   4.453  0.0524 -1.9633 -1.9753
   15MOL   H219 5567   2.334   4.383   4.448  0.5705  3.9657 -2.7172
   15MOL   H220 5568   2.569   4.320   4.624 -0.8113 -0.4477  1.2496
   15MOL   H221 5569   2.517   4.188   4.347 -0.6351 -2.0586  1.4606
   15MOL   H222 5570   2.644   4.287   4.404 -2.4635  2.4634 -0.7417
   15MOL   H223 5571   2.712   4.114   4.560  0.2084 -1.3040  0.6963
   15MOL   H224 5572   2.562   4.024   4.530 -0.1645  0.2459  1.4970
   15MOL   H225 5573   2.788   3.938   4.426  1.2160  1.7420  1.7914
   15MOL   H226 5574   2.644   3.939   4.336 -0.5937  0.9380  1.3943
   15MOL   H227 5575   2.844   4.024   4.214  1.9079  1.6306 -0.4242
   15MOL   H228 5576   2.850   4.169   4.320  0.2333 -0.0738  0.9025
   15MOL   H229 5577   2.709   4.142   4.220 -2.2364 -2.5763  1.0009
   15MOL   C230 5578   2.402   4.201   4.754  0.2427  0.7416 -0.1712
   15MOL   C231 5579   2.318   4.086   4.818  0.0266  0.4778  0.0317
   15MOL   C232 5580   2.305   4.118   4.969  0.3286  1.2483 -0.1946
   15MOL   C233 5581   2.430   4.112   5.058  0.4973 -0.4963  0.1241
   15MOL   C234 5582   2.400   4.145   5.204 -0.0974  0.2564  0.1432
   15MOL   C235 5583   2.521   4.142   5.292 -0.8036  0.4178  0.0635
   15MOL   O236 5584   2.398   3.967   4.810  0.1751  0.0652  0.1935
   15MOL   H237 5585   2.505   4.189   4.788 -0.4032  2.7859  2.7113
   15MOL   H238 5586   2.360   4.298   4.782 -1.7994  0.2468 -1.4751
   15MOL   H239 5587   2.225   4.094   4.762  1.6207 -0.3624 -2.8021
   15MOL   H240 5588   2.234   4.048   5.013  0.8326  0.5048 -0.5464
   15MOL   H241 5589   2.268   4.221   4.967 -0.7866  0.8370 -2.3139
   15MOL   H242 5590   2.508   4.181   5.027 -0.8276  1.8750  1.9137
   15MOL   H243 5591   2.474   4.012   5.056 -0.7941 -1.0898  0.4547
   15MOL   H244 5592   2.358   4.245   5.206  1.1785  0.8468 -1.1235
   15MOL   H245 5593   2.323   4.079   5.244 -0.5009 -1.3682 -3.1227
   15MOL   H246 5594   2.497   4.162   5.396  0.2184  1.6181  0.0870
   15MOL   H247 5595   2.590   4.224   5.275  0.6204 -0.6458  0.6069
   15MOL   H248 5596   2.580   4.050   5.289  0.1911  0.9781  1.8476
   15MOL   C249 5597   2.312   3.855   4.805 -0.4887 -0.6686  0.1703
   15MOL   C250 5598   2.375   3.723   4.767  0.3725  0.0635 -0.7025
   15MOL   C251 5599   2.264   3.621   4.736  0.6324 -0.1933  0.1297
   15MOL   C252 5600   2.178   3.577   4.859 -0.3008 -0.0457 -0.4112
   15MOL   C253 5601   2.028   3.607   4.848 -0.3835 -0.6500  0.6578
   15MOL   C254 5602   1.942   3.570   4.967  0.2346 -0.5255  0.3085
   15MOL   O255 5603   2.458   3.659   4.868 -0.5378  0.6641  0.8128
   15MOL   H256 5604   2.266   3.859   4.904 -0.1382  0.2033  0.3091
   15MOL   H257 5605   2.234   3.879   4.733  0.3065 -0.6913 -0.7063
   15MOL   H258 5606   2.432   3.732   4.675  1.5645 -1.1827 -0.1108
   15MOL   H259 5607   2.206   3.665   4.654  0.9485 -0.6470 -0.3447
   15MOL   H260 5608   2.318   3.536   4.693  2.1784  1.5332 -1.4065
   15MOL   H261 5609   2.197   3.473   4.883 -1.1963  0.2213  1.5545
   15MOL   H262 5610   2.207   3.641   4.943 -1.3372 -2.2803  1.6992
   15MOL   H263 5611   2.017   3.710   4.815  1.8721 -0.4183  0.5916
   15MOL   H264 5612   2.001   3.556   4.755 -1.8097  0.3730  0.4949
   15MOL   H265 5613   1.837   3.558   4.939  0.7619 -0.4161 -1.8287
   15MOL   H266 5614   1.940   3.642   5.049 -0.8813 -0.6468  0.4032
   15MOL   H267 5615   1.982   3.475   5.004  1.4530  0.0750  0.5357
   15MOL   C268 5616   2.575   3.726   4.910  0.2432 -0.3951  0.0152
   15MOL   C269 5617   2.682   3.760   4.807 -0.1361  0.7332  0.6074
   15MOL   C270 5618   2.728   3.630   4.736  0.2825  0.3488  0.1993
   15MOL   C271 5619   2.818   3.661   4.615  0.1350 -0.1026 -0.0216
   15MOL   C272 5620   2.828   3.530   4.534 -0.1376 -0.6478  0.2738
   15MOL   C273 5621   2.913   3.537   4.411  0.3005  0.0884  0.3880
   15MOL   O274 5622   2.794   3.833   4.857  0.4790 -0.0800  0.0170
   15MOL   H275 5623   2.628   3.655   4.973  0.6213 -1.2285 -1.2278
   15MOL   H276 5624   2.536   3.814   4.962  1.0231 -1.1822  1.9973
   15MOL   H277 5625   2.650   3.830   4.730 -0.2735 -1.4009 -1.3322
   15MOL   H278 5626   2.749   3.549   4.806 -0.6531  0.1519  0.2514
   15MOL   H279 5627   2.637   3.589   4.694  0.2283 -0.3097  0.9538
   15MOL   H280 5628   2.769   3.736   4.553  0.8685  0.5059  0.1254
   15MOL   H281 5629   2.915   3.701   4.645  1.2319 -1.5310 -1.5612
   15MOL   H282 5630   2.846   3.444   4.599 -2.3914 -1.7955 -0.5742
   15MOL   H283 5631   2.728   3.503   4.500 -1.1237  2.1143  0.7694
   15MOL   H284 5632   2.949   3.437   4.389  1.5001  0.8502 -1.2726
   15MOL   H285 5633   2.855   3.564   4.323 -2.3468 -3.2682  1.0392
   15MOL   H286 5634   2.990   3.610   4.438  0.8345 -0.5131  0.4863
   15MOL   C287 5635   2.760   3.956   4.912 -0.1995 -0.2092  0.1100
   15MOL   C288 5636   2.893   4.017   4.964  0.4475 -0.5537 -0.4359
   15MOL   C289 5637   2.874   4.119   5.076  0.2654  0.0934 -0.3364
   15MOL   C290 5638   3.009   4.182   5.121  0.1962 -0.2447  0.4425
   15MOL   C291 5639   2.987   4.279   5.229  0.5030 -0.1353  0.4179
   15MOL   C292 5640   2.954   4.219   5.366  0.1552  0.1855 -0.3874
   15MOL   O293 5641   2.964   4.077   4.858 -0.0416  0.0929  0.2670
   15MOL   H294 5642   2.688   3.952   4.994 -0.8552  0.7723 -0.4011
   15MOL   H295 5643   2.720   4.028   4.841  2.0167  1.7003  0.7151
   15MOL   H296 5644   2.951   3.937   5.010  1.4235  1.0680  1.1779
   15MOL   H297 5645   2.800   4.196   5.052 -1.4825 -0.4264  3.0884
   15MOL   H298 5646   2.823   4.077   5.162  0.7992  1.5426  0.7099
   15MOL   H299 5647   3.061   4.096   5.163  0.6623  0.5358  1.4534
   15MOL   H300 5648   3.061   4.233   5.040  0.8403  2.4886  2.5036
   15MOL   H301 5649   2.918   4.355   5.191  0.2049 -0.5448  0.1450
   15MOL   H302 5650   3.078   4.337   5.248 -0.3754  1.7979 -1.0772
   15MOL   H303 5651   2.967   4.289   5.448 -2.1875 -0.7679  0.8495
   15MOL   H304 5652   2.853   4.178   5.358  1.0741 -2.1269 -0.5863
   15MOL   H305 5653   3.009   4.131   5.400 -1.1839  0.0514  1.5154
   15MOL   C306 5654   2.998   3.994   4.747 -0.6258 -0.0644  0.4023
   15MOL   C307 5655   3.091   4.066   4.645  0.2569  0.2221  1.4442
   15MOL   C308 5656   3.107   3.997   4.512 -0.7487 -0.0242 -0.1238
   15MOL   C309 5657   3.213   4.042   4.416 -0.5380 -0.0564 -0.2106
   15MOL   C310 5658   3.226   3.960   4.285 -0.4720  0.3160  0.8881
   15MOL   C311 5659   3.333   4.025   4.197 -0.4989  0.2370  0.0448
   15MOL   O312 5660   3.230   4.072   4.691 -0.5191 -0.9113 -0.2319
   15MOL   H313 5661   3.044   3.903   4.785 -1.4498  0.1101  1.8366
   15MOL   H314 5662   2.904   3.974   4.694  0.2611 -1.9876 -0.4961
   15MOL   H315 5663   3.066   4.169   4.622 -2.0092 -0.2558  1.6943
   15MOL   H316 5664   3.016   4.009   4.453 -2.2527  0.1690  2.1817
   15MOL   H317 5665   3.124   3.891   4.530 -0.2782  0.0282 -0.2556
   15MOL   H318 5666   3.200   4.146   4.388  4.3892  0.6203 -0.3861
   15MOL   H319 5667   3.310   4.049   4.466  0.0211  1.5268 -1.4905
   15MOL   H320 5668   3.132   3.936   4.236  0.8215 -1.0304 -1.0172
   15MOL   H321 5669   3.268   3.861   4.307 -3.1616 -1.1205 -0.2913
   15MOL   H322 5670   3.372   3.964   4.115 -1.4824 -2.3559  1.4454
   15MOL   H323 5671   3.288   4.110   4.144 -2.6300 -0.7530  0.2083
   15MOL   H324 5672   3.426   4.056   4.245 -0.5316  0.8231 -0.2626
   15MOL   C325 5673   3.258   4.130   4.817  0.1399 -0.1681 -0.0144
   15MOL   C326 5674   3.410   4.153   4.823 -0.8302  0.3265  0.2006
   15MOL   C327 5675   3.434   4.206   4.967 -0.6691 -0.7430  0.4076
   15MOL   C328 5676   3.579   4.204   5.016 -0.0812  0.6518  0.0431
   15MOL   C329 5677   3.591   4.257   5.163 -0.4222  0.0975  0.3354
   15MOL   C330 5678   3.518   4.166   5.265  0.2605 -0.4817  0.0840
   15MOL   O331 5679   3.459   4.256   4.741  0.2206  0.1637  0.2312
   15MOL   H332 5680   3.215   4.062   4.890 -0.3563  1.0283  0.8336
   15MOL   H333 5681   3.208   4.225   4.836 -2.3812 -0.9023 -2.7004
   15MOL   H334 5682   3.460   4.061   4.793  0.3473  1.2112 -0.5896
   15MOL   H335 5683   3.400   4.308   4.979 -0.7638 -0.6925 -0.2680
   15MOL   H336 5684   3.376   4.153   5.043 -2.4628  1.3545  0.5458
   15MOL   H337 5685   3.606   4.099   5.025 -1.2011  0.5943  3.3295
   15MOL   H338 5686   3.649   4.259   4.953  1.1599 -0.6846  0.2337
   15MOL   H339 5687   3.695   4.273   5.192 -0.1841  0.8196 -0.9019
   15MOL   H340 5688   3.540   4.353   5.151 -0.8843 -0.1663  0.1641
   15MOL   H341 5689   3.569   4.070   5.277  0.8825  0.0966  2.3281
   15MOL   H342 5690   3.519   4.216   5.362 -1.0011 -2.7033  1.3074
   15MOL   H343 5691   3.412   4.148   5.248  0.4081 -0.6564 -0.6860
   15MOL   C344 5692   3.437   4.257   4.596  0.0100  0.2260  0.5781
   15MOL   C345 5693   3.523   4.376   4.542  0.2445  0.5093 -0.5336
   15MOL   C346 5694   3.553   4.364   4.391  0.4045  0.0205 -0.4092
   15MOL   C347 5695   3.644   4.477   4.353  0.2219  0.2901 -0.0636
   15MOL   C348 5696   3.666   4.466   4.199 -0.1021  0.0302  0.6023
   15MOL   C349 5697   3.740   4.337   4.174  0.0650  0.2070  0.0736
   15MOL   O350 5698   3.456   4.501   4.566 -0.0584  0.2999  0.4189
   15MOL   H351 5699   3.331   4.263   4.571 -0.1135 -0.9147  0.7998
   15MOL   H352 5700   3.486   4.167   4.557  1.1512  0.9609  0.2746
   15MOL   H353 5701   3.619   4.380   4.592 -0.8444 -3.9240  2.2330
   15MOL   H354 5702   3.463   4.350   4.331 -0.9113  0.5053  1.4181
   15MOL   H355 5703   3.595   4.263   4.387 -1.6402 -1.0496  2.9194
   15MOL   H356 5704   3.737   4.481   4.408  0.6972  0.5953 -0.8757
   15MOL   H357 5705   3.593   4.570   4.377  0.9505  0.1682  1.9988
   15MOL   H358 5706   3.718   4.558   4.169 -1.3917  0.6818  0.3357
   15MOL   H359 5707   3.572   4.473   4.144  0.6329 -1.2499 -0.8522
   15MOL   H360 5708   3.672   4.253   4.165 -1.3786  1.3419  0.1442
   15MOL   H361 5709   3.806   4.324   4.260  1.3693  1.2689 -0.7498
   15MOL   H362 5710   3.798   4.345   4.082 -2.3646 -1.7923 -1.7006
   15MOL   C363 5711   3.437   4.560   4.695 -0.4560  0.5060 -0.1679
   15MOL   C364 5712   3.406   4.704   4.665  0.0324  0.7285 -0.2760
   15MOL   C365 5713   3.506   4.786   4.580 -0.2347 -0.4275 -0.8767
   15MOL   C366 5714   3.546   4.923   4.635  0.7559  0.9304  0.2119
   15MOL   C367 5715   3.630   5.031   4.552  0.7624  0.3402 -0.0175
   15MOL   C368 5716   3.779   4.989   4.536 -0.4817 -0.9195  0.2696
   15MOL   O369 5717   3.285   4.696   4.596 -0.0922 -0.2540  0.0955
   15MOL   H370 5718   3.529   4.549   4.754  1.1987  0.1068 -2.7523
   15MOL   H371 5719   3.366   4.494   4.745 -0.3584  0.7141  0.2485
   15MOL   H372 5720   3.394   4.752   4.762 -0.9012 -0.4934  0.2184
   15MOL   H373 5721   3.589   4.719   4.560 -1.8988 -2.5821 -0.8012
   15MOL   H374 5722   3.460   4.806   4.483  1.8032  1.2232 -1.5475
   15MOL   H375 5723   3.463   4.976   4.680  0.7503  0.5144  0.7101
   15MOL   H376 5724   3.595   4.902   4.731 -3.7382 -1.7821  2.0708
   15MOL   H377 5725   3.585   5.047   4.454 -0.5743  0.5170  0.6239
   15MOL   H378 5726   3.618   5.115   4.620 -0.0765 -2.4263  3.3928
   15MOL   H379 5727   3.790   4.887   4.500  2.0847 -0.1085 -1.3719
   15MOL   H380 5728   3.830   5.054   4.465  1.8833 -0.4977  2.2868
   15MOL   H381 5729   3.826   5.010   4.632  0.0157 -0.8302  0.0100
   15MOL   H382 5730   3.297   4.625   4.535  0.4951 -0.8167  0.8554
   16MOL     C1 5731   2.669   7.330   0.031 -0.1834  0.2424  0.6492
   16MOL     C2 5732   2.805   7.341   0.104  0.2650 -0.4139  0.9310
   16MOL     C3 5733   2.929   7.382   0.005 -0.4380 -0.2856  0.5253
   16MOL     C4 5734   2.929   7.296   7.667 -0.6390 -0.3196 -0.5070
   16MOL     C5 5735   3.068   7.291   7.588  0.3148  0.1509  0.4531
   16MOL     C6 5736   3.072   7.168   7.491  0.6946  0.1383  0.5614
   16MOL     O7 5737   2.791   7.448   0.192 -0.0416  0.0716  0.5098
   16MOL     H8 5738   2.636   7.427   7.779  0.7434  0.9708  1.6870
   16MOL     H9 5739   2.591   7.318   0.106 -1.1088 -1.0958 -0.5024
   16MOL    H10 5740   2.832   7.247   0.154  0.5229  0.3544  2.2507
   16MOL    H11 5741   2.911   7.484   7.756 -0.8845 -0.3633  0.5257
   16MOL    H12 5742   3.025   7.371   0.055 -0.8245 -1.1148  1.0938
   16MOL    H13 5743   2.913   7.195   7.706  1.0000 -0.6548 -0.6543
   16MOL    H14 5744   2.842   7.324   7.608 -1.6496 -1.6432  0.3340
   16MOL    H15 5745   3.073   7.387   7.538 -1.5840 -0.6165 -1.2679
   16MOL    H16 5746   3.145   7.280   7.665  0.0220  0.9570  0.8633
   16MOL    H17 5747   2.999   7.176   7.410  3.1351  2.1154 -1.5225
   16MOL    H18 5748   3.172   7.156   7.449  0.5197  0.8561 -0.0675
   16MOL    H19 5749   3.046   7.076   7.544 -0.2869  0.5234  0.7577
   16MOL    H20 5750   2.671   7.246   7.747  0.3659 -1.6093  2.8356
   16MOL    C21 5751   2.885   7.454   0.295 -0.4577  0.2741  0.2566
   16MOL    C22 5752   2.829   7.541   0.407  0.2841  0.3533 -0.6853
   16MOL    C23 5753   2.747   7.451   0.507 -0.0355 -0.1944 -0.2494
   16MOL    C24 5754   2.672   7.547   0.600  0.2737  0.4469  0.1117
   16MOL    C25 5755   2.571   7.487   0.710 -0.2919  0.4074 -0.3660
   16MOL    C26 5756   2.650   7.430   0.828 -0.0246 -0.5536  0.5517
   16MOL    O27 5757   2.929   7.609   0.484 -0.2850  0.2793  0.0484
   16MOL    H28 5758   2.890   7.354   0.340 -0.1599  0.4123  0.5339
   16MOL    H29 5759   2.985   7.478   0.261 -0.0567 -1.6155  0.0644
   16MOL    H30 5760   2.765   7.613   0.355  0.2079  1.1747  0.5328
   16MOL    H31 5761   2.829   7.406   0.564 -0.4695 -0.5837  0.0638
   16MOL    H32 5762   2.684   7.378   0.458 -0.6717 -1.2891  2.1210
   16MOL    H33 5763   2.612   7.619   0.544 -0.4763  0.3255  0.7510
   16MOL    H34 5764   2.746   7.611   0.648  0.0050  0.9034 -0.0771
   16MOL    H35 5765   2.512   7.568   0.752 -0.3933  0.2085 -0.1261
   16MOL    H36 5766   2.504   7.413   0.667 -0.0545 -1.6404  2.7036
   16MOL    H37 5767   2.704   7.343   0.792 -0.4084 -0.3941 -0.4277
   16MOL    H38 5768   2.575   7.396   0.899 -0.9543 -1.3782 -0.8050
   16MOL    H39 5769   2.717   7.503   0.873  1.0592 -1.7974  1.0031
   16MOL    C40 5770   2.970   7.733   0.423 -1.1266  1.0040 -0.1024
   16MOL    C41 5771   3.117   7.780   0.468 -0.1588 -0.1886  0.2926
   16MOL    C42 5772   3.138   0.133   0.411 -0.2658 -0.4186 -0.3931
   16MOL    C43 5773   3.263   0.205   0.456 -0.0563 -0.6458 -0.2924
   16MOL    C44 5774   3.272   0.351   0.395 -0.2586 -0.3256  0.5414
   16MOL    C45 5775   3.335   0.343   0.259  1.2315  0.0912  0.3929
   16MOL    O46 5776   3.216   7.693   0.396 -0.1088 -0.4288 -0.1148
   16MOL    H47 5777   2.894   0.022   0.444 -1.7377 -0.3304  2.6417
   16MOL    H48 5778   2.965   7.740   0.314 -2.7545  0.0364 -0.1116
   16MOL    H49 5779   3.121   7.783   0.577 -4.0415 -2.4779  0.5784
   16MOL    H50 5780   3.130   0.126   0.302 -0.7020 -0.3415 -0.3682
   16MOL    H51 5781   3.053   0.190   0.450  0.1325 -0.1969  0.1550
   16MOL    H52 5782   3.356   0.157   0.429  1.2399  1.4430  0.3110
   16MOL    H53 5783   3.265   0.206   0.565 -1.2674 -0.2877 -0.2595
   16MOL    H54 5784   3.177   0.405   0.399 -0.2872 -0.3821  0.6450
   16MOL    H55 5785   3.342   0.408   0.457 -1.1020 -0.7733  1.9314
   16MOL    H56 5786   3.269   0.294   0.188  0.0210  0.9823  0.9005
   16MOL    H57 5787   3.370   0.438   0.217  2.2955 -0.1691  0.6687
   16MOL    H58 5788   3.430   0.289   0.253  1.7878  1.2377 -1.8198
   16MOL    C59 5789   3.284   7.603   0.483  0.5841  0.3608 -0.1367
   16MOL    C60 5790   3.377   7.512   0.399 -0.4072 -0.1316  0.7090
   16MOL    C61 5791   3.522   7.549   0.396  0.0798 -0.0961  0.3076
   16MOL    C62 5792   3.549   7.688   0.334 -0.1591  0.2135 -0.7009
   16MOL    C63 5793   3.695   7.712   0.316  0.2321 -0.3551 -0.2383
   16MOL    C64 5794   3.726   0.048   0.222 -0.5377 -0.1266  0.0642
   16MOL    O65 5795   3.364   7.382   0.454  0.1599  0.1540  0.3201
   16MOL    H66 5796   3.213   7.550   0.546 -1.5703  2.3561 -0.7951
   16MOL    H67 5797   3.341   7.657   0.558  0.5129 -0.5616  0.5833
   16MOL    H68 5798   3.344   7.517   0.296 -1.9429 -1.4824  1.1134
   16MOL    H69 5799   3.581   7.471   0.347  1.0424  0.8786 -0.1125
   16MOL    H70 5800   3.566   7.564   0.494  0.4633 -1.5780  0.3801
   16MOL    H71 5801   3.513   7.760   0.406  0.6100  0.4021 -0.4962
   16MOL    H72 5802   3.500   7.708   0.238  0.3293  0.6406 -0.8666
   16MOL    H73 5803   3.741   7.621   0.279  0.3492  0.0719 -1.1551
   16MOL    H74 5804   3.731   7.731   0.417  0.2084  0.5022 -0.3855
   16MOL    H75 5805   3.702   0.014   0.121  2.8156 -0.5444 -0.6671
   16MOL    H76 5806   3.668   0.136   0.249  0.0332 -0.4884  2.6032
   16MOL    H77 5807   3.835   0.056   0.226 -0.1917 -3.6139 -0.6979
   16MOL    C78 5808   3.259   7.301   0.395  0.6270  0.0174  0.5327
   16MOL    C79 5809   3.261   7.159   0.453  0.0158 -0.2781 -0.2297
   16MOL    C80 5810   3.147   7.071   0.404 -0.1367 -0.4103 -0.6149
   16MOL    C81 5811   3.177   7.019   0.263 -0.5243  0.2358  0.6291
   16MOL    C82 5812   3.070   6.912   0.226  0.1434 -0.2180 -0.2104
   16MOL    C83 5813   2.951   6.982   0.166  0.0889  0.1587  0.0486
   16MOL    O84 5814   3.225   7.164   0.593  0.2897 -0.3060 -0.2312
   16MOL    H85 5815   3.266   7.300   0.287  1.6518  0.2594  0.5966
   16MOL    H86 5816   3.162   7.344   0.423  0.3203 -1.2964  1.5556
   16MOL    H87 5817   3.357   7.111   0.436 -0.5496 -0.6803 -2.3990
   16MOL    H88 5818   3.133   6.991   0.476 -0.3101  1.5230  1.5453
   16MOL    H89 5819   3.046   7.113   0.411 -1.2499 -3.4020  2.6156
   16MOL    H90 5820   3.273   6.965   0.263 -1.3534 -1.2702  1.0454
   16MOL    H91 5821   3.196   7.095   0.187  1.4302  0.2910  1.1328
   16MOL    H92 5822   3.117   6.848   0.151 -1.6728 -1.7111 -0.1133
   16MOL    H93 5823   3.048   6.844   0.309 -1.9419  0.4656 -0.1534
   16MOL    H94 5824   2.863   6.928   0.131 -1.4234  1.9974  0.9128
   16MOL    H95 5825   2.984   7.034   0.076 -1.5847 -0.5443 -0.9991
   16MOL    H96 5826   2.909   7.062   0.228 -0.5573  0.4032 -0.6946
   16MOL    C97 5827   3.325   7.190   0.692 -0.3515  0.2098 -1.1008
   16MOL    C98 5828   3.269   7.166   0.838 -0.2240 -0.1459 -0.1046
   16MOL    C99 5829   3.147   7.258   0.863 -0.5108  0.4678  0.4261
   16MOL   C100 5830   3.105   7.260   1.012  0.5995  0.1382  0.1039
   16MOL   C101 5831   2.996   7.359   1.042 -0.0824  0.0425  0.3473
   16MOL   C102 5832   2.978   7.390   1.184  0.3270 -0.1396 -1.1307
   16MOL   O103 5833   3.238   7.026   0.851  0.1707  0.1475  1.0753
   16MOL   H104 5834   3.359   7.293   0.683  1.2032 -0.3862 -2.2857
   16MOL   H105 5835   3.412   7.126   0.678 -0.2154  0.1969 -0.2229
   16MOL   H106 5836   3.337   7.200   0.916 -1.1827  0.3006  0.5406
   16MOL   H107 5837   3.068   7.225   0.795 -0.3702  1.9152 -0.4774
   16MOL   H108 5838   3.186   7.355   0.831 -0.0248 -0.0268 -0.5039
   16MOL   H109 5839   3.197   7.271   1.068  1.5606 -2.0978 -0.9574
   16MOL   H110 5840   3.077   7.159   1.042  1.5452 -0.2939 -0.4353
   16MOL   H111 5841   2.897   7.332   1.004  0.4786  0.3536 -1.3536
   16MOL   H112 5842   3.017   7.455   0.995  0.3683  0.8121  2.0822
   16MOL   H113 5843   2.887   7.446   1.209 -0.0672 -0.3790 -2.0211
   16MOL   H114 5844   2.989   7.307   1.254  0.2912  0.8207  0.0338
   16MOL   H115 5845   3.058   7.457   1.215  1.1680 -0.9866 -1.4787
   16MOL   C116 5846   3.346   6.941   0.881  0.1992 -0.3371 -0.0300
   16MOL   C117 5847   3.311   6.799   0.886 -0.0168  0.0851  0.8541
   16MOL   C118 5848   3.408   6.707   0.953 -0.1751  0.3232  0.1868
   16MOL   C119 5849   3.422   6.706   1.110  0.1160 -0.1527  0.2611
   16MOL   C120 5850   3.547   6.624   1.158 -0.1037 -0.0928 -0.6329
   16MOL   C121 5851   3.562   6.614   1.317 -0.5589  0.3521  0.3753
   16MOL   O122 5852   3.300   6.733   0.755 -0.1169  0.6550  0.1908
   16MOL   H123 5853   3.423   6.966   0.808  0.7972  0.0470  0.7272
   16MOL   H124 5854   3.382   6.978   0.977 -1.4658  1.4747 -0.0621
   16MOL   H125 5855   3.216   6.793   0.940 -0.6211  0.2170 -0.1660
   16MOL   H126 5856   3.385   6.608   0.914  0.1936  1.5812 -3.4401
   16MOL   H127 5857   3.510   6.722   0.919  0.1526  2.0321  1.8664
   16MOL   H128 5858   3.330   6.679   1.161  0.7369 -2.5654  0.1766
   16MOL   H129 5859   3.434   6.811   1.136  2.1768 -0.3433  0.1297
   16MOL   H130 5860   3.554   6.523   1.117  0.4306 -0.9395  1.4775
   16MOL   H131 5861   3.640   6.663   1.117  1.4647 -1.4477  1.5104
   16MOL   H132 5862   3.579   6.712   1.360 -1.4180  1.8273 -2.4489
   16MOL   H133 5863   3.467   6.579   1.357  0.2983  0.0404  2.1488
   16MOL   H134 5864   3.641   6.542   1.335  2.2192  3.1668 -0.2440
   16MOL   C135 5865   3.188   6.760   0.674  0.1614 -0.4652 -1.1738
   16MOL   C136 5866   3.186   6.657   0.558 -0.7547  0.5294 -0.0368
   16MOL   C137 5867   3.318   6.692   0.473  0.2915 -0.7412 -1.1517
   16MOL   C138 5868   3.333   6.603   0.350  0.3789 -0.5004 -0.1082
   16MOL   C139 5869   3.467   6.585   0.292 -0.1979  0.0316 -0.6494
   16MOL   C140 5870   3.494   6.690   0.177 -0.2769  0.2419  0.2039
   16MOL   O141 5871   3.072   6.668   0.471  0.4593  0.4240 -0.5536
   16MOL   H142 5872   3.099   6.754   0.736  1.0876  0.7389  0.2968
   16MOL   H143 5873   3.197   6.861   0.633  1.9087  0.0648  0.4321
   16MOL   H144 5874   3.183   6.559   0.605  1.0069  2.5775  4.6600
   16MOL   H145 5875   3.325   6.794   0.437 -0.5188 -0.6280 -0.9849
   16MOL   H146 5876   3.400   6.682   0.544 -0.0765 -0.3620 -0.6733
   16MOL   H147 5877   3.258   6.650   0.286 -1.2281 -0.1465  1.9569
   16MOL   H148 5878   3.298   6.502   0.368 -3.6988  0.4837 -1.7921
   16MOL   H149 5879   3.489   6.488   0.246  0.6668 -0.3828  0.5963
   16MOL   H150 5880   3.550   6.589   0.363  1.0687 -0.2071 -2.0939
   16MOL   H151 5881   3.464   6.790   0.207  0.9925  0.9500 -0.8171
   16MOL   H152 5882   3.599   6.702   0.152 -0.9129 -1.2987 -3.4808
   16MOL   H153 5883   3.445   6.667   0.082 -0.5153  2.4124 -0.2124
   16MOL   C154 5884   2.947   6.636   0.544  1.0284 -0.3034  0.2101
   16MOL   C155 5885   2.862   6.528   0.476 -0.1127  0.3563  1.0211
   16MOL   C156 5886   2.800   6.416   0.566  0.7845  0.4938 -0.2983
   16MOL   C157 5887   2.901   6.308   0.605 -0.3753 -0.1337  0.2249
   16MOL   C158 5888   2.857   6.202   0.700  0.7494 -0.0072  0.2191
   16MOL   C159 5889   2.973   6.116   0.753  0.0959  0.0469  0.6741
   16MOL   O160 5890   2.750   6.593   0.421 -0.0118 -0.4666 -0.3575
   16MOL   H161 5891   2.883   6.720   0.571 -0.7563 -1.4106 -0.5313
   16MOL   H162 5892   2.979   6.599   0.641  4.1183  1.3656 -0.1005
   16MOL   H163 5893   2.923   6.481   0.399 -0.7206  2.3260 -0.7037
   16MOL   H164 5894   2.715   6.373   0.513 -0.9879  1.5716  1.6095
   16MOL   H165 5895   2.765   6.466   0.656 -1.5410 -0.8472 -0.4107
   16MOL   H166 5896   2.986   6.358   0.651 -1.4726  0.6095  1.4541
   16MOL   H167 5897   2.955   6.256   0.525 -1.3577 -2.5633  1.0930
   16MOL   H168 5898   2.819   6.258   0.785 -2.2459  0.3211 -1.2651
   16MOL   H169 5899   2.771   6.148   0.660  1.3663 -0.3316 -0.6890
   16MOL   H170 5900   3.023   6.068   0.668 -1.3603 -1.2612  0.5514
   16MOL   H171 5901   2.937   6.040   0.821 -3.0991  1.5639  0.7632
   16MOL   H172 5902   3.033   6.186   0.812 -0.7703  0.8231  0.6407
   16MOL   C173 5903   2.775   6.630   0.288  0.0829 -0.4698 -0.8459
   16MOL   C174 5904   2.653   6.708   0.231  0.2176  0.4847 -0.1345
   16MOL   C175 5905   2.610   6.834   0.302 -0.3167  0.0129  0.4310
   16MOL   C176 5906   2.483   6.897   0.238  0.2374  0.5418 -0.4604
   16MOL   C177 5907   2.422   7.021   0.307 -0.1995  0.3689  0.5070
   16MOL   C178 5908   2.344   7.110   0.209  1.5581  0.6459  0.3050
   16MOL   O179 5909   2.680   6.747   0.094  0.3597  0.2552 -0.3260
   16MOL   H180 5910   2.783   6.536   0.233  0.2318  0.9897 -3.4210
   16MOL   H181 5911   2.867   6.688   0.279 -1.3436  1.9000 -0.6393
   16MOL   H182 5912   2.568   6.640   0.236  1.5376 -1.1252  1.1883
   16MOL   H183 5913   2.585   6.810   0.405 -1.0436 -0.5750  0.1180
   16MOL   H184 5914   2.692   6.906   0.305  0.6212 -0.9941 -0.4381
   16MOL   H185 5915   2.517   6.909   0.135  0.1995 -1.5030 -0.7186
   16MOL   H186 5916   2.406   6.821   0.231  0.7630 -0.1364  1.0025
   16MOL   H187 5917   2.331   7.009   0.367 -0.5528 -0.9962 -0.2833
   16MOL   H188 5918   2.493   7.079   0.366  0.0311 -0.8729  1.4659
   16MOL   H189 5919   2.280   7.180   0.263 -0.6566  0.4003 -1.9166
   16MOL   H190 5920   2.268   7.043   0.169  0.1143  2.8528 -0.7462
   16MOL   H191 5921   2.407   7.153   0.132 -0.2625  2.5910 -0.1602
   16MOL   C192 5922   2.624   6.668   7.780  0.0683  0.0140 -0.0676
   16MOL   C193 5923   2.628   6.737   7.638 -0.3416  0.1862 -0.1994
   16MOL   C194 5924   2.756   6.709   7.559  0.0410 -0.5156  0.2938
   16MOL   C195 5925   2.869   6.788   7.611 -0.0298 -0.1177 -0.2208
   16MOL   C196 5926   3.008   6.784   7.539  0.0936  0.0258  0.1167
   16MOL   C197 5927   3.000   6.827   7.391 -0.3303 -0.4456 -0.6094
   16MOL   O198 5928   2.592   6.872   7.629 -0.5230 -0.1288 -0.4595
   16MOL   H199 5929   2.663   6.568   7.764 -0.2804 -0.2137  0.4771
   16MOL   H200 5930   2.521   6.651   0.027  0.3835 -0.8366  0.5096
   16MOL   H201 5931   2.558   6.677   7.578  0.3098 -0.7402 -0.0500
   16MOL   H202 5932   2.788   6.605   7.551  0.2028 -0.2702 -2.8567
   16MOL   H203 5933   2.737   6.743   7.458  2.7967 -0.6293 -0.3063
   16MOL   H204 5934   2.896   6.765   7.714 -2.2880 -1.3157  0.1203
   16MOL   H205 5935   2.841   6.893   7.607 -2.0874 -0.7152 -2.9165
   16MOL   H206 5936   3.078   6.849   7.590  0.4315 -1.3255  1.4171
   16MOL   H207 5937   3.043   6.681   7.548 -0.0737 -0.0939 -0.5570
   16MOL   H208 5938   3.096   6.855   7.349  0.3315 -1.6682  0.0657
   16MOL   H209 5939   2.963   6.748   7.325  1.5200 -0.5087 -1.6021
   16MOL   H210 5940   2.926   6.906   7.377  0.7291  0.4590 -1.1475
   16MOL   C211 5941   2.452   6.895   7.629 -0.1516 -0.3530  0.1163
   16MOL   C212 5942   2.434   7.053   7.617  0.8536 -0.5869  0.1085
   16MOL   C213 5943   2.280   7.070   7.651 -0.6041 -0.3180  0.3273
   16MOL   C214 5944   2.233   7.221   7.672 -0.3426  0.4247  0.6821
   16MOL   C215 5945   2.082   7.215   7.706  0.1230 -0.2170  0.1276
   16MOL   C216 5946   2.023   7.356   7.675 -0.7092  0.7851 -0.6337
   16MOL   O217 5947   2.444   7.107   7.487 -0.2173  0.1882  0.3065
   16MOL   H218 5948   2.397   6.846   7.710 -0.6189  0.2182  0.1470
   16MOL   H219 5949   2.411   6.860   7.535  2.8819 -1.1849 -0.9558
   16MOL   H220 5950   2.495   7.101   7.693  1.1739 -0.8198 -0.0001
   16MOL   H221 5951   2.214   7.033   7.572  0.6154 -1.2069 -0.2805
   16MOL   H222 5952   2.268   7.013   7.743 -2.6557  0.0699  0.3420
   16MOL   H223 5953   2.293   7.263   7.752  0.3979  0.9306 -0.1273
   16MOL   H224 5954   2.241   7.277   7.579 -0.3564  0.9826  1.0158
   16MOL   H225 5955   2.032   7.139   7.647  0.1922 -0.3875  0.2912
   16MOL   H226 5956   2.053   7.184   0.021  1.8214  0.5845  0.8981
   16MOL   H227 5957   1.920   7.355   7.711 -0.5119 -0.0051 -0.0968
   16MOL   H228 5958   2.027   7.371   7.567  0.9887  3.4510 -0.2251
   16MOL   H229 5959   2.055   7.440   7.736  2.4818 -1.2691  0.6058
   16MOL   C230 5960   2.579   7.111   7.442  0.0582  0.0749 -0.0945
   16MOL   C231 5961   2.586   7.215   7.326 -0.0692 -0.3787 -0.5565
   16MOL   C232 5962   2.494   7.334   7.348 -0.6358 -0.3745 -0.7524
   16MOL   C233 5963   2.528   7.409   7.480  0.2274 -0.3971 -0.4324
   16MOL   C234 5964   2.452   7.538   7.494  0.1496  0.6779  0.3094
   16MOL   C235 5965   2.440   7.632   7.369 -0.4673  0.3979 -0.3592
   16MOL   O236 5966   2.551   7.153   7.204  0.3668  0.6169 -0.3728
   16MOL   H237 5967   2.653   7.133   7.519 -1.2358  1.0900  0.8902
   16MOL   H238 5968   2.608   7.010   7.413  0.4637  0.2713 -0.3614
   16MOL   H239 5969   2.690   7.248   7.329  0.3859 -1.7014 -1.5238
   16MOL   H240 5970   2.392   7.295   7.351 -0.5684 -0.5346 -0.5657
   16MOL   H241 5971   2.500   7.395   7.257  2.9778 -2.6615 -2.1405
   16MOL   H242 5972   2.636   7.420   7.476  0.4264 -2.2054 -0.5367
   16MOL   H243 5973   2.500   7.348   7.566  0.3453 -0.0667 -0.1546
   16MOL   H244 5974   2.352   7.522   7.536 -0.9253  2.3827 -1.5570
   16MOL   H245 5975   2.499   7.598   7.572 -1.0901  1.9407  0.0966
   16MOL   H246 5976   2.539   7.647   7.325  0.6370 -2.0745  1.1807
   16MOL   H247 5977   2.391   7.726   7.394 -4.9003 -1.2929 -2.2712
   16MOL   H248 5978   2.367   7.586   7.303  0.3439 -1.3399 -0.0750
   16MOL   C249 5979   2.662   7.075   7.159  0.5251 -0.0797  0.4541
   16MOL   C250 5980   2.612   6.942   7.095  0.2868  0.2386 -0.1565
   16MOL   C251 5981   2.670   6.825   7.168  0.6686 -0.2008  0.0739
   16MOL   C252 5982   2.630   6.694   7.106  0.4196  0.3275  0.0665
   16MOL   C253 5983   2.659   6.573   7.192 -0.1003  0.3128  0.2437
   16MOL   C254 5984   2.651   6.434   7.120  1.1900  0.1640 -0.5291
   16MOL   O255 5985   2.655   6.930   6.957 -0.1079 -0.4301  0.0788
   16MOL   H256 5986   2.718   7.132   7.085  2.3024 -2.4047 -0.0779
   16MOL   H257 5987   2.741   7.059   7.232  0.9207  1.9117  0.4754
   16MOL   H258 5988   2.505   6.929   7.113  0.7605 -1.8727  1.1864
   16MOL   H259 5989   2.777   6.843   7.176  0.2553  1.6093  1.8837
   16MOL   H260 5990   2.628   6.819   7.268 -0.7466 -2.5939 -0.6292
   16MOL   H261 5991   2.524   6.689   7.080  0.2143  1.7066  0.5885
   16MOL   H262 5992   2.677   6.675   7.009  2.8701  1.2320  1.0434
   16MOL   H263 5993   2.751   6.583   7.248  1.0825 -2.7756 -1.0429
   16MOL   H264 5994   2.584   6.584   7.270  0.0620 -0.2059  0.4714
   16MOL   H265 5995   2.715   6.414   7.034 -1.3709 -0.9964 -2.2342
   16MOL   H266 5996   2.550   6.421   7.079  1.6377 -0.1122 -1.5866
   16MOL   H267 5997   2.660   6.355   7.195 -3.2931  1.1120  1.1765
   16MOL   C268 5998   2.577   6.983   6.852  0.0457 -0.2964  0.2205
   16MOL   C269 5999   2.652   6.957   6.716 -0.3392 -0.2937 -0.5218
   16MOL   C270 6000   2.657   6.814   6.665  0.2234  0.5956  0.2859
   16MOL   C271 6001   2.700   6.790   6.527 -0.7783 -0.4644 -0.2008
   16MOL   C272 6002   2.685   6.640   6.479 -0.0168 -0.6719  0.1469
   16MOL   C273 6003   2.768   6.605   6.355 -0.3430 -0.6782 -0.3131
   16MOL   O274 6004   2.787   7.005   6.705 -0.3151 -0.4315  0.3344
   16MOL   H275 6005   2.562   7.090   6.865 -0.8665 -0.5685  1.5530
   16MOL   H276 6006   2.481   6.932   6.862  0.2601 -0.7269  0.1090
   16MOL   H277 6007   2.588   7.021   6.655 -1.1038 -1.2268 -0.7124
   16MOL   H278 6008   2.710   6.748   6.733 -1.0281 -0.3640  0.3412
   16MOL   H279 6009   2.556   6.777   6.685  0.4758 -1.0573 -1.4349
   16MOL   H280 6010   2.631   6.840   6.458 -1.7593  1.4791  2.1411
   16MOL   H281 6011   2.804   6.817   6.509 -0.6236 -0.8842  0.0356
   16MOL   H282 6012   2.727   6.589   6.565  0.7547  1.0900  0.8466
   16MOL   H283 6013   2.580   6.614   6.470 -0.8915  2.1421  1.4940
   16MOL   H284 6014   2.765   6.498   6.334 -1.5868 -0.6849 -0.1704
   16MOL   H285 6015   2.744   6.656   6.261  2.2875  0.1050 -0.5859
   16MOL   H286 6016   2.875   6.616   6.371 -0.0127 -2.5471 -1.1110
   16MOL   C287 6017   2.803   7.140   6.705  0.1458 -0.6399 -0.1831
   16MOL   C288 6018   2.941   7.176   6.768 -0.3867  0.2023  0.0725
   16MOL   C289 6019   2.955   7.140   6.912 -0.1940  0.1790 -0.4086
   16MOL   C290 6020   3.104   7.132   6.961  0.3187  0.7465 -0.1995
   16MOL   C291 6021   3.117   7.085   7.108 -0.5091  0.3004  0.5972
   16MOL   C292 6022   3.260   7.067   7.159 -0.1759  0.2214  0.2492
   16MOL   O293 6023   2.951   7.318   6.759  0.0701  0.2863  0.0066
   16MOL   H294 6024   2.728   7.194   6.763  0.1127 -0.4386 -0.4154
   16MOL   H295 6025   2.796   7.165   6.599 -1.0434  2.0946  0.5000
   16MOL   H296 6026   3.011   7.126   6.701  0.9910 -1.0162  2.3508
   16MOL   H297 6027   2.892   7.211   6.966 -2.5188 -0.8176 -1.7396
   16MOL   H298 6028   2.907   7.044   6.932 -0.9736  0.9476  1.5227
   16MOL   H299 6029   3.146   7.051   6.901  1.4720 -0.4098  2.0880
   16MOL   H300 6030   3.159   7.225   6.945  0.5503  1.0393  2.1818
   16MOL   H301 6031   3.074   6.985   7.123 -0.6765  0.4758  1.2595
   16MOL   H302 6032   3.051   7.142   7.173 -0.5231 -0.3689  1.1832
   16MOL   H303 6033   3.314   6.988   7.106 -0.0372  0.6837 -0.2969
   16MOL   H304 6034   3.309   7.163   7.147 -2.0815  1.0803 -0.8375
   16MOL   H305 6035   3.259   7.034   7.263 -0.6206  0.0393  0.1879
   16MOL   C306 6036   3.064   7.359   6.694 -0.8026  0.1049  0.3157
   16MOL   C307 6037   3.066   7.512   6.679 -0.5301  0.1936  0.1008
   16MOL   C308 6038   3.157   7.553   6.563 -0.6291 -0.5625 -0.0399
   16MOL   C309 6039   3.129   7.698   6.527  0.4623 -0.0452 -0.4478
   16MOL   C310 6040   3.240   7.766   6.449 -0.0404 -0.6675 -0.8701
   16MOL   C311 6041   3.289   0.101   6.521 -0.3355 -1.0690 -0.5803
   16MOL   O312 6042   3.134   7.559   6.796 -0.9677 -0.0523 -0.0980
   16MOL   H313 6043   3.155   7.332   6.748 -1.6822  0.0303  1.7693
   16MOL   H314 6044   3.065   7.317   6.593 -0.1622 -2.4226  1.3369
   16MOL   H315 6045   2.966   7.553   6.675 -0.4642  0.4601  1.0877
   16MOL   H316 6046   3.128   7.496   6.475 -0.5321  1.3032 -1.3128
   16MOL   H317 6047   3.260   7.533   6.592 -0.8937  1.8167  2.7896
   16MOL   H318 6048   3.035   7.702   6.472  0.1495 -0.6373  0.0463
   16MOL   H319 6049   3.116   7.758   6.618  1.5174  3.3444 -2.4381
   16MOL   H320 6050   3.197   0.025   6.359  1.0194  2.8832  0.2985
   16MOL   H321 6051   3.327   7.702   6.430 -0.1612 -0.7099 -1.2882
   16MOL   H322 6052   3.360   0.144   6.450  1.7498 -0.5866  1.7213
   16MOL   H323 6053   3.223   0.186   6.538  0.4371 -0.8813  1.5980
   16MOL   H324 6054   3.346   0.075   6.610 -0.4205  3.0684  0.7934
   16MOL   C325 6055   3.053   7.594   6.900  0.0561 -0.5571 -0.8384
   16MOL   C326 6056   3.134   7.625   7.033  0.3362  0.1343 -0.3450
   16MOL   C327 6057   3.041   7.627   7.151  0.3429 -0.5017  0.4981
   16MOL   C328 6058   3.016   7.495   7.224 -1.2150  0.1210 -0.0897
   16MOL   C329 6059   2.888   7.492   7.309 -1.3140 -0.0324  0.4528
   16MOL   C330 6060   2.882   7.605   7.404  0.0014 -0.4887 -0.4032
   16MOL   O331 6061   3.195   7.754   7.012 -0.5565  0.8287  0.0232
   16MOL   H332 6062   2.979   7.518   6.926 -0.5972  0.4970  0.4693
   16MOL   H333 6063   2.993   7.682   6.879  1.3811  0.5189 -0.2412
   16MOL   H334 6064   3.213   7.552   7.048 -0.4142 -0.3112  1.5497
   16MOL   H335 6065   3.083   7.693   7.227  0.7185  0.3566 -0.4324
   16MOL   H336 6066   2.945   7.670   7.120 -0.0343 -1.7290 -0.0496
   16MOL   H337 6067   3.012   7.409   7.157 -1.0703 -0.6614  0.9076
   16MOL   H338 6068   3.108   7.469   7.276 -1.1399  0.4438 -0.0599
   16MOL   H339 6069   2.801   7.491   7.243 -0.6930 -1.6038 -0.3858
   16MOL   H340 6070   2.889   7.399   7.365  0.9333  0.5744  1.4603
   16MOL   H341 6071   2.802   7.576   7.473 -0.5204  0.3511 -0.6438
   16MOL   H342 6072   2.972   7.614   7.465 -1.8600  1.6045  2.1943
   16MOL   H343 6073   2.859   7.701   7.359 -1.2547 -1.8299 -2.6847
   16MOL   C344 6074   3.322   7.742   6.943 -0.0254  0.0971 -0.5937
   16MOL   C345 6075   3.390   0.095   6.937 -0.0779 -0.6628  0.1130
   16MOL   C346 6076   3.526   0.094   6.863 -0.2631 -0.4795 -0.3435
   16MOL   C347 6077   3.594   0.236   6.849 -0.0605 -0.2001 -0.0728
   16MOL   C348 6078   3.700   0.250   6.744 -0.0940  0.2651 -0.0181
   16MOL   C349 6079   3.651   0.285   6.606  0.5411  0.7229  0.0788
   16MOL   O350 6080   3.308   0.196   6.885  0.4552  0.1496 -0.1093
   16MOL   H351 6081   3.305   7.707   6.841 -0.1334  1.4680 -1.0585
   16MOL   H352 6082   3.387   7.668   6.990 -1.8265 -1.2852 -0.2325
   16MOL   H353 6083   3.416   0.136   7.035  1.7564  4.0418 -2.1586
   16MOL   H354 6084   3.517   0.054   6.762 -1.2811 -0.2874 -0.3314
   16MOL   H355 6085   3.598   0.026   6.909 -1.1043 -2.7134 -2.2060
   16MOL   H356 6086   3.631   0.270   6.945 -0.9298 -1.4109  0.7067
   16MOL   H357 6087   3.512   0.305   6.828  0.7781  0.9813  0.5452
   16MOL   H358 6088   3.745   0.150   6.739 -1.6689 -0.5768  2.1151
   16MOL   H359 6089   3.776   0.325   6.768  0.1881  0.4509 -1.4528
   16MOL   H360 6090   3.569   0.220   6.575  1.1559 -0.1971  0.3457
   16MOL   H361 6091   3.730   0.263   6.533 -0.1042  2.2045 -1.0960
   16MOL   H362 6092   3.623   0.390   6.602 -0.7685  0.4277  1.2329
   16MOL   C363 6093   3.223   0.258   6.984  0.8874  0.3989 -0.2042
   16MOL   C364 6094   3.100   0.319   6.907  0.5180  0.1450  0.2342
   16MOL   C365 6095   3.134   0.402   6.781  0.2014 -0.2205  0.6467
   16MOL   C366 6096   3.028   0.500   6.735  0.5905  0.0230  0.0920
   16MOL   C367 6097   3.073   0.582   6.609  0.3117 -0.0988  0.0468
   16MOL   C368 6098   2.977   0.696   6.567  0.3266 -0.3477  0.2288
   16MOL   O369 6099   3.013   0.208   6.882  0.6178 -0.6657  0.4578
   16MOL   H370 6100   3.275   0.339   7.037  0.0050  1.2848 -0.6780
   16MOL   H371 6101   3.198   0.178   7.054  0.9658  0.4770 -0.0856
   16MOL   H372 6102   3.047   0.391   6.970 -0.2842  1.4140 -1.8259
   16MOL   H373 6103   3.227   0.455   6.802 -0.9901  2.3022 -0.2872
   16MOL   H374 6104   3.166   0.329   6.707 -2.2590 -1.3806  0.6761
   16MOL   H375 6105   2.933   0.450   6.718  0.8152 -0.4127  0.1034
   16MOL   H376 6106   3.016   0.575   6.813  0.9464 -1.7703  1.9132
   16MOL   H377 6107   3.167   0.624   6.643  0.3002  0.7220 -0.9093
   16MOL   H378 6108   3.088   0.511   6.528  1.3363 -0.6630  0.7241
   16MOL   H379 6109   2.892   0.665   6.507  0.6180 -1.3053  0.3002
   16MOL   H380 6110   2.931   0.752   6.649 -0.4352  0.9917 -1.1064
   16MOL   H381 6111   3.022   0.769   6.501  0.5685 -1.2839 -0.6529
   16MOL   H382 6112   3.070   0.143   6.842  0.3553 -0.1740 -0.7380
   17MOL     C1 6113   0.331   1.464   4.554  0.5507 -0.2163  0.1160
   17MOL     C2 6114   0.197   1.417   4.616 -0.2954  0.1695 -0.0443
   17MOL     C3 6115   0.147   1.274   4.568  0.2220 -0.0858 -0.8534
   17MOL     C4 6116   0.103   1.289   4.424 -0.5411 -0.2606  0.4502
   17MOL     C5 6117   0.058   1.151   4.359 -0.8639  0.1151 -0.0436
   17MOL     C6 6118   0.025   1.166   4.207  0.3440  0.1366  0.3110
   17MOL     O7 6119   0.225   1.397   4.751 -0.8182  0.2379 -0.3916
   17MOL     H8 6120   0.340   1.454   4.446  0.1583 -1.3030  0.1835
   17MOL     H9 6121   0.411   1.414   4.608 -0.8780 -2.9423 -0.1930
   17MOL    H10 6122   0.120   1.493   4.605  0.6044  0.8813 -1.5753
   17MOL    H11 6123   0.218   1.193   4.575 -0.9742 -1.0093  0.9232
   17MOL    H12 6124   0.069   1.243   4.638  0.9252  0.1237  0.0341
   17MOL    H13 6125   0.019   1.359   4.426 -0.4658 -0.1061 -1.3901
   17MOL    H14 6126   0.188   1.325   4.366  1.4033  0.0492  3.3366
   17MOL    H15 6127   0.136   1.075   4.370 -1.7465 -0.6974  0.6954
   17MOL    H16 6128   7.759   1.119   4.418 -0.8516  3.2393  1.8137
   17MOL    H17 6129   7.729   1.236   4.190  1.2090  0.4602 -2.8471
   17MOL    H18 6130   0.110   1.210   4.155  0.5491 -0.0078  0.5205
   17MOL    H19 6131   0.002   1.070   4.160  0.0573  1.1242 -1.6101
   17MOL    H20 6132   0.330   1.572   4.572  0.3598  0.6926 -4.7557
   17MOL    C21 6133   0.175   1.497   4.835 -0.5925 -0.3962 -0.7459
   17MOL    C22 6134   0.190   1.461   4.985  0.0855  0.5227 -0.6666
   17MOL    C23 6135   0.098   1.345   5.029  0.0980 -0.6292 -0.0187
   17MOL    C24 6136   0.142   1.199   4.981  0.1016  0.1559 -0.3030
   17MOL    C25 6137   0.067   1.089   5.053  0.6061 -0.2399 -0.2156
   17MOL    C26 6138   7.704   1.121   5.044 -0.2908  0.3378  0.5809
   17MOL    O27 6139   0.316   1.447   5.041  0.0664  0.2590  0.6545
   17MOL    H28 6140   0.234   1.580   4.797 -0.9280 -0.3080 -1.0714
   17MOL    H29 6141   0.069   1.517   4.824 -0.9076 -0.0779  2.4745
   17MOL    H30 6142   0.129   1.544   5.020 -1.8581 -1.3995  0.6963
   17MOL    H31 6143   7.781   1.384   5.033  0.7024  0.8748  2.2433
   17MOL    H32 6144   0.117   1.339   5.136 -0.3048 -1.3564  0.0141
   17MOL    H33 6145   0.249   1.178   4.985  0.0297  0.1068  1.7191
   17MOL    H34 6146   0.129   1.194   4.873  1.2139  0.6171 -0.4611
   17MOL    H35 6147   0.085   0.993   5.004  0.1750 -0.8837  0.8598
   17MOL    H36 6148   0.096   1.074   5.157 -0.0576  1.6418  0.2575
   17MOL    H37 6149   7.676   1.212   5.098 -1.5786 -1.4046  2.9270
   17MOL    H38 6150   7.640   1.043   5.084 -2.0491  2.1305  1.3586
   17MOL    H39 6151   7.676   1.130   4.939 -5.0911  1.4693  1.8714
   17MOL    C40 6152   0.403   1.560   5.019  1.0317 -0.2381 -0.3924
   17MOL    C41 6153   0.521   1.551   5.124  0.4764  0.5729 -0.0678
   17MOL    C42 6154   0.572   1.696   5.158 -0.1150  0.1794  0.1670
   17MOL    C43 6155   0.689   1.688   5.260  0.1199  0.4071  0.4812
   17MOL    C44 6156   0.754   1.825   5.295 -0.8030 -0.3354 -0.8874
   17MOL    C45 6157   0.798   1.887   5.164  0.7686  0.6058  0.8758
   17MOL    O46 6158   0.631   1.490   5.062  0.5402 -0.3687 -0.7467
   17MOL    H47 6159   0.345   1.652   5.034 -0.1243 -1.1381  0.7678
   17MOL    H48 6160   0.437   1.547   4.917  2.4134 -1.8717  0.2709
   17MOL    H49 6161   0.487   1.503   5.216 -1.9826  0.0891 -1.1782
   17MOL    H50 6162   0.592   1.736   5.059 -2.3363  1.0975  0.0461
   17MOL    H51 6163   0.488   1.753   5.198 -0.1638  0.0029  0.3190
   17MOL    H52 6164   0.762   1.621   5.214  0.0121  0.1893  0.6268
   17MOL    H53 6165   0.649   1.648   5.353 -1.2337 -0.5452 -0.4929
   17MOL    H54 6166   0.686   1.891   5.348  1.2716  0.1305  1.2957
   17MOL    H55 6167   0.845   1.818   5.355 -1.2163  0.2581 -0.1937
   17MOL    H56 6168   0.866   1.970   5.183  0.5649  0.6993  1.1993
   17MOL    H57 6169   0.847   1.808   5.108  0.1635  0.5873  0.3691
   17MOL    H58 6170   0.716   1.930   5.107  0.2325  1.0194  1.9385
   17MOL    C59 6171   0.612   1.346   5.061  0.1688 -0.2090 -0.2659
   17MOL    C60 6172   0.750   1.272   5.020 -0.5830 -0.1020 -0.2244
   17MOL    C61 6173   0.742   1.120   5.018  0.3040 -0.3666  0.4824
   17MOL    C62 6174   0.630   1.065   4.924  0.3751  0.4242 -0.2351
   17MOL    C63 6175   0.661   0.920   4.888  0.3742  0.4237  0.2934
   17MOL    C64 6176   0.783   0.900   4.790  1.0336 -0.3945 -0.4550
   17MOL    O65 6177   0.788   1.290   4.889  0.2279  0.1738 -0.1501
   17MOL    H66 6178   0.528   1.316   4.998  1.1536 -4.2748  0.2214
   17MOL    H67 6179   0.588   1.312   5.161 -0.3995 -0.7104 -0.5669
   17MOL    H68 6180   0.828   1.295   5.093 -1.2638 -2.2731  1.2500
   17MOL    H69 6181   0.722   1.066   5.111 -1.1718 -0.6199  0.0230
   17MOL    H70 6182   0.841   1.087   4.986  0.2412 -1.3780  1.3111
   17MOL    H71 6183   0.617   1.130   4.838  2.1883  1.4263  0.2192
   17MOL    H72 6184   0.541   1.068   4.986  0.4128  2.7180 -0.2515
   17MOL    H73 6185   0.568   0.878   4.848  0.6136  1.3747 -1.2914
   17MOL    H74 6186   0.674   0.867   4.982  0.8571  1.4968  0.8429
   17MOL    H75 6187   0.768   0.973   4.711 -1.3321  0.1394  0.4359
   17MOL    H76 6188   0.885   0.926   4.817  1.8198 -3.3891 -0.3489
   17MOL    H77 6189   0.784   0.800   4.748  2.3404 -0.2738 -0.7155
   17MOL    C78 6190   0.833   1.418   4.853  0.6389 -0.4326 -0.0835
   17MOL    C79 6191   0.891   1.443   4.713  0.3693  0.4435  0.7816
   17MOL    C80 6192   0.799   1.397   4.595 -0.4232 -0.2438 -0.4144
   17MOL    C81 6193   0.685   1.491   4.564  0.0248  0.4651 -0.0391
   17MOL    C82 6194   0.731   1.609   4.470  0.3180  0.7348 -0.3622
   17MOL    C83 6195   0.620   1.706   4.443  0.1358 -0.4953  0.7369
   17MOL    O84 6196   1.019   1.391   4.693 -0.6014 -0.1283  0.3015
   17MOL    H85 6197   0.908   1.445   4.927  1.8073 -2.0243 -0.6654
   17MOL    H86 6198   0.753   1.491   4.866  0.6716 -0.6019  1.0815
   17MOL    H87 6199   0.903   1.551   4.704  0.8628  0.2938 -0.5849
   17MOL    H88 6200   0.860   1.371   4.508 -1.0645  0.2385 -1.0072
   17MOL    H89 6201   0.748   1.307   4.629 -1.1717  0.1295 -0.5365
   17MOL    H90 6202   0.651   1.533   4.658 -2.3575  0.9925 -1.0859
   17MOL    H91 6203   0.611   1.428   4.514  1.0829 -0.3440 -0.6235
   17MOL    H92 6204   0.813   1.664   4.516  2.6832 -2.5459 -0.4456
   17MOL    H93 6205   0.777   1.564   4.382  0.8342  0.8475 -0.1560
   17MOL    H94 6206   0.650   1.788   4.377  1.5481 -2.1405 -0.6966
   17MOL    H95 6207   0.590   1.752   4.537 -1.8624  0.8896 -0.5367
   17MOL    H96 6208   0.537   1.654   4.396 -0.6594  1.5475 -0.2007
   17MOL    C97 6209   1.027   1.255   4.721  0.3630 -0.6798 -0.3458
   17MOL    C98 6210   1.165   1.204   4.668 -0.2604 -0.1809  0.6089
   17MOL    C99 6211   1.200   1.071   4.720 -0.6051  0.4670 -0.0762
   17MOL   C100 6212   1.327   0.999   4.659  0.1781 -0.1929 -0.2036
   17MOL   C101 6213   1.339   0.856   4.716  0.0470 -0.0670  0.6968
   17MOL   C102 6214   1.363   0.841   4.870 -0.1695  0.2105 -0.1928
   17MOL   O103 6215   1.136   1.175   4.525  0.4246  0.1267 -0.0455
   17MOL   H104 6216   0.946   1.196   4.679  0.7002 -2.8592  1.9704
   17MOL   H105 6217   1.017   1.237   4.828 -2.0220  1.3512 -0.1632
   17MOL   H106 6218   1.247   1.275   4.677 -0.5606  0.3521 -0.7114
   17MOL   H107 6219   1.107   1.019   4.696  1.3830 -2.0409 -2.6400
   17MOL   H108 6220   1.211   1.069   4.829 -2.8538  0.9502  0.1724
   17MOL   H109 6221   1.420   1.051   4.684 -0.0430  0.4806 -0.7903
   17MOL   H110 6222   1.325   0.992   4.551 -1.1035 -1.4606 -0.1095
   17MOL   H111 6223   1.419   0.801   4.665  0.5837  0.2979  1.1356
   17MOL   H112 6224   1.253   0.801   4.679  2.7555 -3.1076 -1.4431
   17MOL   H113 6225   1.292   0.897   4.931 -0.5213 -1.2177  0.7259
   17MOL   H114 6226   1.355   0.738   4.904 -2.1028  0.4926  0.2408
   17MOL   H115 6227   1.465   0.866   4.900 -0.5542  0.5289  0.8716
   17MOL   C116 6228   1.184   1.279   4.438  0.0466 -0.2101 -0.3205
   17MOL   C117 6229   1.177   1.242   4.288 -0.5381 -0.3749  0.0060
   17MOL   C118 6230   1.298   1.306   4.223  0.0450 -0.4871 -0.3814
   17MOL   C119 6231   1.320   1.271   4.076  0.2098  0.1147 -0.0224
   17MOL   C120 6232   1.364   1.126   4.043 -0.0045  0.1229 -0.0454
   17MOL   C121 6233   1.366   1.095   3.891 -0.6846  0.6022 -0.2798
   17MOL   O122 6234   1.055   1.278   4.229 -0.1068 -0.1658 -0.2915
   17MOL   H123 6235   1.146   1.380   4.455  1.5526  0.5359 -1.1997
   17MOL   H124 6236   1.288   1.292   4.469  0.2260 -2.5887  0.1409
   17MOL   H125 6237   1.205   1.137   4.284  1.9911  0.3453 -2.4914
   17MOL   H126 6238   1.313   1.413   4.239 -1.2355  0.1368 -3.0265
   17MOL   H127 6239   1.386   1.274   4.279  1.0416  2.5888 -0.0669
   17MOL   H128 6240   1.397   1.335   4.033 -0.2941 -0.0549 -1.1907
   17MOL   H129 6241   1.228   1.276   4.018  1.1706  2.3756 -1.4132
   17MOL   H130 6242   1.464   1.122   4.086 -0.3920  0.3739  0.8851
   17MOL   H131 6243   1.306   1.050   4.095 -1.2919  1.7646  0.9797
   17MOL   H132 6244   1.421   1.165   3.829 -0.7583 -1.0714 -2.3204
   17MOL   H133 6245   1.378   0.989   3.867  0.1729  1.1731 -2.4505
   17MOL   H134 6246   1.258   1.099   3.873 -0.9773  1.6411  1.5553
   17MOL   C135 6247   0.948   1.192   4.256 -0.8079  0.0453 -1.0332
   17MOL   C136 6248   0.809   1.259   4.229 -0.6087  0.5019  0.4407
   17MOL   C137 6249   0.698   1.166   4.273 -0.4839 -0.0199  1.4057
   17MOL   C138 6250   0.553   1.207   4.242 -0.7240  0.1984 -0.7048
   17MOL   C139 6251   0.444   1.092   4.270 -0.5846  0.2261 -0.3854
   17MOL   C140 6252   0.432   1.050   4.423 -0.2929  0.4932  0.3743
   17MOL   O141 6253   0.784   1.264   4.090  0.3194 -0.1807  0.9207
   17MOL   H142 6254   0.957   1.094   4.209 -0.7945 -0.9910  1.0711
   17MOL   H143 6255   0.952   1.166   4.362  0.7011 -0.1029 -1.1283
   17MOL   H144 6256   0.793   1.353   4.282  1.9006 -0.1691  2.4988
   17MOL   H145 6257   0.711   1.074   4.217 -1.1866  0.8931 -0.3166
   17MOL   H146 6258   0.715   1.156   4.380  0.9466 -2.2800  0.9898
   17MOL   H147 6259   0.545   1.233   4.137  3.9396  2.2516 -0.6827
   17MOL   H148 6260   0.530   1.299   4.296 -1.5344 -0.3590 -0.0831
   17MOL   H149 6261   0.462   1.006   4.205 -0.2444 -1.6421  2.1057
   17MOL   H150 6262   0.352   1.145   4.245 -2.2352 -2.3067  0.0488
   17MOL   H151 6263   0.530   1.018   4.457  0.3690  3.0691  0.9893
   17MOL   H152 6264   0.399   1.143   4.471  0.5963  1.3169 -0.5862
   17MOL   H153 6265   0.361   0.970   4.444  1.4633 -0.8764  1.1990
   17MOL   C154 6266   0.854   1.368   4.026  0.0026 -0.1210  0.4181
   17MOL   C155 6267   0.833   1.364   3.874  0.3674  0.6571  0.1786
   17MOL   C156 6268   0.864   1.502   3.806  0.4819 -0.3329 -0.5055
   17MOL   C157 6269   0.824   1.517   3.653 -0.0937  0.6257 -0.3417
   17MOL   C158 6270   0.804   1.664   3.614  0.3637 -0.2545  0.5169
   17MOL   C159 6271   0.725   1.658   3.480  0.2805 -0.0793 -0.0485
   17MOL   O160 6272   0.905   1.264   3.802  0.4437 -0.2569 -0.0316
   17MOL   H161 6273   0.960   1.357   4.053 -0.5050  0.1423  2.5701
   17MOL   H162 6274   0.817   1.459   4.072 -1.5405 -0.4065 -0.2331
   17MOL   H163 6275   0.726   1.355   3.854  0.3211 -2.8215  1.6125
   17MOL   H164 6276   0.966   1.527   3.834  0.5658 -1.2958  0.0890
   17MOL   H165 6277   0.810   1.572   3.870 -1.7960 -1.5040 -1.0755
   17MOL   H166 6278   0.730   1.466   3.633 -0.2169  0.0531  1.6950
   17MOL   H167 6279   0.901   1.471   3.591  1.3310  1.3119  0.8796
   17MOL   H168 6280   0.755   1.723   3.691 -2.3913 -2.5094  0.5649
   17MOL   H169 6281   0.899   1.714   3.594  0.1729  0.1825  0.7039
   17MOL   H170 6282   0.711   1.756   3.435 -0.4841 -0.7161 -1.2337
   17MOL   H171 6283   0.627   1.611   3.492  0.8987 -1.7067 -1.1022
   17MOL   H172 6284   0.770   1.597   3.402 -0.7693 -1.5566  0.4699
   17MOL   C173 6285   0.849   1.133   3.808 -0.1418 -0.6016 -0.0449
   17MOL   C174 6286   0.890   1.039   3.698  0.8419 -0.5373 -0.2487
   17MOL   C175 6287   0.922   0.895   3.741  0.2046 -0.3512 -0.0313
   17MOL   C176 6288   1.065   0.893   3.813  0.1677  0.4047 -0.0988
   17MOL   C177 6289   1.100   0.757   3.884 -0.3108  0.0366  0.2676
   17MOL   C178 6290   1.212   0.779   3.982 -0.9013 -1.4577  0.3553
   17MOL   O179 6291   0.791   1.036   3.597  0.4077  0.1704 -0.4933
   17MOL   H180 6292   0.740   1.131   3.808 -0.1581 -0.0107  0.2435
   17MOL   H181 6293   0.871   1.083   3.903  0.1914 -1.1354 -0.4007
   17MOL   H182 6294   0.982   1.060   3.644  0.7059 -1.4983 -0.8799
   17MOL   H183 6295   0.844   0.860   3.808 -0.3778  1.4830  0.2626
   17MOL   H184 6296   0.929   0.821   3.661  0.1452 -0.3228 -0.0623
   17MOL   H185 6297   1.140   0.907   3.736 -0.5528 -1.0970 -1.1030
   17MOL   H186 6298   1.071   0.965   3.894 -0.2292 -1.5721  1.7487
   17MOL   H187 6299   1.010   0.717   3.929 -0.6093 -0.0634 -0.4037
   17MOL   H188 6300   1.128   0.680   3.812 -1.1000  0.0021 -0.0114
   17MOL   H189 6301   1.231   0.698   4.052 -1.2786 -1.4923  0.4211
   17MOL   H190 6302   1.201   0.869   4.043  3.0485 -1.0547  0.6147
   17MOL   H191 6303   1.305   0.790   3.926 -1.1896 -0.7724  0.0055
   17MOL   C192 6304   0.825   1.108   3.476 -0.0404 -0.4825 -0.4599
   17MOL   C193 6305   0.705   1.148   3.392 -0.6489 -0.0657 -1.1796
   17MOL   C194 6306   0.755   1.193   3.253 -0.2040  0.5099 -0.2605
   17MOL   C195 6307   0.631   1.202   3.157  0.7658 -0.1636  0.0084
   17MOL   C196 6308   0.671   1.280   3.033  0.2573  0.8516 -0.8490
   17MOL   C197 6309   0.570   1.300   2.916 -0.5644  0.0399  0.4011
   17MOL   O198 6310   0.622   1.257   3.443 -0.3554  0.2532 -0.2574
   17MOL   H199 6311   0.886   1.196   3.493 -0.7073  0.2115 -1.5528
   17MOL   H200 6312   0.899   1.047   3.425  0.1444  0.2321 -1.0584
   17MOL   H201 6313   0.634   1.066   3.383 -0.9795 -0.0054  0.6425
   17MOL   H202 6314   0.797   1.293   3.266 -0.6981  0.8748 -1.3618
   17MOL   H203 6315   0.822   1.118   3.212  1.6897  1.4420  1.0251
   17MOL   H204 6316   0.547   1.256   3.201  2.2028  1.7795  0.4342
   17MOL   H205 6317   0.587   1.104   3.138  0.5434  0.0749 -0.7185
   17MOL   H206 6318   0.687   1.381   3.069  0.6511  0.8894 -1.1303
   17MOL   H207 6319   0.770   1.254   2.996  1.1363  0.9235  1.4249
   17MOL   H208 6320   0.613   1.373   2.847 -2.3455  2.9193  2.2408
   17MOL   H209 6321   0.555   1.207   2.862 -1.2414  0.4534 -0.1369
   17MOL   H210 6322   0.472   1.334   2.950 -0.0171  0.4948  1.5283
   17MOL   C211 6323   0.552   1.222   3.561  0.6801 -0.4752  1.1086
   17MOL   C212 6324   0.456   1.331   3.608  0.2206 -0.0523 -0.2338
   17MOL   C213 6325   0.402   1.303   3.743  0.2456  0.0534 -0.2165
   17MOL   C214 6326   0.301   1.402   3.802 -0.5175 -0.5359 -0.1819
   17MOL   C215 6327   0.287   1.379   3.949 -0.9122  0.5475 -0.1051
   17MOL   C216 6328   0.181   1.452   4.034  0.4877 -0.1860  0.6706
   17MOL   O217 6329   0.330   1.329   3.538 -0.5158  0.4978  0.4924
   17MOL   H218 6330   0.629   1.219   3.639  0.1019 -0.5754  1.6746
   17MOL   H219 6331   0.513   1.120   3.558 -0.9008  0.1192  0.9981
   17MOL   H220 6332   0.502   1.428   3.589 -0.6950  0.7812  1.6260
   17MOL   H221 6333   0.360   1.203   3.748  1.3769 -0.3528  1.6924
   17MOL   H222 6334   0.490   1.293   3.807  0.0788  2.4720  0.4556
   17MOL   H223 6335   0.345   1.501   3.792 -1.5510 -0.2418 -2.1338
   17MOL   H224 6336   0.200   1.408   3.761  0.0465 -0.6562 -1.6521
   17MOL   H225 6337   0.259   1.274   3.961  1.4188 -0.3713 -2.1953
   17MOL   H226 6338   0.385   1.387   3.996 -0.4240 -0.3329 -0.9350
   17MOL   H227 6339   0.081   1.435   3.994  1.1921 -3.3043  0.1116
   17MOL   H228 6340   0.208   1.557   4.038  0.0401 -0.0341 -0.1812
   17MOL   H229 6341   0.177   1.408   4.134 -0.9767 -1.4801  0.0590
   17MOL   C230 6342   0.330   1.402   3.418  0.1819  0.1058  0.0079
   17MOL   C231 6343   0.190   1.376   3.349  0.4192 -0.0609  0.3205
   17MOL   C232 6344   0.175   1.423   3.204 -0.1754 -0.4095 -0.0514
   17MOL   C233 6345   0.183   1.576   3.182  0.4477  0.2020  0.2140
   17MOL   C234 6346   0.184   1.614   3.030 -0.3306 -0.3486  0.4661
   17MOL   C235 6347   0.238   1.755   3.002  0.2158 -0.2990  0.5039
   17MOL   O236 6348   0.093   1.433   3.429 -0.0020 -0.2632 -0.6124
   17MOL   H237 6349   0.334   1.507   3.447 -0.9763 -0.0290  0.6536
   17MOL   H238 6350   0.408   1.365   3.351  1.0318  0.2769  0.8988
   17MOL   H239 6351   0.175   1.269   3.362 -1.9210 -0.0659 -2.1273
   17MOL   H240 6352   0.083   1.379   3.165 -0.6926 -0.5579  1.2770
   17MOL   H241 6353   0.259   1.375   3.155  0.9022  1.1138  0.2818
   17MOL   H242 6354   0.270   1.620   3.231 -0.7466  4.3074 -1.1498
   17MOL   H243 6355   0.098   1.633   3.221  0.2993  0.9034 -1.0996
   17MOL   H244 6356   0.249   1.544   2.978 -0.0518  1.0085 -1.0295
   17MOL   H245 6357   0.081   1.612   2.995  0.6351 -0.7756 -2.4633
   17MOL   H246 6358   0.344   1.742   2.978  0.1710 -0.0197  0.1607
   17MOL   H247 6359   0.212   1.822   3.084  0.0081  0.1744  0.0561
   17MOL   H248 6360   0.185   1.791   2.914  0.2190 -1.7998 -0.1239
   17MOL   C249 6361   7.740   1.403   3.413  0.7728  0.0378 -0.5107
   17MOL   C250 6362   7.672   1.403   3.552  0.0824  0.1303  0.2758
   17MOL   C251 6363   7.726   1.284   3.634  0.1075  0.5921  0.1414
   17MOL   C252 6364   7.668   1.276   3.767  0.5891 -0.6339  0.7209
   17MOL   C253 6365   7.743   1.163   3.841  0.6412 -0.2945  0.1323
   17MOL   C254 6366   7.709   1.027   3.776 -0.1493  0.2510 -0.5132
   17MOL   O255 6367   7.529   1.400   3.528 -0.3171  0.3168  0.0479
   17MOL   H256 6368   7.692   1.489   3.366 -1.3653 -0.1582  1.2119
   17MOL   H257 6369   7.718   1.313   3.356 -2.8525  0.9389 -0.7077
   17MOL   H258 6370   7.706   1.498   3.592 -0.9197  0.3795  0.5506
   17MOL   H259 6371   7.702   1.190   3.584  0.0007  0.9910 -0.5642
   17MOL   H260 6372   0.048   1.293   3.646  0.1094  0.6520  0.0748
   17MOL   H261 6373   7.693   1.369   3.820 -0.0844  0.3069 -0.5987
   17MOL   H262 6374   7.564   1.262   3.741  0.6934  0.1732 -0.1515
   17MOL   H263 6375   0.064   1.182   3.852  0.4119  0.7389  0.6205
   17MOL   H264 6376   7.705   1.159   3.944 -1.3612 -0.0283 -0.5729
   17MOL   H265 6377   7.779   0.993   3.700  0.2668  1.5752 -0.7296
   17MOL   H266 6378   7.614   1.037   3.724 -0.1558  0.1605 -0.5189
   17MOL   H267 6379   7.718   0.954   3.857 -0.8930  0.0045 -0.6482
   17MOL   C268 6380   7.459   1.516   3.564  0.0410 -0.5845  0.2257
   17MOL   C269 6381   7.317   1.474   3.591  0.2278  0.3700 -0.7437
   17MOL   C270 6382   7.238   1.453   3.456  0.0719 -0.4110  0.0969
   17MOL   C271 6383   7.124   1.362   3.482  1.0504 -0.1211  0.2796
   17MOL   C272 6384   7.029   1.355   3.358  0.7607 -0.8960 -0.1172
   17MOL   C273 6385   7.085   1.282   3.231 -0.2843  0.5270  0.0864
   17MOL   O274 6386   7.250   1.581   3.656  0.2099 -0.2940  0.2538
   17MOL   H275 6387   7.472   1.589   3.485 -1.6892  1.4777  1.7843
   17MOL   H276 6388   7.512   1.564   3.647  0.1009  0.7985 -0.5994
   17MOL   H277 6389   7.311   1.378   3.643  0.6288  1.1285  0.7228
   17MOL   H278 6390   7.210   1.550   3.413 -0.6714 -1.6382 -2.3226
   17MOL   H279 6391   7.304   1.410   3.380  0.4209 -0.1597  0.2582
   17MOL   H280 6392   7.167   1.264   3.505  0.1356 -1.6121 -3.9171
   17MOL   H281 6393   7.070   1.404   3.567 -0.7748 -1.3985 -0.2097
   17MOL   H282 6394   6.937   1.305   3.389 -0.2473 -0.2106 -1.8880
   17MOL   H283 6395   6.994   1.457   3.341 -1.0002 -1.2091  1.4393
   17MOL   H284 6396   7.113   1.182   3.264 -0.8017 -0.5020 -2.4759
   17MOL   H285 6397   7.014   1.269   3.149 -0.9878 -0.1109  0.7881
   17MOL   H286 6398   7.168   1.344   3.198 -0.5257  1.1674  0.6600
   17MOL   C287 6399   7.276   1.601   3.793  0.4844  0.6554 -0.9623
   17MOL   C288 6400   7.166   1.693   3.856  0.2838 -0.2727 -0.7320
   17MOL   C289 6401   7.024   1.620   3.853 -0.3461  0.2772  0.6933
   17MOL   C290 6402   6.905   1.688   3.922  0.1735 -0.1467 -0.1325
   17MOL   C291 6403   6.768   1.624   3.896  0.4144  0.6726 -0.5490
   17MOL   C292 6404   6.662   1.683   3.981 -0.0385 -0.6034 -0.4373
   17MOL   O293 6405   7.158   1.825   3.803  0.1072 -0.2502 -0.2571
   17MOL   H294 6406   7.381   1.623   3.815  0.1614 -0.5704  1.9831
   17MOL   H295 6407   7.259   1.511   3.851 -2.0152  1.3199 -0.5813
   17MOL   H296 6408   7.181   1.692   3.964 -0.0337  2.2365 -0.6294
   17MOL   H297 6409   7.005   1.592   3.749  1.2318 -1.2610  0.8033
   17MOL   H298 6410   7.015   1.520   3.896 -0.4635  0.1744  0.4303
   17MOL   H299 6411   6.929   1.701   4.027  1.5095 -0.5896 -0.3739
   17MOL   H300 6412   6.884   1.782   3.870 -0.4639  0.6457  1.5350
   17MOL   H301 6413   6.764   1.519   3.924 -4.3906  0.3830 -1.9068
   17MOL   H302 6414   6.739   1.641   3.792 -0.8030 -1.3572 -0.5642
   17MOL   H303 6415   6.664   1.792   3.980 -1.9407 -0.4656  2.7813
   17MOL   H304 6416   6.557   1.658   3.963 -1.0816  2.8779  0.2466
   17MOL   H305 6417   6.690   1.653   4.082  2.5287  1.0992 -0.6111
   17MOL   C306 6418   7.271   1.912   3.816  0.6052 -0.5834 -0.0378
   17MOL   C307 6419   7.256   2.054   3.737 -0.3584 -0.5032 -0.5597
   17MOL   C308 6420   7.392   2.129   3.740  0.2307 -0.4255  0.3615
   17MOL   C309 6421   7.398   2.258   3.663 -0.3473  0.7863 -0.2940
   17MOL   C310 6422   7.542   2.284   3.606  0.6594 -0.0450 -0.6316
   17MOL   C311 6423   7.642   2.308   3.718 -0.5532  0.2904 -0.1248
   17MOL   O312 6424   7.161   2.141   3.800 -0.6683 -0.2267 -0.2516
   17MOL   H313 6425   7.289   1.918   3.923 -2.2356 -0.1414  0.4707
   17MOL   H314 6426   7.351   1.858   3.766  0.2705  1.9168 -3.4545
   17MOL   H315 6427   7.232   2.038   3.631  0.3758 -3.0479 -0.3814
   17MOL   H316 6428   7.460   2.053   3.702  0.4516  0.4763 -1.0311
   17MOL   H317 6429   7.412   2.155   3.844  0.8518 -2.6209  0.8289
   17MOL   H318 6430   7.328   2.241   3.581 -1.5101 -1.3145  1.0945
   17MOL   H319 6431   7.368   2.340   3.729 -0.2395  0.1562  0.5427
   17MOL   H320 6432   7.554   2.374   3.544  1.4200 -0.4690 -1.1037
   17MOL   H321 6433   7.568   2.192   3.554 -0.6820 -1.3620  0.9688
   17MOL   H322 6434   7.615   2.397   3.775  1.8359  0.7491  0.3326
   17MOL   H323 6435   7.641   2.228   3.792  1.7889  0.6803  0.3671
   17MOL   H324 6436   7.744   2.313   3.682  0.0893 -0.0861  1.5873
   17MOL   C325 6437   7.024   2.120   3.765  0.1829 -0.4532  0.1350
   17MOL   C326 6438   6.947   2.236   3.821  0.3739 -0.4856 -0.0575
   17MOL   C327 6439   6.794   2.222   3.805 -0.1889 -0.0140  0.2490
   17MOL   C328 6440   6.707   2.349   3.814 -0.0015  0.3381 -0.1101
   17MOL   C329 6441   6.552   2.322   3.804 -0.0201  0.4414 -0.1288
   17MOL   C330 6442   6.497   2.232   3.915 -0.4290 -0.2061  0.2067
   17MOL   O331 6443   6.978   2.357   3.755  0.1099  0.3752  0.3013
   17MOL   H332 6444   6.994   2.023   3.803  0.2068 -1.5338 -2.5747
   17MOL   H333 6445   7.020   2.114   3.657 -0.1221 -1.9587  0.2241
   17MOL   H334 6446   6.975   2.227   3.926 -1.0178  1.0292  0.4703
   17MOL   H335 6447   6.770   2.177   3.708  1.1092  2.6104 -1.3511
   17MOL   H336 6448   6.762   2.153   3.884  2.2890 -1.2277  0.2323
   17MOL   H337 6449   6.719   2.387   3.916 -2.6610  0.3179  0.2491
   17MOL   H338 6450   6.737   2.434   3.753 -1.5558  1.2356  0.3483
   17MOL   H339 6451   6.498   2.417   3.805 -0.0858  0.4608 -2.0598
   17MOL   H340 6452   6.529   2.282   3.705  1.1108 -0.7067  0.0599
   17MOL   H341 6453   6.559   2.143   3.929  0.0607  0.3720  1.7718
   17MOL   H342 6454   6.496   2.271   4.017  1.0699  0.8994 -0.1972
   17MOL   H343 6455   6.392   2.214   3.890  0.4040 -2.4224 -1.8692
   17MOL   C344 6456   7.075   2.433   3.822  0.3187  0.5026  0.2485
   17MOL   C345 6457   7.110   2.568   3.753  0.4971 -0.0916 -0.1461
   17MOL   C346 6458   7.208   2.548   3.634  1.2439  0.3780  0.3304
   17MOL   C347 6459   7.227   2.675   3.556  0.4142  0.4285 -0.3344
   17MOL   C348 6460   7.346   2.663   3.460 -0.6062 -0.9933 -0.2531
   17MOL   C349 6461   7.398   2.796   3.402 -0.4800  0.5297 -0.8429
   17MOL   O350 6462   6.991   2.637   3.716  0.3340  0.2229 -0.2660
   17MOL   H351 6463   7.165   2.375   3.841 -0.4520  0.1354  2.9851
   17MOL   H352 6464   7.028   2.453   3.919  0.6402 -0.1086  0.5358
   17MOL   H353 6465   7.154   2.633   3.829  1.4999 -2.0364  0.9891
   17MOL   H354 6466   7.166   2.479   3.560  2.0681 -0.3324  0.5072
   17MOL   H355 6467   7.310   2.521   3.660  1.3142 -1.0469 -1.3076
   17MOL   H356 6468   7.256   2.756   3.623 -1.1361  0.4342  0.3538
   17MOL   H357 6469   7.138   2.711   3.505  1.3727  0.7198 -1.8010
   17MOL   H358 6470   7.328   2.596   3.376  3.2606 -1.2407 -0.9534
   17MOL   H359 6471   7.428   2.621   3.517  1.1697  1.9148 -0.5912
   17MOL   H360 6472   7.319   2.822   3.331  0.9299 -0.5593 -2.8607
   17MOL   H361 6473   7.487   2.789   3.340 -0.0028  1.4058 -0.2585
   17MOL   H362 6474   7.412   2.865   3.484 -0.0732  0.6864 -1.0438
   17MOL   C363 6475   6.901   2.683   3.821  0.0546  0.3674 -0.4815
   17MOL   C364 6476   6.791   2.765   3.757 -0.5701 -0.0714  0.9008
   17MOL   C365 6477   6.688   2.841   3.857  0.0156 -0.2322  0.2958
   17MOL   C366 6478   6.592   2.734   3.918  0.7005  0.1365  0.3844
   17MOL   C367 6479   6.492   2.791   4.024 -0.1944  0.0853  0.3713
   17MOL   C368 6480   6.417   2.682   4.095 -0.1098  0.3674 -0.1950
   17MOL   O369 6481   6.846   2.859   3.669 -0.0002 -1.0875 -0.2633
   17MOL   H370 6482   6.957   2.748   3.888  0.6886  1.0095 -1.6111
   17MOL   H371 6483   6.866   2.603   3.885  2.3725 -0.6667 -0.4614
   17MOL   H372 6484   6.747   2.702   3.680  2.3534 -0.4023 -0.5628
   17MOL   H373 6485   6.745   2.898   3.931  0.3224  0.2507 -0.3044
   17MOL   H374 6486   6.630   2.912   3.797  1.2509 -0.7791 -1.5679
   17MOL   H375 6487   6.552   2.666   3.843 -0.3759  0.3069  0.7946
   17MOL   H376 6488   6.652   2.669   3.982  2.6281  2.3830  0.9381
   17MOL   H377 6489   6.553   2.849   4.094  0.4887 -0.2132  0.0273
   17MOL   H378 6490   6.427   2.852   3.960  0.8151  0.3187 -0.4554
   17MOL   H379 6491   6.472   2.640   4.179 -1.1183  0.2218  0.4034
   17MOL   H380 6492   6.315   2.712   4.119 -0.2138  2.3044 -2.7985
   17MOL   H381 6493   6.409   2.589   4.037  2.6755  1.1118 -1.8506
   17MOL   H382 6494   6.872   2.817   3.588  0.1539 -0.5804 -0.4779
   18MOL     C1 6495   6.559   2.016   2.176 -0.4398 -0.0701 -0.3780
   18MOL     C2 6496   6.417   1.950   2.216 -0.2217 -0.1567  0.0022
   18MOL     C3 6497   6.308   1.989   2.118  0.4922  0.7225 -0.2093
   18MOL     C4 6498   6.161   1.956   2.164 -0.1493  0.1371  0.8832
   18MOL     C5 6499   6.056   1.997   2.063 -0.1255 -0.7244 -0.7502
   18MOL     C6 6500   5.922   1.941   2.110  1.0894  0.9470  0.0393
   18MOL     O7 6501   6.431   1.810   2.198  0.0496  0.8551 -0.3367
   18MOL     H8 6502   6.537   2.121   2.160  0.8172  0.2189 -0.2504
   18MOL     H9 6503   6.596   1.980   2.080  0.3449 -1.4752  0.4226
   18MOL    H10 6504   6.382   1.973   2.317  0.9006  1.8337 -0.0390
   18MOL    H11 6505   6.309   2.097   2.106  5.0311  0.6995 -0.5646
   18MOL    H12 6506   6.320   1.945   2.019 -3.2143 -2.1078  0.4451
   18MOL    H13 6507   6.154   1.853   2.200  0.8697 -0.5103 -0.7003
   18MOL    H14 6508   6.140   2.016   2.252 -1.0784  0.1535  0.6562
   18MOL    H15 6509   6.054   2.105   2.048 -1.9722 -0.1367  3.2430
   18MOL    H16 6510   6.085   1.962   1.964 -0.9302  1.7951 -1.9278
   18MOL    H17 6511   5.921   1.837   2.143  0.4598  2.3229  4.5915
   18MOL    H18 6512   5.863   1.993   2.185 -0.0759 -0.7983  0.3584
   18MOL    H19 6513   5.859   1.946   2.021 -2.2329 -0.9344  2.2011
   18MOL    H20 6514   6.643   2.000   2.245 -0.0436  1.1931 -0.5588
   18MOL    C21 6515   6.385   1.726   2.312 -0.3484 -0.3727 -0.1143
   18MOL    C22 6516   6.342   1.584   2.268  0.6164 -0.1320  0.1039
   18MOL    C23 6517   6.246   1.594   2.143  0.2625  0.4956  0.1415
   18MOL    C24 6518   6.194   1.467   2.073  0.2414 -0.0402  0.4275
   18MOL    C25 6519   6.062   1.496   1.999  0.2784  0.3302  0.1022
   18MOL    C26 6520   6.018   1.381   1.906 -1.0669  0.0332 -0.3243
   18MOL    O27 6521   6.441   1.486   2.245  0.3306 -0.4746  0.3652
   18MOL    H28 6522   6.463   1.725   2.388  0.6162 -0.1329 -1.0863
   18MOL    H29 6523   6.304   1.768   2.371 -0.2437 -0.4487  0.0817
   18MOL    H30 6524   6.298   1.536   2.355  2.2533 -1.4625  0.2063
   18MOL    H31 6525   6.291   1.663   2.071 -0.3420 -0.4591 -1.1699
   18MOL    H32 6526   6.161   1.654   2.173 -0.6953 -0.3925 -0.7337
   18MOL    H33 6527   6.173   1.389   2.147  1.9955 -0.8671  0.0665
   18MOL    H34 6528   6.271   1.426   2.007 -0.5080 -2.3049  0.8910
   18MOL    H35 6529   5.988   1.509   2.078  1.6242  0.2480  1.4149
   18MOL    H36 6530   6.072   1.587   1.940  1.9425 -0.6921 -1.2326
   18MOL    H37 6531   6.006   1.280   1.945  0.2440 -0.2542 -0.6574
   18MOL    H38 6532   6.092   1.365   1.828 -1.9084  0.4225 -1.2163
   18MOL    H39 6533   5.929   1.407   1.848 -0.8848 -1.4272 -1.3117
   18MOL    C40 6534   6.562   1.518   2.169 -0.1798  0.0048 -0.5562
   18MOL    C41 6535   6.682   1.421   2.206  0.4318  0.1883  0.0836
   18MOL    C42 6536   6.810   1.494   2.151 -0.5631 -0.0883 -0.2195
   18MOL    C43 6537   6.936   1.411   2.190 -0.3101  0.1630 -1.0213
   18MOL    C44 6538   7.065   1.479   2.144  0.2933 -0.3493  0.5508
   18MOL    C45 6539   7.180   1.388   2.157  0.4703  0.3384  0.8057
   18MOL    O46 6540   6.663   1.293   2.146  0.2012  0.0195 -0.0497
   18MOL    H47 6541   6.598   1.619   2.187 -0.3999  0.0089 -0.1232
   18MOL    H48 6542   6.547   1.510   2.061 -3.1591  0.1995 -0.2230
   18MOL    H49 6543   6.692   1.419   2.315  0.1001 -1.3221  0.0929
   18MOL    H50 6544   6.787   1.497   2.045 -4.5827 -2.9031  0.4516
   18MOL    H51 6545   6.832   1.594   2.190  0.4468  0.2070 -1.5364
   18MOL    H52 6546   6.922   1.319   2.134  0.4214 -0.1624 -0.6710
   18MOL    H53 6547   6.932   1.403   2.298  0.1285  1.0483 -0.9278
   18MOL    H54 6548   7.057   1.505   2.038  0.9385 -0.2670  0.5210
   18MOL    H55 6549   7.088   1.570   2.199 -2.6438 -0.6650  2.3770
   18MOL    H56 6550   7.168   1.300   2.094 -1.4114 -0.9925  2.9464
   18MOL    H57 6551   7.264   1.454   2.136  0.7950  0.4028  2.2707
   18MOL    H58 6552   7.203   1.366   2.261  0.2942 -1.9023  0.3937
   18MOL    C59 6553   6.542   1.224   2.177  0.1039  0.1647  0.2891
   18MOL    C60 6554   6.564   1.079   2.147 -0.2717 -0.1703  0.1226
   18MOL    C61 6555   6.435   1.005   2.170  0.4111 -0.5276 -0.4316
   18MOL    C62 6556   6.319   1.018   2.071 -0.0096 -0.7461  0.0208
   18MOL    C63 6557   6.190   0.940   2.093 -0.1887 -0.3835  0.7312
   18MOL    C64 6558   6.197   0.788   2.113  0.5155  0.1177 -0.3018
   18MOL    O65 6559   6.585   1.066   2.001 -0.2261  0.7484  0.2324
   18MOL    H66 6560   6.453   1.265   2.128  1.3216  1.7545 -0.6286
   18MOL    H67 6561   6.517   1.226   2.284 -4.6438 -2.5543 -0.6042
   18MOL    H68 6562   6.648   1.034   2.200  0.8187  1.3873 -0.2704
   18MOL    H69 6563   6.403   1.022   2.272  0.1863 -0.8918 -0.4415
   18MOL    H70 6564   6.467   0.901   2.176  0.8548 -0.2802  1.8658
   18MOL    H71 6565   6.356   0.993   1.971  0.1791 -0.3248 -0.0162
   18MOL    H72 6566   6.284   1.121   2.083  1.1154 -0.2513 -0.7705
   18MOL    H73 6567   6.111   0.970   2.025 -0.0303  2.0221  1.5597
   18MOL    H74 6568   6.141   0.977   2.183 -1.2300 -1.7646  0.7507
   18MOL    H75 6569   6.199   0.736   2.018 -1.1781  0.1831 -0.4006
   18MOL    H76 6570   6.277   0.752   2.178 -0.2761  0.9342  1.1585
   18MOL    H77 6571   6.111   0.747   2.167  1.0263  0.5115  0.8319
   18MOL    C78 6572   6.722   1.084   1.969  0.2650  0.0978 -0.6262
   18MOL    C79 6573   6.753   1.191   1.853  0.1945  0.3071  0.3540
   18MOL    C80 6574   6.657   1.177   1.734  0.4657  0.6697  0.3558
   18MOL    C81 6575   6.691   1.242   1.602  0.5092  0.3275  0.1490
   18MOL    C82 6576   6.568   1.242   1.501  0.3121 -0.0194 -0.3253
   18MOL    C83 6577   6.493   1.377   1.518  0.1728  0.5136 -0.7643
   18MOL    O84 6578   6.878   1.159   1.803  0.6520  0.0885 -0.0752
   18MOL    H85 6579   6.754   0.988   1.928 -1.2732  0.2158 -2.1558
   18MOL    H86 6580   6.786   1.108   2.054  1.0078 -3.0575 -0.2181
   18MOL    H87 6581   6.760   1.292   1.893 -0.5470  1.1789 -1.6497
   18MOL    H88 6582   6.639   1.071   1.718  2.0842  0.5193 -0.6268
   18MOL    H89 6583   6.559   1.207   1.771  0.0278  0.2393 -0.4330
   18MOL    H90 6584   6.763   1.187   1.542 -0.1987 -1.2972  0.7722
   18MOL    H91 6585   6.737   1.339   1.623 -0.0415  0.3494  1.2848
   18MOL    H92 6586   6.610   1.223   1.402 -0.5828 -2.2520 -0.2958
   18MOL    H93 6587   6.497   1.159   1.507 -0.2438  0.5175  0.5313
   18MOL    H94 6588   6.427   1.380   1.605 -1.0359  2.6052 -1.7385
   18MOL    H95 6589   6.425   1.384   1.434  0.4150  2.9186 -0.7776
   18MOL    H96 6590   6.548   1.471   1.510 -1.4344  1.5540  0.1451
   18MOL    C97 6591   6.986   1.226   1.864  0.1631 -0.1812 -0.3038
   18MOL    C98 6592   7.119   1.191   1.784  0.5957  0.0586 -0.3815
   18MOL    C99 6593   7.229   1.302   1.791  0.2859  0.8509 -0.5220
   18MOL   C100 6594   7.354   1.265   1.709 -0.3321 -0.0552  0.7092
   18MOL   C101 6595   7.341   1.284   1.568  0.0316 -0.3201  0.0772
   18MOL   C102 6596   7.477   1.278   1.497 -0.7445  1.0582  0.1145
   18MOL   O103 6597   7.173   1.081   1.844  0.3754 -0.3695  0.0352
   18MOL   H104 6598   7.001   1.211   1.971 -0.1580 -0.8498 -0.3503
   18MOL   H105 6599   6.976   1.333   1.842 -2.0653 -0.3462 -0.2213
   18MOL   H106 6600   7.097   1.179   1.678  1.7956  0.0154 -0.6236
   18MOL   H107 6601   7.257   1.317   1.895 -0.8787 -2.2302  0.2798
   18MOL   H108 6602   7.182   1.394   1.757 -2.6381 -0.3166  0.1671
   18MOL   H109 6603   7.384   1.163   1.734 -1.0202 -0.6017 -0.6079
   18MOL   H110 6604   7.429   1.336   1.745 -1.4717  1.2972  0.4563
   18MOL   H111 6605   7.286   1.377   1.555  0.7151 -0.0473 -0.9552
   18MOL   H112 6606   7.278   1.209   1.522 -0.2114 -0.3372  0.4349
   18MOL   H113 6607   7.529   1.182   1.502 -0.7722  0.9253 -1.8295
   18MOL   H114 6608   7.467   1.289   1.389  1.3228 -0.0801 -0.2223
   18MOL   H115 6609   7.541   1.357   1.538  0.4527  1.6842 -2.8323
   18MOL   C116 6610   7.124   0.958   1.807 -0.2585 -0.1227  0.4327
   18MOL   C117 6611   7.188   0.847   1.892  0.0883  1.0323 -1.2698
   18MOL   C118 6612   7.167   0.710   1.825  0.0923  0.3000  0.3537
   18MOL   C119 6613   7.039   0.635   1.867 -0.5362 -0.1565  0.6192
   18MOL   C120 6614   7.021   0.502   1.799 -0.1188 -0.0201  0.3390
   18MOL   C121 6615   6.887   0.437   1.834 -0.0420  0.3467  0.9730
   18MOL   O122 6616   7.126   0.834   2.018 -0.1110 -0.5436  0.5830
   18MOL   H123 6617   7.015   0.956   1.801 -0.2727  1.4650 -0.0733
   18MOL   H124 6618   7.166   0.957   1.706 -0.2563  0.3098  0.4299
   18MOL   H125 6619   7.294   0.871   1.897  0.1770  0.1615  1.2874
   18MOL   H126 6620   7.143   0.734   1.722 -3.3395  1.2559  1.2869
   18MOL   H127 6621   7.259   0.652   1.824 -0.2487 -0.2414  0.2855
   18MOL   H128 6622   6.951   0.698   1.851 -0.0254  0.1875 -0.8565
   18MOL   H129 6623   7.053   0.623   1.975  1.7549 -0.3175  0.3345
   18MOL   H130 6624   7.019   0.517   1.691  0.4718 -1.3949  0.1227
   18MOL   H131 6625   7.104   0.435   1.821 -0.2935 -0.3061  0.1327
   18MOL   H132 6626   6.868   0.448   1.940  0.9771  2.5013  0.9820
   18MOL   H133 6627   6.814   0.487   1.771  0.2459 -0.1634  0.2258
   18MOL   H134 6628   6.890   0.330   1.815  1.4750  0.3604  1.0598
   18MOL   C135 6629   7.141   0.943   2.117  0.9902 -0.2530  0.4392
   18MOL   C136 6630   7.139   0.895   2.263  0.0526 -0.1151  0.7992
   18MOL   C137 6631   7.252   0.796   2.295  0.3637 -0.1623 -0.7828
   18MOL   C138 6632   7.252   0.734   2.436 -0.4664 -0.3149  0.1290
   18MOL   C139 6633   7.305   0.832   2.544  0.0702 -0.0587  0.7503
   18MOL   C140 6634   7.319   0.762   2.684  0.3045 -0.8914  0.2970
   18MOL   O141 6635   7.007   0.844   2.310  0.8365  0.1163 -0.3339
   18MOL   H142 6636   7.239   0.985   2.098  0.1052  0.8529 -1.8056
   18MOL   H143 6637   7.063   1.017   2.099 -1.4005 -2.2861  1.9624
   18MOL   H144 6638   7.165   0.984   2.320  0.0660  0.6394 -0.3850
   18MOL   H145 6639   7.254   0.715   2.221 -0.4066 -1.0637  0.1668
   18MOL   H146 6640   7.349   0.845   2.286  0.8358 -0.2857  3.0587
   18MOL   H147 6641   7.315   0.645   2.437 -1.1972 -0.8674 -1.3154
   18MOL   H148 6642   7.153   0.690   2.450 -0.5226 -0.9754 -2.1474
   18MOL   H149 6643   7.241   0.919   2.559  0.2832  0.5189 -1.5604
   18MOL   H150 6644   7.406   0.864   2.517 -0.0288 -0.3852 -0.0201
   18MOL   H151 6645   7.359   0.661   2.683  0.3556 -0.8591 -0.7497
   18MOL   H152 6646   7.391   0.809   2.751 -1.0679  0.3492  0.9159
   18MOL   H153 6647   7.225   0.763   2.739 -0.1682  0.7354 -0.5241
   18MOL   C154 6648   6.949   0.734   2.237  0.4071  0.3006 -0.9487
   18MOL   C155 6649   6.813   0.684   2.280  0.5071 -0.0106 -1.0216
   18MOL   C156 6650   6.733   0.606   2.168 -0.5230 -0.0269  0.0542
   18MOL   C157 6651   6.678   0.697   2.062  0.3343 -0.3660 -0.5967
   18MOL   C158 6652   6.578   0.622   1.966 -0.0291 -0.0600 -0.7775
   18MOL   C159 6653   6.492   0.729   1.886 -0.2369 -0.7328  0.2081
   18MOL   O160 6654   6.824   0.582   2.379 -0.3131  0.3249  0.4886
   18MOL   H161 6655   7.017   0.648   2.236  2.0422  1.5625 -0.4325
   18MOL   H162 6656   6.943   0.767   2.134 -1.1672 -0.4081 -1.0912
   18MOL   H163 6657   6.760   0.774   2.313  1.2306  0.0594 -0.0029
   18MOL   H164 6658   6.653   0.558   2.223 -1.1713  2.6946  1.5862
   18MOL   H165 6659   6.789   0.522   2.126 -1.4181 -0.1987 -0.8210
   18MOL   H166 6660   6.761   0.731   2.001  1.8041  1.2349  2.2296
   18MOL   H167 6661   6.627   0.788   2.095  0.0310 -0.6497 -0.2768
   18MOL   H168 6662   6.615   0.554   1.890 -1.8809 -2.1563  0.1187
   18MOL   H169 6663   6.513   0.562   2.030  0.5886  1.5221  1.4128
   18MOL   H170 6664   6.411   0.699   1.819  1.0988  0.9629 -2.2426
   18MOL   H171 6665   6.557   0.795   1.828 -1.0703  0.2652  0.4005
   18MOL   H172 6666   6.446   0.787   1.966  1.9055 -1.4710  2.0268
   18MOL   C173 6667   6.836   0.630   2.511 -0.2281 -0.1632 -0.0849
   18MOL   C174 6668   6.899   0.525   2.599 -0.8667  0.1055 -0.0197
   18MOL   C175 6669   7.008   0.580   2.696  0.5438 -0.5382  0.4075
   18MOL   C176 6670   7.092   0.454   2.732  0.3645 -1.0722 -0.4310
   18MOL   C177 6671   7.175   0.466   2.856  0.9985  0.0910 -0.2482
   18MOL   C178 6672   7.224   0.332   2.919  0.0830  0.0447  0.0616
   18MOL   O179 6673   6.795   0.452   2.663  0.3620  0.3978 -0.1431
   18MOL   H180 6674   6.743   0.673   2.549  0.5347  1.6904 -0.2728
   18MOL   H181 6675   6.913   0.705   2.497 -0.0071 -0.5615 -1.0723
   18MOL   H182 6676   6.952   0.464   2.526  2.0208  1.5312  0.7774
   18MOL   H183 6677   7.069   0.658   2.651 -1.6543  0.2044 -1.3934
   18MOL   H184 6678   6.951   0.618   2.780 -1.0283 -0.2135 -0.7781
   18MOL   H185 6679   7.019   0.377   2.757  0.0417 -0.7181 -0.2731
   18MOL   H186 6680   7.155   0.412   2.654 -0.0948 -0.9225 -0.8890
   18MOL   H187 6681   7.253   0.536   2.825  0.7375 -0.0386 -1.1932
   18MOL   H188 6682   7.114   0.520   2.928  1.0000  0.1415 -0.2851
   18MOL   H189 6683   7.265   0.256   2.852 -0.0746  0.2807 -0.2996
   18MOL   H190 6684   7.139   0.281   2.966  1.9486  0.7699  4.5040
   18MOL   H191 6685   7.296   0.334   3.001 -1.5542  1.5650  1.5193
   18MOL   C192 6686   6.732   0.339   2.604 -0.5650 -0.1937  1.1408
   18MOL   C193 6687   6.636   0.273   2.703 -0.1173 -0.0129  0.0811
   18MOL   C194 6688   6.591   0.135   2.642  0.3495 -0.3690 -0.1239
   18MOL   C195 6689   6.494   0.059   2.731 -0.3199  0.3537 -0.7999
   18MOL   C196 6690   6.449   7.712   2.673  0.0965  0.1531 -0.0109
   18MOL   C197 6691   6.335   7.658   2.751  0.7829  0.3082  0.1607
   18MOL   O198 6692   6.521   0.353   2.704  0.2770  0.0586  0.0440
   18MOL   H199 6693   6.676   0.364   2.514 -0.2891  0.9650  1.2852
   18MOL   H200 6694   6.814   0.271   2.581 -1.8449 -0.8702 -1.6472
   18MOL   H201 6695   6.674   0.254   2.804 -1.3957  0.8629  0.7505
   18MOL   H202 6696   6.549   0.160   2.545  0.6624  1.6536  0.2304
   18MOL   H203 6697   6.679   0.075   2.619 -0.2887 -1.3336 -0.0534
   18MOL   H204 6698   6.406   0.120   2.751  0.6162  0.2778  4.1877
   18MOL   H205 6699   6.533   0.048   2.832 -0.9319  0.0099 -0.5962
   18MOL   H206 6700   6.416   7.728   2.571  0.8593  1.6197 -0.0330
   18MOL   H207 6701   6.530   7.639   2.673  1.3192  1.4700  1.4751
   18MOL   H208 6702   6.290   7.563   2.722  2.6872 -0.2117 -1.2148
   18MOL   H209 6703   6.371   7.652   2.854  2.4382  0.9774 -0.3578
   18MOL   H210 6704   6.244   7.718   2.758  0.4122 -0.4101  1.5499
   18MOL   C211 6705   6.492   0.413   2.827 -0.5562 -0.1634  0.0894
   18MOL   C212 6706   6.367   0.500   2.817  0.1108  0.3914 -0.0103
   18MOL   C213 6707   6.356   0.593   2.934  0.1984 -0.0087 -0.4025
   18MOL   C214 6708   6.334   0.528   3.076 -0.1085 -0.6195  0.1920
   18MOL   C215 6709   6.356   0.637   3.184 -0.1045  0.2706  0.6425
   18MOL   C216 6710   6.352   0.573   3.321  0.1214  0.4102  0.6683
   18MOL   O217 6711   6.250   0.422   2.828 -0.1888  0.2728 -0.0463
   18MOL   H218 6712   6.575   0.475   2.861 -1.3500  0.1913  1.4488
   18MOL   H219 6713   6.466   0.338   2.902 -1.0156 -0.1539 -0.0571
   18MOL   H220 6714   6.359   0.558   2.726  1.0315  0.2687 -0.1739
   18MOL   H221 6715   6.435   0.667   2.932 -0.1266  0.3266 -2.4579
   18MOL   H222 6716   6.269   0.657   2.921 -1.1870 -2.1102 -1.9660
   18MOL   H223 6717   6.241   0.471   3.082  0.4862 -1.5586  0.5794
   18MOL   H224 6718   6.394   0.440   3.096 -0.4151 -0.9330 -0.2510
   18MOL   H225 6719   6.459   0.670   3.174  0.0666 -0.6168 -0.5713
   18MOL   H226 6720   6.277   0.711   3.175 -1.1849 -1.0265 -0.8698
   18MOL   H227 6721   6.423   0.490   3.329  1.8352  1.6150 -1.4951
   18MOL   H228 6722   6.257   0.539   3.364 -0.3478  2.1843  1.0636
   18MOL   H229 6723   6.395   0.643   3.392  1.1151 -1.0208  1.4999
   18MOL   C230 6724   6.190   0.394   2.700  0.0927 -0.1112  0.1254
   18MOL   C231 6725   6.049   0.321   2.702  0.6507  0.4750  0.3589
   18MOL   C232 6726   6.067   0.185   2.767  0.0071  0.2020  0.3786
   18MOL   C233 6727   5.928   0.120   2.783  0.7101 -0.2960 -0.8547
   18MOL   C234 6728   5.942   7.756   2.822  0.5720 -0.5925  0.4964
   18MOL   C235 6729   6.022   7.715   2.948 -0.7268 -1.0187 -0.9360
   18MOL   O236 6730   6.009   0.299   2.563 -0.1512  0.0340  0.8115
   18MOL   H237 6731   6.190   0.487   2.644 -1.1128 -0.1105  0.1117
   18MOL   H238 6732   6.257   0.332   2.641  3.3023  0.4418  3.0130
   18MOL   H239 6733   5.972   0.383   2.748 -0.5288 -1.0727  0.5129
   18MOL   H240 6734   6.128   0.190   2.857 -0.2752 -0.5287  0.6106
   18MOL   H241 6735   6.127   0.134   2.693  0.4546 -0.0622  0.9193
   18MOL   H242 6736   5.890   0.123   2.681  0.1185  0.0691 -0.6293
   18MOL   H243 6737   5.864   0.172   2.855  2.0103  0.3524 -0.1504
   18MOL   H244 6738   5.848   7.701   2.821  0.4459 -0.3809  0.6658
   18MOL   H245 6739   5.979   7.715   2.728  0.1503 -1.0014  0.5056
   18MOL   H246 6740   5.973   7.763   3.033  2.2667  1.3798 -0.5080
   18MOL   H247 6741   6.122   7.755   2.956 -1.2843  0.0394  1.0634
   18MOL   H248 6742   6.026   7.606   2.958  1.5715 -0.9955 -1.4670
   18MOL   C249 6743   5.956   0.414   2.503  0.8434  0.4742  0.1498
   18MOL   C250 6744   5.992   0.410   2.357  1.2619  0.1539  0.0372
   18MOL   C251 6745   6.144   0.415   2.344 -0.2532 -1.0764 -0.2569
   18MOL   C252 6746   6.190   0.385   2.203  0.5518  0.2740  0.5526
   18MOL   C253 6747   6.337   0.415   2.168  0.4786  0.4168 -0.4162
   18MOL   C254 6748   6.448   0.338   2.240  0.3959 -0.4755  0.6744
   18MOL   O255 6749   5.947   0.530   2.288  0.0348 -0.2864  0.0544
   18MOL   H256 6750   5.848   0.411   2.516  1.0525  0.1943  1.9721
   18MOL   H257 6751   5.989   0.505   2.555  0.6346  1.1547 -0.8946
   18MOL   H258 6752   5.960   0.323   2.300 -1.1882  0.3523  1.0840
   18MOL   H259 6753   6.185   0.506   2.388  1.4986 -1.1532 -1.6683
   18MOL   H260 6754   6.180   0.330   2.402 -0.6221 -0.4440  0.9154
   18MOL   H261 6755   6.164   0.280   2.185  0.9572  0.1292  0.8161
   18MOL   H262 6756   6.123   0.430   2.130 -0.3159 -0.3985  0.9184
   18MOL   H263 6757   6.334   0.394   2.061 -0.4130  1.4599 -0.6143
   18MOL   H264 6758   6.357   0.522   2.179  0.0892  0.3045  1.6146
   18MOL   H265 6759   6.547   0.362   2.202  0.3452 -2.3473 -0.7228
   18MOL   H266 6760   6.428   0.232   2.222  0.3034 -0.5468  1.1699
   18MOL   H267 6761   6.437   0.358   2.347 -3.1359  0.0882  0.2668
   18MOL   C268 6762   5.825   0.521   2.213  0.2432 -0.5012 -1.2375
   18MOL   C269 6763   5.805   0.622   2.095  0.0937 -0.7800  0.0953
   18MOL   C270 6764   5.770   0.764   2.138 -0.2582 -0.2640 -0.4078
   18MOL   C271 6765   5.747   0.848   2.014 -0.1592  0.4943  0.6477
   18MOL   C272 6766   5.758   1.002   2.048  0.3334 -0.3551  0.5974
   18MOL   C273 6767   5.735   1.095   1.926  0.0185 -0.0392  0.4137
   18MOL   O274 6768   5.721   0.570   1.999  0.1178  0.0573  0.6590
   18MOL   H275 6769   5.746   0.529   2.287  1.2086  3.2363 -0.5380
   18MOL   H276 6770   5.820   0.422   2.166 -0.7182 -0.4671 -1.2192
   18MOL   H277 6771   5.904   0.633   2.051  0.1474  1.9888  0.8311
   18MOL   H278 6772   5.683   0.761   2.204  0.0580 -1.1237 -0.0248
   18MOL   H279 6773   5.861   0.805   2.182 -1.9579  2.0917  1.0742
   18MOL   H280 6774   5.824   0.829   1.940  0.6566 -0.5040  1.7435
   18MOL   H281 6775   5.654   0.813   1.969  0.8150  0.0160 -1.0274
   18MOL   H282 6776   5.676   1.010   2.118  2.1122 -0.4092  2.7535
   18MOL   H283 6777   5.851   1.023   2.102  0.4155  1.4933 -0.2191
   18MOL   H284 6778   5.729   1.200   1.953  0.4557  0.5280 -1.6356
   18MOL   H285 6779   5.820   1.094   1.859  0.7535  0.2579  1.3323
   18MOL   H286 6780   5.639   1.070   1.881  1.1046 -1.9320 -0.9094
   18MOL   C287 6781   5.772   0.485   1.902  0.3746 -0.4191 -0.0684
   18MOL   C288 6782   5.813   0.570   1.773  0.5068  0.0621  0.2741
   18MOL   C289 6783   5.718   0.616   1.673  0.0535  0.2109  0.1949
   18MOL   C290 6784   5.638   0.490   1.618 -0.4654  0.8994 -0.0533
   18MOL   C291 6785   5.544   0.516   1.495  0.1212 -0.9396 -0.2648
   18MOL   C292 6786   5.412   0.452   1.511  0.5415 -0.1438 -0.8595
   18MOL   O293 6787   5.920   0.491   1.719 -0.2257 -0.2239  0.5362
   18MOL   H294 6788   5.700   0.410   1.869  0.2389 -0.6135  0.6591
   18MOL   H295 6789   5.857   0.426   1.936 -0.4523 -0.6245  1.7437
   18MOL   H296 6790   5.852   0.660   1.821  1.6072 -1.0628  1.5272
   18MOL   H297 6791   5.645   0.687   1.710  0.6851 -0.7882  3.5284
   18MOL   H298 6792   5.758   0.658   1.581 -1.3796 -0.4801 -0.7638
   18MOL   H299 6793   5.704   0.408   1.591 -0.7322  0.9375 -0.8537
   18MOL   H300 6794   5.569   0.453   1.694 -0.2464 -1.7861 -1.1208
   18MOL   H301 6795   5.605   0.494   1.407  1.2913  1.0572  0.0191
   18MOL   H302 6796   5.526   0.623   1.494  0.7018 -0.8419 -0.3578
   18MOL   H303 6797   5.416   0.344   1.499 -2.5884 -0.2425 -1.6166
   18MOL   H304 6798   5.364   0.485   1.603 -0.5579  0.0349 -1.4737
   18MOL   H305 6799   5.338   0.497   1.443  0.9853  3.2367  0.8158
   18MOL   C306 6800   6.046   0.504   1.768 -0.0517 -0.9473 -0.4851
   18MOL   C307 6801   6.141   0.430   1.674 -0.6833 -0.2116  0.3558
   18MOL   C308 6802   6.281   0.426   1.736 -0.5395  0.0915 -0.6344
   18MOL   C309 6803   6.372   0.324   1.672 -0.3356  0.0487  0.0932
   18MOL   C310 6804   6.525   0.313   1.702  0.1778  0.5943 -0.7140
   18MOL   C311 6805   6.555   0.239   1.840  0.2804  0.2604  0.6635
   18MOL   O312 6806   6.158   0.504   1.552  0.2047 -0.2230  0.1564
   18MOL   H313 6807   6.080   0.606   1.786 -0.0242 -1.3462  1.8592
   18MOL   H314 6808   6.049   0.457   1.866  0.3045 -0.3568 -0.2100
   18MOL   H315 6809   6.102   0.330   1.657 -0.2885 -0.2881 -0.1507
   18MOL   H316 6810   6.269   0.390   1.839 -0.0345 -0.3325 -0.7197
   18MOL   H317 6811   6.325   0.524   1.755 -0.0964 -0.1400 -0.4440
   18MOL   H318 6812   6.331   0.223   1.667 -4.0796  1.4384  0.3724
   18MOL   H319 6813   6.367   0.360   1.569 -0.5490 -0.1253  0.0419
   18MOL   H320 6814   6.576   0.409   1.695  0.7699  0.2345 -1.3751
   18MOL   H321 6815   6.565   0.261   1.615  3.3646 -0.9718  1.5806
   18MOL   H322 6816   6.562   0.312   1.921 -0.3762 -0.3006  1.2322
   18MOL   H323 6817   6.489   0.157   1.867  0.2977  0.8624  2.6459
   18MOL   H324 6818   6.656   0.197   1.845  0.0451 -0.1267  3.1889
   18MOL   C325 6819   6.107   0.443   1.437  0.1264 -0.1300 -0.1400
   18MOL   C326 6820   6.133   0.525   1.306 -0.4140  0.3933 -0.7076
   18MOL   C327 6821   6.044   0.484   1.190  0.4940  0.4890  0.4588
   18MOL   C328 6822   6.022   0.593   1.073  0.4422 -0.1486  0.5639
   18MOL   C329 6823   5.913   0.548   0.971  0.0883  0.1878 -0.2574
   18MOL   C330 6824   5.763   0.605   1.007  0.4073  1.4069 -0.1225
   18MOL   O331 6825   6.268   0.524   1.265 -0.8914  0.5424  0.3178
   18MOL   H332 6826   5.999   0.430   1.440  0.1176 -0.4329 -1.5703
   18MOL   H333 6827   6.158   0.347   1.429 -1.4301 -1.0411  0.4717
   18MOL   H334 6828   6.097   0.623   1.336  1.3738  0.8905 -0.1074
   18MOL   H335 6829   6.090   0.394   1.149 -1.6225 -0.8134  0.8963
   18MOL   H336 6830   5.949   0.459   1.238  1.7001 -2.5964  1.4121
   18MOL   H337 6831   6.000   0.685   1.126  0.3415  1.0192 -1.4513
   18MOL   H338 6832   6.120   0.597   1.025  0.9470  1.2513  1.6740
   18MOL   H339 6833   5.951   0.585   0.876  0.6253  1.0491  0.2879
   18MOL   H340 6834   5.919   0.441   0.951 -0.1258 -0.2601  1.9363
   18MOL   H341 6835   5.734   0.564   1.104 -0.4753  2.0695 -0.0987
   18MOL   H342 6836   5.768   0.712   1.027 -1.2892  1.3182  0.9046
   18MOL   H343 6837   5.692   0.583   0.927  0.0391 -1.1528  0.8577
   18MOL   C344 6838   6.315   0.662   1.240 -0.6098  0.0730  0.1662
   18MOL   C345 6839   6.370   0.713   1.379 -0.3888  1.3170 -0.2744
   18MOL   C346 6840   6.508   0.793   1.370  0.1563 -0.2777 -0.1664
   18MOL   C347 6841   6.608   0.746   1.473 -0.9179  0.0276 -0.1314
   18MOL   C348 6842   6.749   0.809   1.452  0.7403 -0.2652  0.1005
   18MOL   C349 6843   6.850   0.748   1.547  0.0045  0.5866 -0.0198
   18MOL   O350 6844   6.269   0.791   1.440  0.5349 -0.1365  0.0069
   18MOL   H351 6845   6.242   0.720   1.184 -1.4830 -3.2775 -2.3113
   18MOL   H352 6846   6.402   0.656   1.175 -0.4035  2.4389  0.1875
   18MOL   H353 6847   6.397   0.628   1.442  0.7741  0.4308 -1.9075
   18MOL   H354 6848   6.500   0.902   1.375  0.0034 -0.2869 -0.2051
   18MOL   H355 6849   6.558   0.762   1.278  0.5251  1.5334 -0.5873
   18MOL   H356 6850   6.622   0.638   1.473  0.9162  0.2442 -0.3306
   18MOL   H357 6851   6.561   0.768   1.569 -0.9757  2.2863 -0.6661
   18MOL   H358 6852   6.751   0.918   1.462  0.9518 -0.3651  1.1539
   18MOL   H359 6853   6.785   0.783   1.352  0.8332 -1.2547  0.3930
   18MOL   H360 6854   6.854   0.639   1.544  0.4184  0.6363 -1.5427
   18MOL   H361 6855   6.827   0.764   1.653 -0.4370 -0.1581  0.0021
   18MOL   H362 6856   6.952   0.780   1.526  0.8423 -0.5155  2.1826
   18MOL   C363 6857   6.286   0.821   1.579  1.0056 -0.4537 -0.5590
   18MOL   C364 6858   6.180   0.917   1.627 -0.2779  0.1634  0.2626
   18MOL   C365 6859   6.167   1.045   1.531 -0.3022  0.7879 -0.0640
   18MOL   C366 6860   6.064   1.153   1.575  0.2245  0.3686  0.1146
   18MOL   C367 6861   6.047   1.247   1.460 -0.6163 -0.0339  0.1973
   18MOL   C368 6862   5.987   1.378   1.505  0.2495  0.1416 -0.2542
   18MOL   O369 6863   6.058   0.849   1.631 -0.0864 -0.3921  0.2612
   18MOL   H370 6864   6.381   0.873   1.593 -0.5817  1.5140  3.6066
   18MOL   H371 6865   6.282   0.734   1.644 -0.6536 -1.3532 -1.8319
   18MOL   H372 6866   6.207   0.968   1.720  1.8347 -0.0902 -0.1866
   18MOL   H373 6867   6.269   1.082   1.523 -0.0579  0.8822  2.7520
   18MOL   H374 6868   6.126   1.008   1.437 -0.7624  1.1304 -0.0019
   18MOL   H375 6869   5.972   1.109   1.614  0.5872  0.7463  1.4089
   18MOL   H376 6870   6.116   1.201   1.658  1.9115  1.6717 -1.6462
   18MOL   H377 6871   6.141   1.244   1.405 -0.6486  1.0178  0.0854
   18MOL   H378 6872   5.977   1.208   1.387 -0.4193 -3.0488  1.5068
   18MOL   H379 6873   6.066   1.434   1.555 -1.3132  1.0123  1.3064
   18MOL   H380 6874   5.951   1.434   1.419 -1.9000  2.2587  1.9181
   18MOL   H381 6875   5.901   1.376   1.573  0.4032  3.0977  0.0623
   18MOL   H382 6876   6.049   0.810   1.545 -2.8636  1.8728 -0.5539
   19MOL     C1 6877   7.526   5.400   0.081 -0.1037  0.0610 -0.1015
   19MOL     C2 6878   7.653   5.331   0.026 -0.7003 -0.3439 -0.7246
   19MOL     C3 6879   7.783   5.405   0.028 -0.2461 -0.0398  1.0807
   19MOL     C4 6880   0.108   5.338   7.734 -0.3708 -0.2139  0.2746
   19MOL     C5 6881   0.246   5.413   7.745 -0.2982 -0.5442  0.0713
   19MOL     C6 6882   0.363   5.331   7.690 -0.1450  0.2089 -0.3778
   19MOL     O7 6883   7.679   5.207   0.096 -0.3309  0.0383  0.3150
   19MOL     H8 6884   7.503   5.498   0.039  2.1302  0.9058  0.5792
   19MOL     H9 6885   7.522   5.400   0.190  0.9736 -0.1440 -0.0649
   19MOL    H10 6886   7.636   5.308   7.706  2.1111 -1.9787 -0.8715
   19MOL    H11 6887   7.765   5.496   7.756  1.7585 -1.3514 -1.7717
   19MOL    H12 6888   0.028   5.420   0.132  1.9695  1.1300  0.3007
   19MOL    H13 6889   0.112   5.234   7.766 -2.3182 -1.7823 -4.0949
   19MOL    H14 6890   0.074   5.337   7.630 -0.6493  1.0237  0.3399
   19MOL    H15 6891   0.246   5.509   7.693  0.5259 -1.4432 -1.6184
   19MOL    H16 6892   0.270   5.444   0.061 -1.1957 -1.2378  0.4991
   19MOL    H17 6893   0.379   5.357   7.585 -2.8817 -1.4699 -1.2378
   19MOL    H18 6894   0.456   5.346   7.745 -0.5860  0.9729  0.1743
   19MOL    H19 6895   0.332   5.227   7.693  1.8903 -0.4115  0.2487
   19MOL    H20 6896   7.435   5.349   0.049 -0.1497  1.7300 -2.7838
   19MOL    C21 6897   7.564   5.114   0.100 -0.5532  0.8879 -0.4423
   19MOL    C22 6898   7.622   4.968   0.105 -0.1103 -0.0065 -0.5091
   19MOL    C23 6899   7.527   4.866   0.175  0.3957  0.1977  0.0634
   19MOL    C24 6900   7.593   4.730   0.201 -0.1726  0.5801 -1.0067
   19MOL    C25 6901   7.504   4.616   0.254 -0.1482 -0.0459  0.3215
   19MOL    C26 6902   7.582   4.488   0.301  0.0777  0.5111 -0.2805
   19MOL    O27 6903   7.638   4.916   7.762 -0.2503 -0.4939  0.0078
   19MOL    H28 6904   7.513   5.132   0.195  1.8378 -0.3217  1.1111
   19MOL    H29 6905   7.491   5.125   0.019 -0.9590 -2.3884 -0.5588
   19MOL    H30 6906   7.712   4.984   0.163 -0.1335  0.6280 -0.6430
   19MOL    H31 6907   7.441   4.859   0.109  0.1945  1.3199  0.1993
   19MOL    H32 6908   7.489   4.901   0.271 -1.6605 -1.7739 -0.0037
   19MOL    H33 6909   7.677   4.743   0.270 -0.0170  0.7193 -1.2215
   19MOL    H34 6910   7.642   4.691   0.111  1.8006 -1.1525  0.7465
   19MOL    H35 6911   7.446   4.649   0.341  1.6772 -0.9852  1.9313
   19MOL    H36 6912   7.423   4.591   0.185 -0.7183  0.3283  0.8451
   19MOL    H37 6913   7.633   4.439   0.218 -0.1368  1.2766 -0.8774
   19MOL    H38 6914   7.521   4.404   0.333  2.3684 -0.5488  1.4400
   19MOL    H39 6915   7.653   4.516   0.379 -1.0416 -1.4876  1.5029
   19MOL    C40 6916   7.746   4.982   7.693 -0.4406  0.3364 -0.2732
   19MOL    C41 6917   0.031   4.884   7.587  0.1082 -0.3810  0.5039
   19MOL    C42 6918   0.164   4.939   7.551  0.7402 -0.4146  0.4382
   19MOL    C43 6919   0.274   4.939   7.660 -0.0308  0.1914 -0.4916
   19MOL    C44 6920   0.413   4.946   7.592  0.2986  0.4409  0.2074
   19MOL    C45 6921   0.530   4.935   7.697 -0.0799 -0.1204  0.1270
   19MOL    O46 6922   7.738   4.865   7.468  0.7465  0.0305  0.1752
   19MOL    H47 6923   0.037   5.035   7.750 -0.2469  1.3664 -1.4686
   19MOL    H48 6924   7.712   5.066   7.632  1.3498  0.0583 -1.6883
   19MOL    H49 6925   0.041   4.784   7.629 -0.1581  0.2989  2.2407
   19MOL    H50 6926   0.191   4.890   7.457  1.5937 -1.0407  1.0007
   19MOL    H51 6927   0.134   5.034   7.508 -2.1213 -0.1507  2.9223
   19MOL    H52 6928   0.285   4.844   7.712  1.3669  0.7692  0.3142
   19MOL    H53 6929   0.277   5.022   7.731  0.1322 -0.3381  0.1300
   19MOL    H54 6930   0.418   4.867   7.516 -3.5738  0.5024 -0.1859
   19MOL    H55 6931   0.416   5.040   7.537 -0.7299  1.6349  2.1095
   19MOL    H56 6932   0.531   4.840   7.750  2.0671  0.5293  1.2980
   19MOL    H57 6933   0.623   4.951   7.642  1.0122 -2.0684  1.3493
   19MOL    H58 6934   0.529   5.009   7.777 -1.0842  0.7297 -0.6537
   19MOL    C59 6935   7.619   4.797   7.495  0.2519 -0.0967  0.4391
   19MOL    C60 6936   7.586   4.709   7.369  0.4783  0.0137 -0.0631
   19MOL    C61 6937   7.471   4.607   7.399  0.7104 -0.5898 -0.0688
   19MOL    C62 6938   7.435   4.509   7.289 -0.1298  1.0573 -0.3358
   19MOL    C63 6939   7.311   4.431   7.340  0.1664  0.0690  0.4074
   19MOL    C64 6940   7.251   4.315   7.249 -0.0047  0.1225  0.0517
   19MOL    O65 6941   7.542   4.776   7.250  0.4718 -0.0786  0.0997
   19MOL    H66 6942   7.539   4.870   7.507  1.5633  1.8832 -2.2586
   19MOL    H67 6943   7.621   4.731   7.581 -0.6196  0.6361  1.0289
   19MOL    H68 6944   7.666   4.641   7.341  2.7675  3.2572 -1.7153
   19MOL    H69 6945   7.385   4.662   7.437  0.8369  1.1964 -2.2836
   19MOL    H70 6946   7.499   4.547   7.485  0.2881 -1.3858 -0.4807
   19MOL    H71 6947   7.521   4.442   7.291 -0.5891  0.4629 -0.0654
   19MOL    H72 6948   7.428   4.557   7.191 -1.9504  0.3303 -0.5845
   19MOL    H73 6949   7.241   4.512   7.359  0.9204  0.3930  1.9376
   19MOL    H74 6950   7.329   4.388   7.439  4.3463 -0.9164 -0.6698
   19MOL    H75 6951   7.230   4.361   7.152 -0.2509  1.0117  0.5233
   19MOL    H76 6952   7.325   4.237   7.230  0.2089 -0.2196  2.1581
   19MOL    H77 6953   7.157   4.274   7.287 -0.4687 -0.1900 -1.3781
   19MOL    C78 6954   7.635   4.771   7.142 -0.4945  0.1236  0.3464
   19MOL    C79 6955   7.624   4.894   7.048 -0.5148 -0.1666  0.3231
   19MOL    C80 6956   7.610   4.859   6.896 -0.5001 -0.2614  0.0763
   19MOL    C81 6957   7.470   4.810   6.851  0.1759  0.2904 -0.2419
   19MOL    C82 6958   7.387   4.916   6.774 -0.3136 -0.2533 -0.9966
   19MOL    C83 6959   7.301   5.013   6.852  0.7346 -0.2848  0.4998
   19MOL    O84 6960   7.740   4.977   7.070  0.0221  0.2080 -0.0682
   19MOL    H85 6961   7.605   4.685   7.082  0.3801 -0.3633  0.6000
   19MOL    H86 6962   7.736   4.756   7.180 -0.7516 -0.7107  0.7067
   19MOL    H87 6963   7.534   4.952   7.066 -3.3864 -3.9171 -1.2663
   19MOL    H88 6964   7.663   4.935   6.838 -3.8730  0.4189 -2.2746
   19MOL    H89 6965   7.679   4.778   6.874  0.6611  1.3399 -2.4252
   19MOL    H90 6966   7.405   4.776   6.932 -1.7068  2.0884 -0.9434
   19MOL    H91 6967   7.482   4.719   6.792 -2.2627  0.7390 -1.5033
   19MOL    H92 6968   7.451   4.975   6.708  0.3680  1.3104  1.0159
   19MOL    H93 6969   7.316   4.855   6.718 -0.7286 -1.3632  0.7035
   19MOL    H94 6970   7.354   5.060   6.934  0.1794  0.8515  0.2183
   19MOL    H95 6971   7.207   4.969   6.886 -0.4489  1.6483 -0.2248
   19MOL    H96 6972   7.272   5.102   6.795 -1.6146 -1.3881 -0.1340
   19MOL    C97 6973   7.747   5.060   7.185 -0.3164 -0.1743  0.6824
   19MOL    C98 6974   0.070   5.172   7.177  0.2667  0.5487  0.3586
   19MOL    C99 6975   0.065   5.285   7.283  0.6291  0.3689  0.5742
   19MOL   C100 6976   0.179   5.394   7.257  0.2401  0.0580  0.5132
   19MOL   C101 6977   0.163   5.514   7.344 -0.1662 -0.3799 -0.8378
   19MOL   C102 6978   0.268   5.621   7.321 -0.0880 -0.4241 -0.7508
   19MOL   O103 6979   0.207   5.126   7.174  0.1426  0.1973  0.0275
   19MOL   H104 6980   7.767   5.001   7.275 -0.2380 -0.8485  0.2273
   19MOL   H105 6981   7.653   5.114   7.195 -0.9965 -0.9895 -1.0565
   19MOL   H106 6982   0.047   5.218   7.082  1.0214 -0.5895 -0.3912
   19MOL   H107 6983   0.078   5.245   7.384 -0.4851  0.5466  0.7895
   19MOL   H108 6984   7.752   5.331   7.284  0.1632 -0.4909 -1.5887
   19MOL   H109 6985   0.169   5.419   7.152 -2.2588 -0.3233  0.6264
   19MOL   H110 6986   0.270   5.337   7.276 -0.2573 -0.5959  0.9808
   19MOL   H111 6987   0.158   5.492   7.450 -0.9659  0.5308 -0.6785
   19MOL   H112 6988   0.064   5.554   7.322 -0.4843 -2.1342 -2.7584
   19MOL   H113 6989   0.274   5.655   7.218 -1.8010 -1.7248 -1.2938
   19MOL   H114 6990   0.248   5.707   7.385 -0.7990 -0.2104 -1.2573
   19MOL   H115 6991   0.365   5.580   7.352 -0.9407 -1.0238  1.2249
   19MOL   C116 6992   0.279   5.126   7.046  0.5995  0.1774 -0.0894
   19MOL   C117 6993   0.409   5.041   7.059 -0.0531 -0.3782 -0.1223
   19MOL   C118 6994   0.518   5.085   6.952 -0.0580 -0.1201 -0.3329
   19MOL   C119 6995   0.650   5.003   6.970 -0.0145 -0.9977 -0.2535
   19MOL   C120 6996   0.764   5.042   6.884 -0.3684  0.1417 -0.1240
   19MOL   C121 6997   0.895   4.982   6.933  0.3423  0.2793 -0.0318
   19MOL   O122 6998   0.383   4.904   7.023  0.3962  0.9260 -0.3873
   19MOL   H123 6999   0.217   5.071   6.974 -0.8227 -1.8831  2.6084
   19MOL   H124 7000   0.279   5.223   6.997 -4.1501  0.0150 -0.7050
   19MOL   H125 7001   0.442   5.053   7.162 -0.4930 -2.2689  0.2514
   19MOL   H126 7002   0.479   5.076   6.851 -0.4530  0.1567 -0.2063
   19MOL   H127 7003   0.546   5.189   6.959  0.0458 -0.0502 -1.6921
   19MOL   H128 7004   0.639   4.896   6.952  0.5840 -1.3857  1.5353
   19MOL   H129 7005   0.677   5.007   7.076 -4.3987 -1.5716  0.9904
   19MOL   H130 7006   0.734   5.029   6.780 -1.1549 -0.5054  0.1739
   19MOL   H131 7007   0.771   5.149   6.902 -1.6061  0.3504 -0.8196
   19MOL   H132 7008   0.930   5.043   7.016  1.7342 -0.9343  0.2954
   19MOL   H133 7009   0.891   4.874   6.952 -1.8243  0.5115  1.0296
   19MOL   H134 7010   0.973   4.992   6.858 -0.6063 -0.2682 -1.1028
   19MOL   C135 7011   0.317   4.822   7.117 -0.2994  0.5105  0.3784
   19MOL   C136 7012   0.287   4.682   7.063 -0.3556  0.1392 -0.2760
   19MOL   C137 7013   0.164   4.679   6.970  0.2782  0.3966  0.3679
   19MOL   C138 7014   0.145   4.540   6.915 -0.3795  0.1835  0.3901
   19MOL   C139 7015   0.075   4.535   6.780  0.6644 -0.2889  0.0878
   19MOL   C140 7016   0.023   4.397   6.726 -0.0862 -0.7743  0.6113
   19MOL   O141 7017   0.280   4.585   7.170  0.1619  0.3770  0.1827
   19MOL   H142 7018   0.383   4.810   7.202  0.3843  0.1523 -0.1997
   19MOL   H143 7019   0.225   4.872   7.149 -0.8454  0.0184 -0.3978
   19MOL   H144 7020   0.376   4.650   7.009 -2.1102  0.5173 -3.4820
   19MOL   H145 7021   0.069   4.716   7.011 -0.0355 -0.2329  0.2163
   19MOL   H146 7022   0.189   4.744   6.887 -0.4436 -1.1247 -1.0843
   19MOL   H147 7023   0.094   4.476   6.986 -1.3631 -1.2386 -1.5669
   19MOL   H148 7024   0.241   4.493   6.890 -1.2221  0.1479 -3.0473
   19MOL   H149 7025   0.140   4.578   6.704  1.1648 -2.6064 -0.8074
   19MOL   H150 7026   7.773   4.600   6.782 -0.7924 -2.1315 -1.6229
   19MOL   H151 7027   0.102   4.334   6.685  0.5536  1.9151 -2.4777
   19MOL   H152 7028   7.760   4.340   6.806 -1.1414  0.7788  1.1000
   19MOL   H153 7029   7.750   4.417   6.636  1.2798  1.4743  0.1871
   19MOL   C154 7030   0.172   4.587   7.259  0.5564  0.6141 -0.1891
   19MOL   C155 7031   0.202   4.505   7.386  0.2953 -0.0727 -0.5831
   19MOL   C156 7032   0.293   4.591   7.483  0.1068 -0.1595 -0.2327
   19MOL   C157 7033   0.343   4.515   7.609 -0.1844  0.0952  0.2894
   19MOL   C158 7034   0.441   4.405   7.573 -0.3754 -0.0060 -0.2845
   19MOL   C159 7035   0.535   4.381   7.692  0.2968  0.2751 -0.0699
   19MOL   O160 7036   0.082   4.448   7.444 -0.4628  0.8035 -0.4373
   19MOL   H161 7037   0.083   4.558   7.204  1.5009 -0.4010 -1.2098
   19MOL   H162 7038   0.153   4.692   7.283 -0.2752  0.4243  0.0042
   19MOL   H163 7039   0.258   4.420   7.348 -1.4642 -0.6253 -2.0054
   19MOL   H164 7040   0.233   4.679   7.509  0.9879  0.4684 -0.2885
   19MOL   H165 7041   0.384   4.626   7.434 -0.8821  1.1507 -1.1828
   19MOL   H166 7042   0.264   4.478   7.674 -2.2696  0.0612 -2.1990
   19MOL   H167 7043   0.411   4.582   7.662 -0.0289 -0.8380  1.2840
   19MOL   H168 7044   0.394   4.312   7.540  2.1605 -0.9185 -1.4705
   19MOL   H169 7045   0.507   4.437   7.492 -0.4661  3.8665  1.0652
   19MOL   H170 7046   0.614   4.456   7.692  0.1795  0.4090  1.5349
   19MOL   H171 7047   0.579   4.281   7.695 -1.9962 -0.7079  2.1808
   19MOL   H172 7048   0.489   4.395   0.004 -0.7774 -1.0490 -0.3734
   19MOL   C173 7049   0.043   4.321   7.389 -0.5123  0.7746 -0.2450
   19MOL   C174 7050   7.721   4.246   7.464 -0.2990  0.8607  0.1584
   19MOL   C175 7051   7.660   4.139   7.372 -0.8481  0.5579 -0.0403
   19MOL   C176 7052   7.516   4.101   7.411  0.4182 -0.2956  0.0057
   19MOL   C177 7053   7.458   3.980   7.325 -0.1951  0.0439 -0.5109
   19MOL   C178 7054   7.314   3.945   7.369 -0.1472  0.6174 -0.2764
   19MOL   O179 7055   7.777   4.182   7.575  0.2200  0.2066 -0.3349
   19MOL   H180 7056   0.125   4.250   7.377 -1.2266 -0.1588  0.4195
   19MOL   H181 7057   0.009   4.344   7.288  3.0675 -2.1832 -2.2551
   19MOL   H182 7058   7.646   4.310   7.511 -1.0367  1.7670 -2.1928
   19MOL   H183 7059   7.663   4.168   7.267 -0.6825 -1.9163 -0.7394
   19MOL   H184 7060   7.730   4.057   7.358 -0.7391  1.0764 -2.6708
   19MOL   H185 7061   7.516   4.074   7.517  1.1680  3.8443  1.1532
   19MOL   H186 7062   7.443   4.182   7.414  0.0228 -0.6696  0.6305
   19MOL   H187 7063   7.464   3.997   7.218 -3.9290 -2.3488 -1.1811
   19MOL   H188 7064   7.523   3.894   7.336 -0.8881 -0.3415  0.6798
   19MOL   H189 7065   7.250   4.029   7.343 -0.0035  0.9856  0.5716
   19MOL   H190 7066   7.300   3.918   7.474  0.1111  2.9171  0.3676
   19MOL   H191 7067   7.278   3.864   7.306 -0.5534  0.8121 -0.2943
   19MOL   C192 7068   0.043   4.271   7.676  0.3179  0.3290  0.5998
   19MOL   C193 7069   0.010   4.202   0.025 -0.6792 -0.2985 -1.2635
   19MOL   C194 7070   7.642   4.172   0.040 -0.6188 -0.5387 -0.4996
   19MOL   C195 7071   7.610   4.094   0.171 -0.0560 -0.5383  0.0180
   19MOL   C196 7072   7.461   4.067   0.189  0.3896 -0.0058  0.1794
   19MOL   C197 7073   7.433   3.956   0.287 -0.6409 -0.2653 -0.3449
   19MOL   O198 7074   0.046   4.301   0.128  0.2189 -0.5728  0.6048
   19MOL   H199 7075   0.147   4.294   7.656  0.0622  0.6165 -0.4090
   19MOL   H200 7076   7.776   4.366   7.668  1.3149  1.0129  1.9726
   19MOL   H201 7077   0.056   4.104   0.032 -1.8754 -0.8428 -0.8064
   19MOL   H202 7078   7.588   4.267   0.038  0.3974  0.0387 -0.5526
   19MOL   H203 7079   7.602   4.128   7.734 -0.5526 -0.2049 -0.6887
   19MOL   H204 7080   7.654   4.140   0.260 -1.5945 -0.2018  0.6132
   19MOL   H205 7081   7.663   4.000   0.154 -2.6098 -1.2409 -4.9260
   19MOL   H206 7082   7.416   4.163   0.212  0.7302  0.1808  0.0656
   19MOL   H207 7083   7.412   4.052   0.093 -0.9778 -0.4886  0.9383
   19MOL   H208 7084   7.484   3.863   0.263  2.1629  0.3370  2.8021
   19MOL   H209 7085   7.463   3.981   0.389  0.6095  1.0104 -0.9973
   19MOL   H210 7086   7.326   3.943   0.301 -0.9967  2.9115  0.4153
   19MOL   C211 7087   0.185   4.309   0.163  0.3994  0.1641  0.0845
   19MOL   C212 7088   0.208   4.404   0.288 -0.1086 -0.2902 -0.5938
   19MOL   C213 7089   0.223   4.544   0.237 -0.1100  0.3956 -0.3476
   19MOL   C214 7090   0.209   4.658   0.336  0.4169  0.2321 -1.1159
   19MOL   C215 7091   0.205   4.801   0.268 -0.3304  0.4076 -0.1300
   19MOL   C216 7092   0.237   4.919   0.367  0.3595 -0.1057 -0.2585
   19MOL   O217 7093   0.315   4.373   0.376 -0.6947  0.3707  0.3234
   19MOL   H218 7094   0.229   4.347   0.071  1.2480 -0.1403  0.3606
   19MOL   H219 7095   0.224   4.211   0.191  0.7947  1.1856  3.4220
   19MOL   H220 7096   0.122   4.401   0.356  0.0501 -0.8395 -0.4154
   19MOL   H221 7097   0.319   4.548   0.186 -0.3505 -1.3199 -0.9471
   19MOL   H222 7098   0.147   4.554   0.159 -0.2222  1.1036 -0.1536
   19MOL   H223 7099   0.119   4.645   0.397  0.6154  0.2594 -0.8144
   19MOL   H224 7100   0.293   4.642   0.405  0.4566  0.8302 -1.0175
   19MOL   H225 7101   0.295   4.806   0.206  0.3677 -1.5362  0.7072
   19MOL   H226 7102   0.119   4.829   0.206 -1.3517  1.2714  1.6599
   19MOL   H227 7103   0.155   4.941   0.434  0.0953 -0.8500 -0.3350
   19MOL   H228 7104   0.259   5.007   0.306 -0.2611 -0.6928 -1.3507
   19MOL   H229 7105   0.317   4.888   0.434  1.7067 -0.4968 -1.9890
   19MOL   C230 7106   0.316   4.239   0.429 -0.0881 -0.4061 -0.6757
   19MOL   C231 7107   0.398   4.226   0.563 -0.3927  0.2348  0.4552
   19MOL   C232 7108   0.450   4.084   0.597 -0.1065  0.6103 -0.4056
   19MOL   C233 7109   0.563   4.093   0.693  0.0749  0.4214 -0.2496
   19MOL   C234 7110   0.615   3.953   0.715  0.2054  0.2643 -0.0776
   19MOL   C235 7111   0.745   3.940   0.810  0.0016  0.0256 -0.3671
   19MOL   O236 7112   0.321   4.273   0.674 -0.4198 -0.0029 -0.8593
   19MOL   H237 7113   0.214   4.201   0.426 -0.3194  0.0924  0.7066
   19MOL   H238 7114   0.371   4.171   0.364 -0.3676 -1.0397 -0.2541
   19MOL   H239 7115   0.490   4.283   0.548  0.6613 -1.3732  0.6152
   19MOL   H240 7116   0.489   4.054   0.500 -0.1076 -0.3165 -0.1261
   19MOL   H241 7117   0.372   4.013   0.625 -0.7015  0.3541 -2.5971
   19MOL   H242 7118   0.522   4.128   0.788  0.1059  0.6774 -0.3317
   19MOL   H243 7119   0.644   4.163   0.674  1.1625 -0.5625  0.6036
   19MOL   H244 7120   0.526   3.903   0.752 -0.2080  1.8131  1.1047
   19MOL   H245 7121   0.634   3.913   0.616  0.6757  1.5975 -0.5419
   19MOL   H246 7122   0.748   3.836   0.845  0.8107  0.0652 -0.3064
   19MOL   H247 7123   0.732   4.005   0.896  0.9869 -1.3710  0.8609
   19MOL   H248 7124   0.839   3.951   0.756  0.9422  1.0420  1.4576
   19MOL   C249 7125   0.302   4.414   0.681 -0.2841 -0.1739 -0.1802
   19MOL   C250 7126   0.215   4.443   0.809 -0.4787 -0.2978  0.0952
   19MOL   C251 7127   0.183   4.593   0.826  0.3993 -0.2397 -0.1420
   19MOL   C252 7128   0.054   4.611   0.912  0.0397  0.4448 -0.2513
   19MOL   C253 7129   7.783   4.750   0.897  0.4870 -0.5994  0.1757
   19MOL   C254 7130   7.720   4.787   0.764  0.0633 -0.8424  0.5452
   19MOL   O255 7131   0.280   4.397   0.928  0.0910 -0.2496 -0.3916
   19MOL   H256 7132   0.402   4.457   0.691 -0.8810  0.6689  2.7723
   19MOL   H257 7133   0.258   4.460   0.593 -0.2954  0.0983 -0.0341
   19MOL   H258 7134   0.122   4.394   0.782 -0.8762 -0.6218  2.0352
   19MOL   H259 7135   0.268   4.644   0.870  0.7385 -0.2872 -0.7337
   19MOL   H260 7136   0.174   4.649   0.733 -0.3760  1.0788  0.7298
   19MOL   H261 7137   7.769   4.531   0.887 -0.9352  0.8982  0.9970
   19MOL   H262 7138   0.068   4.593   1.018  3.0911  1.4840 -0.4518
   19MOL   H263 7139   7.719   4.776   0.982  1.3498 -1.3464  1.0744
   19MOL   H264 7140   0.082   4.819   0.901 -0.5287  0.5764  2.5250
   19MOL   H265 7141   0.007   4.799   0.683 -1.3764  1.8391 -0.4000
   19MOL   H266 7142   7.658   4.877   0.757  0.1275 -0.9816 -2.0862
   19MOL   H267 7143   7.656   4.706   0.731 -0.3532 -0.4777  0.4548
   19MOL   C268 7144   0.230   4.265   0.965 -0.3492 -0.7088 -0.6397
   19MOL   C269 7145   0.300   4.212   1.086  0.0121  0.1396  0.9295
   19MOL   C270 7146   0.255   4.063   1.110 -0.1749 -1.3481  0.3380
   19MOL   C271 7147   0.303   3.965   1.003 -0.3201 -0.1915  0.5998
   19MOL   C272 7148   0.272   3.817   1.040 -0.4667 -0.3738 -0.4074
   19MOL   C273 7149   0.309   3.713   0.933 -0.7306  0.4883  0.5249
   19MOL   O274 7150   0.263   4.292   1.203 -0.1695 -0.4571 -0.1474
   19MOL   H275 7151   0.248   4.198   0.880 -2.3444 -0.4666 -1.2692
   19MOL   H276 7152   0.124   4.263   0.988  0.1048  1.0630  1.7955
   19MOL   H277 7153   0.409   4.211   1.078  0.0201 -1.9987  0.9118
   19MOL   H278 7154   0.306   4.022   1.197 -0.1439  1.4559  1.7000
   19MOL   H279 7155   0.146   4.060   1.116 -0.2733  1.4577  1.0835
   19MOL   H280 7156   0.245   3.990   0.914 -1.4243 -0.1072  1.3374
   19MOL   H281 7157   0.407   3.994   0.985 -0.4592  1.1716  1.8408
   19MOL   H282 7158   0.324   3.784   1.130  1.0384  0.0836 -1.0948
   19MOL   H283 7159   0.166   3.799   1.058 -0.7536  0.8399 -0.8562
   19MOL   H284 7160   0.404   3.749   0.893 -1.1041  0.7454 -0.1441
   19MOL   H285 7161   0.317   3.609   0.964 -0.0076 -0.3063 -2.2419
   19MOL   H286 7162   0.242   3.717   0.848 -0.1905 -1.4187 -0.0005
   19MOL   C287 7163   0.348   4.288   1.322  0.3772  0.1241  0.5487
   19MOL   C288 7164   0.475   4.372   1.303 -1.2818 -0.2810 -0.2368
   19MOL   C289 7165   0.456   4.507   1.235 -0.3760  0.2744  0.0219
   19MOL   C290 7166   0.328   4.596   1.273  0.1550  0.3241 -0.4533
   19MOL   C291 7167   0.327   4.718   1.183 -0.4211  0.3013 -0.3568
   19MOL   C292 7168   0.219   4.822   1.222  0.0916  0.4237  0.0846
   19MOL   O293 7169   0.566   4.296   1.228 -0.6094 -0.4570 -0.1779
   19MOL   H294 7170   0.348   4.184   1.354  2.2329 -0.0703 -0.0379
   19MOL   H295 7171   0.284   4.327   1.401  2.2525 -0.5955  2.4697
   19MOL   H296 7172   0.504   4.391   1.407  0.7757 -0.3495 -0.7718
   19MOL   H297 7173   0.548   4.566   1.236  0.4080 -0.8259 -2.9233
   19MOL   H298 7174   0.444   4.484   1.130 -2.1375  0.6452  0.1313
   19MOL   H299 7175   0.235   4.539   1.278  0.7987 -0.6364  1.0554
   19MOL   H300 7176   0.356   4.622   1.375 -1.1737  2.2038 -0.5461
   19MOL   H301 7177   0.287   4.675   1.092  0.5272  1.1697 -1.1930
   19MOL   H302 7178   0.424   4.762   1.162 -0.6785  0.5313 -1.0580
   19MOL   H303 7179   0.258   4.871   1.311 -1.1680  1.2527  0.1873
   19MOL   H304 7180   0.206   4.898   1.145  0.7008 -0.8192 -1.2808
   19MOL   H305 7181   0.130   4.767   1.252  0.8233 -0.1934  1.1842
   19MOL   C306 7182   0.700   4.314   1.253 -0.1954  0.1923  0.1136
   19MOL   C307 7183   0.777   4.256   1.127  0.4663 -1.2246 -0.2703
   19MOL   C308 7184   0.922   4.215   1.159 -0.1037  0.2588 -0.0553
   19MOL   C309 7185   1.003   4.171   1.033  0.0346 -0.4802  0.3111
   19MOL   C310 7186   1.142   4.110   1.078 -0.2041  0.0726 -0.5055
   19MOL   C311 7187   1.228   4.181   1.174 -0.6777 -0.2666  0.4574
   19MOL   O312 7188   0.799   4.363   1.031 -0.3384  0.2838 -0.3373
   19MOL   H313 7189   0.732   4.417   1.262 -0.5343  0.2925  0.1583
   19MOL   H314 7190   0.726   4.266   1.348 -0.4922 -1.3604 -0.5628
   19MOL   H315 7191   0.735   4.165   1.085  1.6821 -0.6107 -2.9050
   19MOL   H316 7192   0.922   4.128   1.224  0.1315  0.4287  0.1684
   19MOL   H317 7193   0.973   4.292   1.215 -1.1090 -0.6655  2.2262
   19MOL   H318 7194   0.952   4.102   0.966  0.0390 -0.6148  0.4479
   19MOL   H319 7195   1.021   4.257   0.968 -1.2961 -2.3545 -2.6233
   19MOL   H320 7196   1.205   4.096   0.990 -1.4084  0.6373 -1.4737
   19MOL   H321 7197   1.121   4.016   1.129  0.5963 -0.4907 -1.2046
   19MOL   H322 7198   1.179   4.206   1.268 -1.7792 -1.0953  0.1102
   19MOL   H323 7199   1.317   4.120   1.186 -0.7110 -0.3375  0.3467
   19MOL   H324 7200   1.280   4.268   1.134  0.2047 -0.8953  0.2161
   19MOL   C325 7201   0.682   4.394   0.951 -0.4186 -0.0921  0.0433
   19MOL   C326 7202   0.710   4.469   0.818 -0.2868 -0.0870  0.0183
   19MOL   C327 7203   0.851   4.446   0.753  0.6044 -0.3950 -0.3656
   19MOL   C328 7204   0.872   4.310   0.685 -0.1296  0.0626 -0.2230
   19MOL   C329 7205   1.019   4.284   0.625 -0.1514  1.2278 -0.0053
   19MOL   C330 7206   1.087   4.172   0.693 -0.4813  0.6756  0.1211
   19MOL   O331 7207   0.704   4.610   0.847  0.1353  0.1484  0.4908
   19MOL   H332 7208   0.621   4.451   1.021 -2.7190 -0.7826 -1.3537
   19MOL   H333 7209   0.628   4.301   0.935  2.4672 -1.3504 -2.8362
   19MOL   H334 7210   0.648   4.441   0.733  0.7278  0.9635 -1.0696
   19MOL   H335 7211   0.866   4.529   0.683 -1.3851  2.7250  2.7509
   19MOL   H336 7212   0.922   4.471   0.832 -1.3763  1.5039  0.8911
   19MOL   H337 7213   0.839   4.223   0.741 -0.3543 -0.7504 -1.5981
   19MOL   H338 7214   0.807   4.318   0.598  0.9991  1.7210 -0.9503
   19MOL   H339 7215   1.013   4.255   0.520  0.2837  0.4520  0.1773
   19MOL   H340 7216   1.082   4.373   0.633 -1.8654  2.3675  0.8941
   19MOL   H341 7217   1.128   4.203   0.789  0.4040 -4.8382  1.7496
   19MOL   H342 7218   1.032   4.079   0.707 -0.1861  0.4766 -0.0318
   19MOL   H343 7219   1.182   4.140   0.650  0.6425  2.2406  1.3712
   19MOL   C344 7220   0.573   4.662   0.857  0.2315  0.0257  0.5836
   19MOL   C345 7221   0.578   4.818   0.853  0.0389 -0.5161  0.1941
   19MOL   C346 7222   0.444   4.893   0.822  0.2050 -0.4623 -0.4402
   19MOL   C347 7223   0.451   5.043   0.794 -0.1937  0.4738 -0.3225
   19MOL   C348 7224   0.326   5.104   0.725 -0.9795 -0.9791 -0.7904
   19MOL   C349 7225   0.355   5.256   0.693 -0.4655  0.4150  0.5038
   19MOL   O350 7226   0.625   4.849   0.981  0.0804 -0.3281 -0.0790
   19MOL   H351 7227   0.534   4.623   0.950 -0.0779 -1.0272  0.0144
   19MOL   H352 7228   0.498   4.632   0.783 -1.5964  0.7062  2.1243
   19MOL   H353 7229   0.652   4.857   0.783 -0.4211 -1.7172 -0.9765
   19MOL   H354 7230   0.385   4.872   0.910  1.5083  0.0676  0.5774
   19MOL   H355 7231   0.396   4.846   0.736  2.5075 -0.6659 -1.6508
   19MOL   H356 7232   0.538   5.069   0.735  0.3223 -0.6568 -0.0584
   19MOL   H357 7233   0.478   5.106   0.879  0.6548  0.6285 -0.7038
   19MOL   H358 7234   0.245   5.094   0.797 -2.0760 -1.3399 -2.0498
   19MOL   H359 7235   0.297   5.049   0.636 -0.8004 -0.2953 -1.2789
   19MOL   H360 7236   0.392   5.309   0.780  0.4578  1.4105 -0.4786
   19MOL   H361 7237   0.270   5.313   0.656  1.2361  3.4234  1.0674
   19MOL   H362 7238   0.434   5.272   0.620  1.4043  0.7393  2.5490
   19MOL   C363 7239   0.753   4.926   0.987  0.2909  0.5811  0.3909
   19MOL   C364 7240   0.874   4.834   1.021  0.3205  0.3652  0.1841
   19MOL   C365 7241   0.842   4.732   1.131  0.0122 -0.2388 -0.1689
   19MOL   C366 7242   0.956   4.728   1.227 -0.5901  0.0365  0.1962
   19MOL   C367 7243   0.944   4.622   1.332 -0.8109  0.0306  0.2039
   19MOL   C368 7244   1.057   4.641   1.436 -0.3933 -0.1443  0.2156
   19MOL   O369 7245   0.927   4.777   0.899 -0.1707 -0.0403  0.0386
   19MOL   H370 7246   0.757   5.009   1.057  0.0497  1.0529 -0.1487
   19MOL   H371 7247   0.776   4.978   0.893  0.3748 -0.3465 -0.1079
   19MOL   H372 7248   0.956   4.895   1.061 -0.0145  0.3811  0.8620
   19MOL   H373 7249   0.754   4.755   1.191  1.2416 -1.1149  2.0267
   19MOL   H374 7250   0.841   4.627   1.100  0.9590 -0.3713  0.2476
   19MOL   H375 7251   1.046   4.700   1.171 -1.1728 -0.5739 -0.4483
   19MOL   H376 7252   0.967   4.825   1.274  0.2223  0.8960 -1.6923
   19MOL   H377 7253   0.851   4.630   1.388 -0.7339 -1.1017  0.4982
   19MOL   H378 7254   0.958   4.526   1.282  0.8773  0.0808  0.5396
   19MOL   H379 7255   1.156   4.629   1.392 -0.1287  1.3482  0.3953
   19MOL   H380 7256   1.053   4.742   1.476  0.6186 -0.2898  0.7165
   19MOL   H381 7257   1.041   4.569   1.517 -0.7768  0.3653  0.5913
   19MOL   H382 7258   0.867   4.718   0.857 -0.8375  0.6064  0.0830
   20MOL     C1 7259   6.153   0.654   0.190 -0.1219  0.1007  0.7701
   20MOL     C2 7260   6.231   0.779   0.225  0.1877 -0.1160 -0.3692
   20MOL     C3 7261   6.287   0.769   0.377 -0.6381  0.7172 -0.1742
   20MOL     C4 7262   6.200   0.742   0.496  0.3812  0.2665 -0.5929
   20MOL     C5 7263   6.284   0.723   0.624 -0.3664  0.4212 -0.2693
   20MOL     C6 7264   6.206   0.727   0.753  0.0886 -0.0000 -0.3906
   20MOL     O7 7265   6.344   0.781   0.141 -0.0180  0.1665 -0.0117
   20MOL     H8 7266   6.221   0.568   0.196 -1.1963 -0.9295 -1.3951
   20MOL     H9 7267   6.124   0.663   0.085  1.3318  0.3303  0.3660
   20MOL    H10 7268   6.162   0.862   0.207 -0.0060 -0.5765 -1.7856
   20MOL    H11 7269   6.364   0.693   0.385 -1.4290 -0.1159 -0.4497
   20MOL    H12 7270   6.333   0.867   0.386 -0.5742  0.5090  1.8810
   20MOL    H13 7271   6.137   0.830   0.512  0.3142  0.3499 -1.2905
   20MOL    H14 7272   6.130   0.659   0.485  0.0711  0.3593  0.6789
   20MOL    H15 7273   6.343   0.632   0.622  1.4552  1.5822 -0.2847
   20MOL    H16 7274   6.365   0.795   0.635  1.7642 -2.1141  1.2005
   20MOL    H17 7275   6.269   0.690   0.834 -0.1176 -2.0363 -1.1264
   20MOL    H18 7276   6.173   0.828   0.776  2.8739  0.5438  1.5630
   20MOL    H19 7277   6.116   0.665   0.747 -1.3597  2.0767 -0.4773
   20MOL    H20 7278   6.061   0.647   0.248  0.8971 -1.3899  2.2485
   20MOL    C21 7279   6.329   0.878   0.035 -0.1312 -0.1353  0.4679
   20MOL    C22 7280   6.426   0.844   7.706  0.0547  0.3985  0.1394
   20MOL    C23 7281   6.392   0.933   7.575  0.0527  0.2527  0.0690
   20MOL    C24 7282   6.493   0.919   7.462  0.5153  0.0475 -0.0123
   20MOL    C25 7283   6.497   1.034   7.369  0.4032 -0.3127  0.2941
   20MOL    C26 7284   6.591   1.012   7.249  0.2981 -0.6377  0.0192
   20MOL    O27 7285   6.560   0.863   7.749 -0.2131  0.7271 -0.1263
   20MOL    H28 7286   6.230   0.873   7.774  0.8611 -1.3427 -1.5914
   20MOL    H29 7287   6.333   0.978   0.079  0.3849 -0.1417  0.4345
   20MOL    H30 7288   6.420   0.737   7.687  2.8779  0.0084  1.2037
   20MOL    H31 7289   6.400   1.038   7.603  2.2025  0.3442 -0.8272
   20MOL    H32 7290   6.289   0.914   7.546 -0.2884 -0.3313  1.5931
   20MOL    H33 7291   6.471   0.825   7.410 -1.6761  1.7078 -2.1581
   20MOL    H34 7292   6.596   0.915   7.500  1.2011 -2.3749 -1.9641
   20MOL    H35 7293   6.398   1.053   7.326  1.0583  0.4793 -0.8820
   20MOL    H36 7294   6.518   1.128   7.420  0.7028 -0.0210 -0.3529
   20MOL    H37 7295   6.575   0.917   7.199 -1.2653 -0.3888 -0.0079
   20MOL    H38 7296   6.694   1.037   7.273 -0.1411  1.7618 -0.4073
   20MOL    H39 7297   6.559   1.088   7.177  0.8292  0.3262  0.7845
   20MOL    C40 7298   6.613   0.740   0.017  0.6981 -0.3587 -0.1667
   20MOL    C41 7299   6.755   0.768   0.079 -0.0424  0.2439 -0.0431
   20MOL    C42 7300   6.846   0.645   0.093  0.8755  0.4636  1.0126
   20MOL    C43 7301   6.988   0.682   0.134  0.4325  0.7878  0.0889
   20MOL    C44 7302   7.087   0.576   0.069  0.0160  0.9089 -0.4719
   20MOL    C45 7303   7.232   0.591   0.126  0.5545  0.6778  0.2948
   20MOL    O46 7304   6.728   0.822   0.207 -0.1727  0.3510 -0.2922
   20MOL    H47 7305   6.636   0.666   7.726  0.2309 -0.3219 -0.3429
   20MOL    H48 7306   6.546   0.688   0.085 -0.7027  0.5255 -0.8543
   20MOL    H49 7307   6.811   0.842   0.021 -1.0016 -0.0707 -1.4216
   20MOL    H50 7308   6.790   0.576   0.156 -1.6641 -0.2032 -1.8684
   20MOL    H51 7309   6.848   0.578   0.008 -0.1019  0.0171  1.3277
   20MOL    H52 7310   7.008   0.684   0.241  0.7655  1.2001  0.0192
   20MOL    H53 7311   7.005   0.776   0.081 -2.3978  0.5032 -1.4218
   20MOL    H54 7312   7.068   0.476   0.107 -1.1077  1.4936  0.5451
   20MOL    H55 7313   7.093   0.571   7.746  1.2691  1.3554 -0.4388
   20MOL    H56 7314   7.280   0.672   0.070 -0.3596 -0.2761 -1.8964
   20MOL    H57 7315   7.235   0.601   0.235 -1.1114 -0.9331  0.5016
   20MOL    H58 7316   7.292   0.506   0.093 -0.2270 -0.5098  1.8606
   20MOL    C59 7317   6.803   0.943   0.230 -0.5206  0.1173 -0.0963
   20MOL    C60 7318   6.752   0.996   0.369  0.0770  0.2272  0.1756
   20MOL    C61 7319   6.605   1.051   0.350 -0.5313  0.4665 -0.9333
   20MOL    C62 7320   6.548   1.116   0.478 -0.3033  0.1391 -0.2898
   20MOL    C63 7321   6.406   1.180   0.482  0.1822  0.2825 -0.4799
   20MOL    C64 7322   6.363   1.219   0.627  0.3146  0.2269  0.5273
   20MOL    O65 7323   6.747   0.879   0.457 -0.4414  0.3415 -0.1113
   20MOL    H66 7324   6.772   1.009   0.149 -1.5757 -0.9451 -0.5869
   20MOL    H67 7325   6.911   0.934   0.234 -0.7255 -1.7620  1.9007
   20MOL    H68 7326   6.823   1.069   0.407  1.0467  0.0728 -1.3065
   20MOL    H69 7327   6.547   0.960   0.331  1.0513 -0.6728 -0.4501
   20MOL    H70 7328   6.601   1.128   0.274  1.2758  0.8705 -0.6423
   20MOL    H71 7329   6.621   1.194   0.500  0.5742 -1.2037  1.7499
   20MOL    H72 7330   6.553   1.037   0.553 -2.1149  0.8381  0.5803
   20MOL    H73 7331   6.331   1.120   0.430 -0.6421  0.1752  0.7901
   20MOL    H74 7332   6.406   1.278   0.435 -0.9276 -0.0758 -1.2472
   20MOL    H75 7333   6.270   1.275   0.618  0.5111  0.3419 -0.8557
   20MOL    H76 7334   6.343   1.130   0.687 -1.4012 -1.0465 -1.8575
   20MOL    H77 7335   6.448   1.276   0.667  1.0407  0.3373 -1.1143
   20MOL    C78 7336   6.870   0.836   0.501  0.9708  0.1954  0.5634
   20MOL    C79 7337   6.837   0.710   0.586  0.1118  0.2008 -0.0037
   20MOL    C80 7338   6.728   0.619   0.524  0.5467  0.4942  0.4441
   20MOL    C81 7339   6.718   0.482   0.603  0.0630  0.1073  0.5564
   20MOL    C82 7340   6.638   0.382   0.522 -0.2263  0.0240  0.5337
   20MOL    C83 7341   6.710   0.318   0.401 -0.1384 -0.6554  0.7679
   20MOL    O84 7342   6.820   0.758   0.718  0.3335 -0.1618 -0.5154
   20MOL    H85 7343   6.915   0.917   0.558  0.6729  1.3286 -0.7715
   20MOL    H86 7344   6.942   0.811   0.423  0.7700  1.8087 -0.1715
   20MOL    H87 7345   6.930   0.657   0.603  0.5659  1.6559  2.2604
   20MOL    H88 7346   6.635   0.676   0.517  0.0157  0.0815  3.3154
   20MOL    H89 7347   6.761   0.600   0.422 -0.5725 -0.7684  0.2984
   20MOL    H90 7348   6.659   0.500   0.693  1.4711 -0.0393  1.5117
   20MOL    H91 7349   6.818   0.450   0.632  0.4850  0.0777 -0.8784
   20MOL    H92 7350   6.610   0.306   0.595  1.1822 -2.2463 -1.2140
   20MOL    H93 7351   6.548   0.441   0.503 -0.1442 -0.2611 -0.7835
   20MOL    H94 7352   6.742   0.405   0.344 -1.2708 -0.4758  0.3968
   20MOL    H95 7353   6.646   0.263   0.332  0.1393 -0.4743  0.3686
   20MOL    H96 7354   6.798   0.258   0.426  1.4099  0.6466 -1.3901
   20MOL    C97 7355   6.704   0.849   0.731 -0.2674 -0.4158 -0.3889
   20MOL    C98 7356   6.657   0.850   0.880  0.2701  0.0505 -0.1752
   20MOL    C99 7357   6.536   0.944   0.908 -0.2154  0.3651  0.0524
   20MOL   C100 7358   6.505   0.985   1.049  0.1206 -0.0446 -0.1692
   20MOL   C101 7359   6.387   1.085   1.069  0.3935  0.2020 -0.2378
   20MOL   C102 7360   6.320   1.083   1.205 -0.0846  0.1167 -0.3912
   20MOL   O103 7361   6.619   0.724   0.925  0.2234  0.2613 -0.1010
   20MOL   H104 7362   6.617   0.813   0.676 -2.3495  0.3331  2.3211
   20MOL   H105 7363   6.727   0.954   0.715  0.5826 -0.3532  1.1887
   20MOL   H106 7364   6.747   0.888   0.929  0.2032 -0.2690  0.1958
   20MOL   H107 7365   6.442   0.897   0.878  0.7536 -0.2545 -2.1061
   20MOL   H108 7366   6.555   1.035   0.850 -0.8379  0.8778  0.6422
   20MOL   H109 7367   6.599   1.026   1.088 -0.5508  2.2848 -0.8908
   20MOL   H110 7368   6.479   0.904   1.116 -2.7916  2.1932  1.5209
   20MOL   H111 7369   6.320   1.074   0.984 -0.0144  0.7451  0.0175
   20MOL   H112 7370   6.427   1.185   1.052 -0.5650  0.1812 -2.7150
   20MOL   H113 7371   6.389   1.120   1.280  1.0105  0.7906 -1.7077
   20MOL   H114 7372   6.223   1.133   1.206 -0.7977 -1.2662  1.1522
   20MOL   H115 7373   6.297   0.978   1.225  0.8101 -0.4960 -2.4792
   20MOL   C116 7374   6.720   0.631   0.975 -0.4062  0.7381 -0.3692
   20MOL   C117 7375   6.660   0.510   1.054 -0.4095  0.3105 -0.7338
   20MOL   C118 7376   6.757   0.436   1.142 -0.3864  0.3307  0.0469
   20MOL   C119 7377   6.692   0.331   1.230 -0.0637 -0.2242 -0.5074
   20MOL   C120 7378   6.783   0.276   1.336 -0.4842 -0.1784 -0.0351
   20MOL   C121 7379   6.824   0.372   1.449 -1.1486 -0.0044  0.1105
   20MOL   O122 7380   6.591   0.423   0.965 -0.3234  0.2795  0.0204
   20MOL   H123 7381   6.788   0.594   0.899 -0.2914 -2.8579  1.3870
   20MOL   H124 7382   6.785   0.688   1.041 -1.4761  0.9667  0.5089
   20MOL   H125 7383   6.590   0.555   1.124  0.4787  1.2428 -0.4279
   20MOL   H126 7384   6.844   0.396   1.090 -1.1747 -0.5116 -0.6469
   20MOL   H127 7385   6.794   0.511   1.212 -0.1742 -2.0687  2.6190
   20MOL   H128 7386   6.660   0.252   1.162 -1.3352 -0.2252  0.0660
   20MOL   H129 7387   6.607   0.377   1.282  0.4072 -0.8612  0.8529
   20MOL   H130 7388   6.742   0.185   1.381 -1.2731 -0.4268 -1.2420
   20MOL   H131 7389   6.878   0.241   1.296  0.0801  1.1751  0.1129
   20MOL   H132 7390   6.736   0.420   1.493  0.5024  0.0041  3.6535
   20MOL   H133 7391   6.889   0.317   1.518 -0.5730  1.9867  1.2232
   20MOL   H134 7392   6.880   0.451   1.400  3.6762 -3.0470  0.3986
   20MOL   C135 7393   6.452   0.435   0.964 -0.4187 -0.6652 -0.5362
   20MOL   C136 7394   6.393   0.345   0.855 -0.0814  0.0381  0.5855
   20MOL   C137 7395   6.244   0.376   0.834  0.3114 -0.9642 -0.2374
   20MOL   C138 7396   6.183   0.305   0.701  0.1765 -0.1571 -0.1165
   20MOL   C139 7397   6.265   0.331   0.574  0.4653  0.1983  0.1707
   20MOL   C140 7398   6.195   0.272   0.456 -0.1544 -0.9006  0.7858
   20MOL   O141 7399   6.400   0.210   0.889  0.5009  0.4730  0.3084
   20MOL   H142 7400   6.397   0.414   1.056  1.4728  3.1401  1.5411
   20MOL   H143 7401   6.434   0.540   0.944 -0.1245 -0.5305 -0.0946
   20MOL   H144 7402   6.441   0.363   0.758 -4.1175  0.0889 -1.5309
   20MOL   H145 7403   6.197   0.354   0.930  2.5754 -0.5890  0.9888
   20MOL   H146 7404   6.229   0.484   0.828 -1.2874 -1.1906 -0.6831
   20MOL   H147 7405   6.076   0.324   0.695 -0.0663 -1.9165 -2.0922
   20MOL   H148 7406   6.192   0.199   0.725 -1.6179 -0.5656 -1.1404
   20MOL   H149 7407   6.361   0.280   0.585 -0.0517 -0.6212  0.9542
   20MOL   H150 7408   6.278   0.438   0.561  0.0716  0.0103 -1.9769
   20MOL   H151 7409   6.088   0.293   0.459  0.1710  0.8801  0.7553
   20MOL   H152 7410   6.236   0.306   0.361  0.8402  0.8634  1.8303
   20MOL   H153 7411   6.205   0.164   0.459 -1.4174 -1.1563 -2.1403
   20MOL   C154 7412   6.528   0.147   0.891  0.2116 -0.0290  0.1405
   20MOL   C155 7413   6.518   7.785   0.853  0.0293 -0.3705 -0.1859
   20MOL   C156 7414   6.663   7.718   0.860 -0.2423 -0.6078  0.9857
   20MOL   C157 7415   6.669   7.564   0.863  0.0710  0.1884  0.0891
   20MOL   C158 7416   6.810   7.506   0.852 -0.9168  0.8967 -0.0504
   20MOL   C159 7417   6.802   7.348   0.867 -0.0091 -0.5064  0.0079
   20MOL   O160 7418   6.428   7.704   0.932  0.5901 -0.3183  0.7610
   20MOL   H161 7419   6.553   0.163   0.996  0.6580 -1.6344  0.2948
   20MOL   H162 7420   6.600   0.198   0.826 -0.8704  0.4772 -0.6835
   20MOL   H163 7421   6.493   7.776   0.747 -1.5329  0.3561  0.1072
   20MOL   H164 7422   6.714   7.753   0.950  2.0656  2.0815 -1.2686
   20MOL   H165 7423   6.718   7.753   0.772  0.1175  2.7012  2.4286
   20MOL   H166 7424   6.606   7.523   0.785  1.6407 -0.9917 -0.5892
   20MOL   H167 7425   6.619   7.537   0.956  1.0350  3.5975  1.6965
   20MOL   H168 7426   6.841   7.522   0.748  0.9287 -0.3982  0.2825
   20MOL   H169 7427   6.884   7.549   0.919 -0.7853 -0.8488  0.9559
   20MOL   H170 7428   6.735   7.302   0.795 -0.0211 -0.8080  0.2119
   20MOL   H171 7429   6.759   7.316   0.961 -0.2651  2.0214  0.7937
   20MOL   H172 7430   6.900   7.303   0.849  1.0339  0.3288  3.2624
   20MOL   C173 7431   6.292   7.715   0.895  0.2238  0.8067  0.3454
   20MOL   C174 7432   6.207   7.622   0.983 -0.0431 -0.3383 -0.5257
   20MOL   C175 7433   6.054   7.654   0.972  0.5351  0.0165  0.7465
   20MOL   C176 7434   5.973   7.600   1.089  0.3774 -0.2097  0.2364
   20MOL   C177 7435   5.827   7.608   1.076  0.7647  0.3186 -0.4330
   20MOL   C178 7436   5.762   7.523   0.969 -0.3712 -1.0677 -0.7936
   20MOL   O179 7437   6.210   7.484   0.956 -0.4905  0.1060 -0.1867
   20MOL   H180 7438   6.277   7.675   0.795  1.8328 -1.4408  0.9592
   20MOL   H181 7439   6.251   0.030   0.903 -0.6904  0.5240 -0.7033
   20MOL   H182 7440   6.235   7.636   1.088 -0.8421 -2.2088 -0.0320
   20MOL   H183 7441   6.031   7.760   0.977  0.6658  0.0068  1.5166
   20MOL   H184 7442   6.018   7.625   0.873 -0.9184 -0.4834  1.3982
   20MOL   H185 7443   6.002   7.498   1.116  0.3517 -0.0209  0.9912
   20MOL   H186 7444   6.005   7.667   1.169 -0.5780 -0.6975  1.0346
   20MOL   H187 7445   5.787   7.585   1.174 -0.0050  0.0127 -0.8174
   20MOL   H188 7446   5.794   7.706   1.039  1.0725  0.1163 -1.2632
   20MOL   H189 7447   5.659   7.497   0.997 -0.3232 -0.5525 -0.1265
   20MOL   H190 7448   5.809   7.425   0.958 -0.1040 -1.2601  1.8859
   20MOL   H191 7449   5.768   7.575   0.873  0.4103  1.7414  0.7326
   20MOL   C192 7450   6.340   7.433   0.989 -0.3256  0.1379 -0.3379
   20MOL   C193 7451   6.323   7.284   1.025 -0.1831 -0.9764  0.0436
   20MOL   C194 7452   6.452   7.213   1.064 -0.1816 -0.0292  0.1688
   20MOL   C195 7453   6.538   7.261   1.186  0.0508  0.1092  0.5044
   20MOL   C196 7454   6.464   7.272   1.320  0.3110  0.2972 -1.0757
   20MOL   C197 7455   6.548   7.311   1.449 -0.1608  0.0601  0.9591
   20MOL   O198 7456   6.285   7.206   0.915  0.7184 -0.4295  0.1024
   20MOL   H199 7457   6.408   7.439   0.904 -0.2793 -0.5636 -0.3514
   20MOL   H200 7458   6.393   7.471   1.076  0.7427 -1.7779 -0.1257
   20MOL   H201 7459   6.260   7.269   1.113  0.1979 -1.5247  0.2284
   20MOL   H202 7460   6.434   7.108   1.084 -2.5365  0.0509 -1.2892
   20MOL   H203 7461   6.521   7.213   0.979  1.5172  0.8605  1.5127
   20MOL   H204 7462   6.580   7.360   1.168  1.1304 -0.2490  0.9692
   20MOL   H205 7463   6.625   7.196   1.194  0.2473  0.2627 -0.3464
   20MOL   H206 7464   6.390   7.352   1.316 -0.4787 -0.3216  0.3061
   20MOL   H207 7465   6.409   7.179   1.342 -0.7095  0.8122 -1.4014
   20MOL   H208 7466   6.495   7.298   1.543  0.0123 -1.5101  0.8522
   20MOL   H209 7467   6.633   7.244   1.463  0.2709 -0.1730 -2.2628
   20MOL   H210 7468   6.588   7.412   1.443 -0.6057  0.1288 -1.4671
   20MOL   C211 7469   6.158   7.230   0.851  0.5454  0.4742  0.1802
   20MOL   C212 7470   6.081   7.103   0.796 -0.8812  0.0652 -0.4609
   20MOL   C213 7471   6.026   7.126   0.653  0.1816  0.1986 -0.3812
   20MOL   C214 7472   5.947   6.994   0.612  0.4534  0.2382 -0.0821
   20MOL   C215 7473   5.923   6.973   0.462 -0.1090 -0.1898 -0.0649
   20MOL   C216 7474   5.881   6.831   0.416  0.9669 -1.4102 -0.0503
   20MOL   O217 7475   5.973   7.084   0.885  0.7065 -0.7939 -0.1047
   20MOL   H218 7476   6.180   7.286   0.760  0.0899  0.1270 -0.1528
   20MOL   H219 7477   6.087   7.297   0.899  0.2066 -1.6512  2.8145
   20MOL   H220 7478   6.148   7.018   0.803 -0.6044  0.3707  0.6233
   20MOL   H221 7479   5.973   7.221   0.664 -0.3066  0.3705 -3.7643
   20MOL   H222 7480   6.105   7.143   0.580 -0.0985  1.1638 -0.4631
   20MOL   H223 7481   6.003   6.903   0.634  0.2728  0.0714 -0.3050
   20MOL   H224 7482   5.856   6.989   0.673 -0.4570 -0.3416 -1.4449
   20MOL   H225 7483   5.853   7.050   0.426 -2.0217 -0.6859  2.4869
   20MOL   H226 7484   6.013   6.997   0.405  0.0822 -1.0412 -0.1170
   20MOL   H227 7485   5.781   6.807   0.452 -0.0059  0.5803 -1.3487
   20MOL   H228 7486   5.957   6.762   0.452 -0.7172 -3.0535  0.3807
   20MOL   H229 7487   5.884   6.826   0.308  0.9819 -1.7873 -0.0314
   20MOL   C230 7488   5.993   7.069   1.019  0.1687  0.6855  0.4010
   20MOL   C231 7489   5.874   6.988   1.077 -0.0692 -0.0200 -0.2385
   20MOL   C232 7490   5.838   7.027   1.220  0.1313 -0.7898 -0.1051
   20MOL   C233 7491   5.700   6.989   1.266 -0.6476  0.3328 -0.6945
   20MOL   C234 7492   5.663   7.054   1.392 -0.1531  0.3994 -0.0471
   20MOL   C235 7493   5.533   6.990   1.438 -0.2014 -0.8560  0.0615
   20MOL   O236 7494   5.897   6.849   1.078  0.0920 -0.1758 -0.0025
   20MOL   H237 7495   6.090   7.021   1.035  0.5731  2.1133  2.5085
   20MOL   H238 7496   6.003   7.167   1.066  0.4990  1.9569 -2.2190
   20MOL   H239 7497   5.788   7.016   1.015  0.0477  1.6963  0.3481
   20MOL   H240 7498   5.840   7.136   1.229 -2.0389 -0.6745 -0.6392
   20MOL   H241 7499   5.914   6.988   1.287  1.1631 -2.0737 -1.9608
   20MOL   H242 7500   5.682   6.881   1.271  0.1832  0.2274  0.1779
   20MOL   H243 7501   5.630   7.005   1.184 -0.6986 -1.0301 -0.9387
   20MOL   H244 7502   5.734   7.028   1.470  0.6909  0.3214 -0.8469
   20MOL   H245 7503   5.664   7.163   1.386 -2.6178  0.4971  0.6846
   20MOL   H246 7504   5.540   6.882   1.447 -0.0672 -0.9908 -1.6197
   20MOL   H247 7505   5.452   7.014   1.370 -0.4795 -0.2446  0.6012
   20MOL   H248 7506   5.509   7.035   1.535  0.0511  1.7405 -1.0340
   20MOL   C249 7507   5.799   6.777   1.006 -0.2296  0.0751 -0.5287
   20MOL   C250 7508   5.820   6.624   1.000 -0.3524 -1.2433  0.8411
   20MOL   C251 7509   5.787   6.569   1.137  0.2365 -0.0902 -0.4260
   20MOL   C252 7510   5.800   6.416   1.153 -0.2667  0.6954 -0.7311
   20MOL   C253 7511   5.753   6.375   1.292  0.7841 -0.5616 -0.1179
   20MOL   C254 7512   5.767   6.226   1.315 -0.6170 -0.5189 -0.0352
   20MOL   O255 7513   5.958   6.588   0.984 -0.5801 -0.0220  0.2185
   20MOL   H256 7514   5.705   6.789   1.058  0.4094  2.0425  0.1911
   20MOL   H257 7515   5.781   6.810   0.904  0.7743 -0.2251 -0.8138
   20MOL   H258 7516   5.760   6.583   0.919 -1.1621  2.2613 -0.4653
   20MOL   H259 7517   5.835   6.619   1.220  2.1957  2.2602 -2.9071
   20MOL   H260 7518   5.679   6.585   1.149  0.1243 -0.7208 -0.5718
   20MOL   H261 7519   5.743   6.347   1.089 -0.4348 -0.2201  0.3897
   20MOL   H262 7520   5.901   6.375   1.149 -1.2151 -1.9161  0.4038
   20MOL   H263 7521   5.820   6.425   1.362  1.3668 -1.1340 -0.2567
   20MOL   H264 7522   5.655   6.417   1.318 -0.8112 -1.8612 -3.7392
   20MOL   H265 7523   5.673   6.172   1.329  0.9391 -3.3126  0.0654
   20MOL   H266 7524   5.814   6.208   1.412 -0.6060  0.1612  0.0866
   20MOL   H267 7525   5.828   6.173   1.242 -1.1365  1.6118 -2.0635
   20MOL   C268 7526   6.018   6.606   0.850 -0.4514 -0.0890  0.8072
   20MOL   C269 7527   6.167   6.646   0.862  0.6236  0.4298  0.6106
   20MOL   C270 7528   6.221   6.709   0.730  0.0407 -0.2880 -0.3092
   20MOL   C271 7529   6.369   6.750   0.740  0.5578  0.6650  0.2133
   20MOL   C272 7530   6.402   6.849   0.624  0.2210 -0.0229 -0.5279
   20MOL   C273 7531   6.556   6.875   0.614  0.8443  0.0393 -0.3354
   20MOL   O274 7532   6.257   6.536   0.894  0.2458  0.2615 -0.9851
   20MOL   H275 7533   5.976   6.694   0.801  0.9900 -1.0088 -2.1787
   20MOL   H276 7534   6.011   6.516   0.789 -1.3260 -0.7173  1.8144
   20MOL   H277 7535   6.175   6.712   0.948  1.8427  0.7045  0.2979
   20MOL   H278 7536   6.208   6.652   0.638  0.8909 -0.6354 -0.2162
   20MOL   H279 7537   6.160   6.799   0.726  0.7743  0.3787  2.2592
   20MOL   H280 7538   6.392   6.795   0.837 -1.3534 -0.6819  1.3510
   20MOL   H281 7539   6.432   6.661   0.729 -2.8091 -1.7106 -0.8046
   20MOL   H282 7540   6.366   6.804   0.531 -1.3355  0.3185 -0.1001
   20MOL   H283 7541   6.350   6.944   0.634 -1.8536 -1.3890  1.9138
   20MOL   H284 7542   6.615   6.783   0.611  1.8513  0.6553 -0.0171
   20MOL   H285 7543   6.570   6.929   0.520 -1.6822  0.8719 -0.2679
   20MOL   H286 7544   6.579   6.936   0.701  1.4729 -2.9685  1.6758
   20MOL   C287 7545   6.238   6.479   1.024  0.2068  0.2165 -0.2558
   20MOL   C288 7546   6.365   6.391   1.046 -0.1823  0.4444 -0.3329
   20MOL   C289 7547   6.356   6.260   1.126  0.3801  0.4651 -0.2825
   20MOL   C290 7548   6.484   6.173   1.101 -0.9723 -0.1458 -0.1599
   20MOL   C291 7549   6.473   6.048   1.181 -0.4942 -0.1296 -0.4017
   20MOL   C292 7550   6.604   5.967   1.175 -0.3294 -0.1705  0.1309
   20MOL   O293 7551   6.461   6.462   1.114  0.1523 -0.0898 -0.4597
   20MOL   H294 7552   6.150   6.416   1.012 -0.1025  0.4896  0.5757
   20MOL   H295 7553   6.237   6.555   1.102 -1.1108 -0.2332  0.1712
   20MOL   H296 7554   6.407   6.358   0.950 -2.5551  0.8230 -1.5181
   20MOL   H297 7555   6.326   6.271   1.231 -1.4435 -0.0167 -0.7357
   20MOL   H298 7556   6.275   6.200   1.086 -0.6353 -0.0170  2.3901
   20MOL   H299 7557   6.497   6.159   0.994  1.5813  1.5803 -0.1078
   20MOL   H300 7558   6.571   6.226   1.139  0.8972 -2.2919 -1.2982
   20MOL   H301 7559   6.393   5.981   1.148 -1.6166  0.6774  0.6367
   20MOL   H302 7560   6.455   6.062   1.287 -1.8595 -0.5475 -0.5698
   20MOL   H303 7561   6.672   6.013   1.247 -1.1852  1.0822  0.1563
   20MOL   H304 7562   6.590   5.861   1.199  2.5543 -0.5923  0.1982
   20MOL   H305 7563   6.649   5.977   1.077  0.8442  3.9009  1.0028
   20MOL   C306 7564   6.536   6.552   1.035  0.2165 -0.0422  0.0494
   20MOL   C307 7565   6.670   6.592   1.106 -0.0087 -0.1302  0.1938
   20MOL   C308 7566   6.737   6.724   1.053  0.6865  0.3701  0.2858
   20MOL   C309 7567   6.793   6.720   0.915 -0.8104 -0.1922  0.2867
   20MOL   C310 7568   6.846   6.859   0.875 -0.1295 -0.2359  0.3298
   20MOL   C311 7569   6.908   6.854   0.742 -0.2927 -0.0299 -0.1241
   20MOL   O312 7570   6.775   6.493   1.094 -0.1674 -0.1198 -0.2707
   20MOL   H313 7571   6.563   6.512   0.938  0.5040  0.5269 -0.1023
   20MOL   H314 7572   6.483   6.647   1.027  0.7743  0.1954 -0.8302
   20MOL   H315 7573   6.642   6.596   1.211 -0.5826 -0.3874  0.0509
   20MOL   H316 7574   6.806   6.749   1.133  2.2066 -1.5559 -0.3689
   20MOL   H317 7575   6.666   6.806   1.061 -0.2859 -0.3166 -1.0450
   20MOL   H318 7576   6.875   6.648   0.911  0.7802  1.6314 -0.5356
   20MOL   H319 7577   6.710   6.693   0.850 -1.3894  1.2811  0.3781
   20MOL   H320 7578   6.915   6.904   0.947  0.0867 -1.4698  0.9090
   20MOL   H321 7579   6.765   6.930   0.861  0.5074  0.3824 -0.3046
   20MOL   H322 7580   6.993   6.787   0.727 -0.6869 -0.4916 -0.3119
   20MOL   H323 7581   6.833   6.825   0.668  0.9478 -1.5100 -0.8347
   20MOL   H324 7582   6.944   6.953   0.713  0.0645 -0.5157 -1.3893
   20MOL   C325 7583   6.808   6.419   1.217 -0.6652 -0.1752 -0.2624
   20MOL   C326 7584   6.945   6.358   1.189  0.7909 -0.0167  0.5650
   20MOL   C327 7585   6.952   6.215   1.248 -0.6777  0.3696  0.4473
   20MOL   C328 7586   7.100   6.164   1.258  0.2409  0.3825 -0.8860
   20MOL   C329 7587   7.109   6.021   1.310 -0.3701  0.2628  0.6030
   20MOL   C330 7588   7.060   5.914   1.218 -0.1330  0.2671  0.2689
   20MOL   O331 7589   7.050   6.432   1.245 -0.1758 -0.0207 -0.0752
   20MOL   H332 7590   6.724   6.354   1.244 -0.7918  0.6653  1.4476
   20MOL   H333 7591   6.833   6.483   1.302 -1.0722 -0.6201  0.1977
   20MOL   H334 7592   6.961   6.336   1.084 -0.0987 -1.0341  0.6238
   20MOL   H335 7593   6.906   6.203   1.346  0.0585  1.1375  0.8884
   20MOL   H336 7594   6.887   6.158   1.182  0.5362 -1.8700  1.1537
   20MOL   H337 7595   7.153   6.177   1.164 -0.5512 -1.8440 -1.6712
   20MOL   H338 7596   7.155   6.221   1.334 -0.3418  1.1973 -1.0734
   20MOL   H339 7597   7.211   5.997   1.340 -1.3331 -1.6955  2.4828
   20MOL   H340 7598   7.043   6.014   1.397 -0.8212 -0.0632  0.2365
   20MOL   H341 7599   7.132   5.893   1.139 -0.0525  2.0478 -0.1425
   20MOL   H342 7600   7.037   5.821   1.270 -0.3313  0.1311 -0.0574
   20MOL   H343 7601   6.966   5.951   1.177 -1.3771 -1.2035  1.7448
   20MOL   C344 7602   7.059   6.553   1.170 -0.1057 -0.2611 -0.1081
   20MOL   C345 7603   7.193   6.628   1.197  0.7122  0.0381 -0.8550
   20MOL   C346 7604   7.208   6.745   1.095  0.2783 -0.3037  0.0176
   20MOL   C347 7605   7.341   6.812   1.085  0.1553  0.6963  0.2604
   20MOL   C348 7606   7.366   6.873   0.943  0.0254 -0.2667 -0.0933
   20MOL   C349 7607   7.267   6.992   0.913  0.6852 -0.8487 -0.0253
   20MOL   O350 7608   7.199   6.682   1.328  0.2468 -0.7403 -0.0022
   20MOL   H351 7609   6.981   6.618   1.209  0.6819  0.1669  0.7771
   20MOL   H352 7610   7.042   6.542   1.063 -0.3722 -1.8636  0.0884
   20MOL   H353 7611   7.280   6.567   1.172  0.9836  0.0631  0.0313
   20MOL   H354 7612   7.124   6.812   1.118 -0.0338 -0.2051 -1.3882
   20MOL   H355 7613   7.177   6.712   0.997 -1.1075 -1.6000  0.8789
   20MOL   H356 7614   7.418   6.744   1.121 -1.1997 -1.2547 -0.4536
   20MOL   H357 7615   7.342   6.894   1.157 -0.0591  2.0936 -1.3158
   20MOL   H358 7616   7.368   6.792   0.870  0.6345 -1.0555  0.7944
   20MOL   H359 7617   7.467   6.914   0.952 -0.0516 -0.0627 -0.1739
   20MOL   H360 7618   7.259   7.064   0.995  0.6001 -1.7901  0.8037
   20MOL   H361 7619   7.169   6.955   0.882 -0.5037 -0.3747  2.9446
   20MOL   H362 7620   7.298   7.050   0.827 -1.7602  1.0087  0.2805
   20MOL   C363 7621   7.255   6.590   1.414 -0.4689 -0.3365  0.2070
   20MOL   C364 7622   7.263   6.645   1.553 -0.2836 -0.1361  0.0412
   20MOL   C365 7623   7.133   6.627   1.631 -0.0829  0.7387 -0.6059
   20MOL   C366 7624   7.126   6.702   1.765 -0.2825 -0.4998  0.5912
   20MOL   C367 7625   6.983   6.714   1.813 -0.0624 -0.1832  0.7138
   20MOL   C368 7626   6.963   6.800   1.933 -0.2655  0.1290 -0.5181
   20MOL   O369 7627   7.362   6.578   1.631 -0.1200 -0.2816  0.1068
   20MOL   H370 7628   7.357   6.571   1.381 -0.4677 -0.5595  0.3370
   20MOL   H371 7629   7.208   6.492   1.410  0.0582 -0.6833  1.9801
   20MOL   H372 7630   7.295   6.749   1.549 -1.1995  0.1080 -1.3166
   20MOL   H373 7631   7.054   6.677   1.576  0.3302  2.8619  0.6767
   20MOL   H374 7632   7.115   6.522   1.655  0.8061  0.1739 -2.3094
   20MOL   H375 7633   7.195   6.652   1.834  2.0120  1.8840  0.1054
   20MOL   H376 7634   7.152   6.808   1.756 -0.9843 -0.2316  1.6662
   20MOL   H377 7635   6.914   6.732   1.730  1.2950 -1.7652 -0.8121
   20MOL   H378 7636   6.948   6.615   1.840  0.2510 -0.8930 -1.3367
   20MOL   H379 7637   7.029   6.765   2.013 -0.3475 -3.3789 -1.8762
   20MOL   H380 7638   6.992   6.900   1.902 -1.3535  1.4783  2.6590
   20MOL   H381 7639   6.857   6.795   1.960  0.4164 -0.6475  2.2289
   20MOL   H382 7640   7.435   6.553   1.575 -0.0427  0.5138 -0.1562
   21MOL     C1 7641   3.345   6.155   2.284  0.0788 -0.1928  0.1599
   21MOL     C2 7642   3.212   6.190   2.219 -0.2391 -0.0548 -0.4214
   21MOL     C3 7643   3.231   6.244   2.076  0.1143  0.3549  0.4921
   21MOL     C4 7644   3.136   6.366   2.034  0.0389 -0.2235 -0.8319
   21MOL     C5 7645   3.138   6.385   1.881  0.3180 -0.3506 -0.1766
   21MOL     C6 7646   3.019   6.480   1.835 -0.4649  0.6879  0.0129
   21MOL     O7 7647   3.132   6.075   2.227  0.0544  0.1301 -0.2294
   21MOL     H8 7648   3.420   6.233   2.275 -0.9605  0.5631 -2.8039
   21MOL     H9 7649   3.376   6.064   2.232 -1.5325  0.7373 -2.5528
   21MOL    H10 7650   3.176   6.276   2.276  0.4032 -0.4157  0.5272
   21MOL    H11 7651   3.328   6.288   2.055  1.7298 -1.9846  2.6615
   21MOL    H12 7652   3.213   6.155   2.015  0.1663  0.6900 -0.0130
   21MOL    H13 7653   3.031   6.344   2.056 -0.1930  0.4182 -1.3048
   21MOL    H14 7654   3.175   6.455   2.083 -2.9180  1.8495 -2.0684
   21MOL    H15 7655   3.227   6.438   1.849  1.0603 -0.5211  1.5614
   21MOL    H16 7656   3.131   6.290   1.827 -2.4697  0.2351 -0.9746
   21MOL    H17 7657   3.010   6.489   1.726  1.0211 -0.3783 -0.2053
   21MOL    H18 7658   2.926   6.432   1.866  1.1195 -1.4595  1.5445
   21MOL    H19 7659   3.034   6.578   1.880 -0.2283  0.9596 -0.6391
   21MOL    H20 7660   3.327   6.131   2.389  0.3559 -3.5261 -0.4969
   21MOL    C21 7661   3.031   6.085   2.329  0.4295 -0.1244 -0.3737
   21MOL    C22 7662   2.960   5.955   2.298  0.1179 -0.6470 -0.5362
   21MOL    C23 7663   2.900   5.906   2.433  0.2945  0.1638 -0.0617
   21MOL    C24 7664   2.809   5.990   2.520 -0.4626  0.3991 -0.1575
   21MOL    C25 7665   2.754   5.909   2.643  0.3188 -0.7383  0.1101
   21MOL    C26 7666   2.639   5.815   2.605 -0.7997  0.4298  0.4856
   21MOL    O27 7667   2.854   5.989   2.205 -0.8028  0.0253 -0.0825
   21MOL    H28 7668   3.076   6.098   2.427 -1.0788  1.8911  0.0742
   21MOL    H29 7669   2.963   6.168   2.312 -0.6381 -0.7829  0.6147
   21MOL    H30 7670   3.031   5.884   2.256  0.1970 -1.0673  0.2986
   21MOL    H31 7671   2.979   5.855   2.487 -0.8458 -2.1231 -0.4816
   21MOL    H32 7672   2.839   5.823   2.395  0.4865 -0.7550  1.6059
   21MOL    H33 7673   2.730   6.039   2.462 -0.5971  0.6352  0.2242
   21MOL    H34 7674   2.867   6.073   2.559 -0.8957  0.3919  0.5011
   21MOL    H35 7675   2.837   5.849   2.681 -0.1072 -0.9957  0.6225
   21MOL    H36 7676   2.731   5.971   2.729  2.1591 -1.0711  0.8861
   21MOL    H37 7677   2.576   5.874   2.539 -1.5040  0.0672  0.8287
   21MOL    H38 7678   2.579   5.776   2.687 -1.6963  0.6401 -0.0652
   21MOL    H39 7679   2.666   5.739   2.532 -2.2147  0.0769  0.3058
   21MOL    C40 7680   2.884   5.983   2.068  0.6857  1.0210  0.1149
   21MOL    C41 7681   2.754   6.032   1.984  0.7670 -0.0414  0.3436
   21MOL    C42 7682   2.768   5.999   1.828  0.9708 -0.0569  0.7519
   21MOL    C43 7683   2.839   6.100   1.738 -0.0048 -0.3967  0.0462
   21MOL    C44 7684   2.882   6.055   1.593  0.0442  0.4100 -0.5206
   21MOL    C45 7685   2.964   6.158   1.515  0.3448  0.7707  0.3452
   21MOL    O46 7686   2.713   6.165   2.000  0.6672 -0.5530 -0.1666
   21MOL    H47 7687   2.930   5.888   2.041 -0.0468 -0.1289  2.6862
   21MOL    H48 7688   2.960   6.056   2.037  2.4946 -0.2251  1.5064
   21MOL    H49 7689   2.670   5.979   2.027 -0.3157 -0.4269 -2.1253
   21MOL    H50 7690   2.815   5.903   1.807 -0.6776 -0.6249 -0.4693
   21MOL    H51 7691   2.676   5.996   1.769  1.9310  2.4344 -0.9687
   21MOL    H52 7692   2.920   6.141   1.800  0.5739 -0.1097 -0.8911
   21MOL    H53 7693   2.777   6.189   1.732 -0.4829 -0.5271  2.4664
   21MOL    H54 7694   2.945   5.967   1.606  0.0495  0.8171  2.4466
   21MOL    H55 7695   2.794   6.023   1.536  0.6525  0.3449 -1.4464
   21MOL    H56 7696   3.062   6.181   1.555  0.6766  1.5007 -0.8626
   21MOL    H57 7697   2.986   6.125   1.414  0.8286 -0.7393  0.9363
   21MOL    H58 7698   2.917   6.257   1.518  1.2202  1.1372  2.4205
   21MOL    C59 7699   2.700   6.227   2.130  0.4956 -0.2554 -0.2468
   21MOL    C60 7700   2.626   6.357   2.131 -0.0205 -0.6099 -0.1286
   21MOL    C61 7701   2.690   6.470   2.037 -0.3649 -0.0182 -0.4193
   21MOL    C62 7702   2.628   6.612   2.043 -0.3502  0.4029 -0.2702
   21MOL    C63 7703   2.677   6.732   1.953  0.1235 -0.0654  0.1818
   21MOL    C64 7704   2.811   6.782   2.005 -0.0414 -0.2362  0.2037
   21MOL    O65 7705   2.485   6.345   2.105  0.0693 -0.0381 -0.6429
   21MOL    H66 7706   2.790   6.231   2.191  1.1090 -3.3398 -0.8828
   21MOL    H67 7707   2.640   6.150   2.177 -0.5700  1.2870  0.9601
   21MOL    H68 7708   2.617   6.391   2.234 -1.3071  1.6866 -0.9666
   21MOL    H69 7709   2.687   6.440   1.932 -1.1685 -1.1210 -0.0813
   21MOL    H70 7710   2.797   6.481   2.054 -0.2053  0.9980 -1.9226
   21MOL    H71 7711   2.646   6.648   2.144 -3.0483  1.5061 -0.1301
   21MOL    H72 7712   2.520   6.605   2.031 -0.5214  3.3669 -0.9209
   21MOL    H73 7713   2.606   6.815   1.954  1.5126  1.1433  0.4697
   21MOL    H74 7714   2.679   6.699   1.849 -0.3439 -2.1887  0.8237
   21MOL    H75 7715   2.881   6.701   1.987 -1.9781 -2.1296  1.0400
   21MOL    H76 7716   2.843   6.876   1.960  1.2325  0.3400  2.2233
   21MOL    H77 7717   2.817   6.811   2.110 -1.2305 -1.6365  0.6754
   21MOL    C78 7718   2.456   6.327   1.973  0.6132  0.5099  0.3301
   21MOL    C79 7719   2.322   6.246   1.969  0.1305 -0.2729 -0.2857
   21MOL    C80 7720   2.296   6.170   1.839 -0.1808  0.2461  0.2047
   21MOL    C81 7721   2.368   6.039   1.829  0.8749  1.1455 -0.2756
   21MOL    C82 7722   2.393   5.979   1.685  0.2075  0.4060  0.7993
   21MOL    C83 7723   2.387   5.830   1.670 -0.0193  0.6984  0.1912
   21MOL    O84 7724   2.204   6.330   1.970  0.3075  0.0303  0.2159
   21MOL    H85 7725   2.532   6.271   1.918  2.2623  2.9802  0.0347
   21MOL    H86 7726   2.452   6.423   1.921  3.7516  0.3486 -0.2675
   21MOL    H87 7727   2.309   6.166   2.041 -2.0463  1.0656  0.8759
   21MOL    H88 7728   2.190   6.145   1.836 -0.2276 -0.0826  2.9672
   21MOL    H89 7729   2.326   6.231   1.754  1.8626 -1.9670 -0.6892
   21MOL    H90 7730   2.328   5.966   1.898  1.7390  0.2612 -0.6993
   21MOL    H91 7731   2.469   6.046   1.868 -0.0199 -3.3375  3.2982
   21MOL    H92 7732   2.310   6.017   1.625  2.8913  1.6749 -2.3085
   21MOL    H93 7733   2.488   6.006   1.639  0.9434  0.5875  2.3866
   21MOL    H94 7734   2.465   5.771   1.718 -2.7322 -0.2623  3.6330
   21MOL    H95 7735   2.392   5.787   1.570 -2.2149  1.4769 -0.2776
   21MOL    H96 7736   2.294   5.784   1.704 -1.2297  1.4858 -1.9704
   21MOL    C97 7737   2.153   6.353   2.098 -0.0061  0.4236  0.0838
   21MOL    C98 7738   2.030   6.445   2.087 -0.0677  0.1225 -0.2663
   21MOL    C99 7739   1.926   6.394   2.192 -0.6883  0.9031  0.1716
   21MOL   C100 7740   1.846   6.281   2.140 -0.2641  0.0330 -0.4666
   21MOL   C101 7741   1.746   6.243   2.244  0.5510  0.7243 -0.3137
   21MOL   C102 7742   1.682   6.108   2.219 -0.3398  0.2978  0.3040
   21MOL   O103 7743   2.063   6.573   2.137  0.2508  0.1864  0.3730
   21MOL   H104 7744   2.236   6.392   2.157  0.5654 -0.0127 -0.4277
   21MOL   H105 7745   2.139   6.252   2.137  0.1493 -0.8133 -2.9753
   21MOL   H106 7746   1.990   6.451   1.986  1.8076 -0.3001 -1.0590
   21MOL   H107 7747   1.850   6.471   2.201  0.1003  1.4674  2.3078
   21MOL   H108 7748   1.967   6.373   2.290  0.7640  0.8954 -0.4203
   21MOL   H109 7749   1.910   6.195   2.122  1.0685  0.9559 -0.2053
   21MOL   H110 7750   1.801   6.310   2.045 -1.1161  1.3149  0.2940
   21MOL   H111 7751   1.662   6.313   2.241 -0.8995 -0.9916 -0.6964
   21MOL   H112 7752   1.785   6.245   2.346  1.5014 -1.6719 -0.6045
   21MOL   H113 7753   1.635   6.104   2.121 -0.3830  2.6866  0.1964
   21MOL   H114 7754   1.767   6.041   2.223  1.2981  2.3849  1.4653
   21MOL   H115 7755   1.610   6.071   2.293 -1.2438  1.9282  0.2566
   21MOL   C116 7756   2.151   6.656   2.061  0.0674  0.8386  0.5518
   21MOL   C117 7757   2.079   6.726   1.939 -0.1266  0.5205  0.3806
   21MOL   C118 7758   2.083   6.647   1.805  0.3839  1.6173  0.0531
   21MOL   C119 7759   2.042   6.722   1.677 -0.1429 -0.2523 -0.0361
   21MOL   C120 7760   2.028   6.638   1.552 -0.3184 -0.5091 -0.4011
   21MOL   C121 7761   1.993   6.722   1.431 -0.1731  0.1334 -0.1099
   21MOL   O122 7762   2.138   6.847   1.906  0.1769 -0.2097 -0.1995
   21MOL   H123 7763   2.176   6.736   2.131 -1.2131  0.3524  1.5849
   21MOL   H124 7764   2.243   6.603   2.037 -0.5934  0.5651 -1.4458
   21MOL   H125 7765   1.973   6.746   1.953 -0.2585  0.6286 -0.7247
   21MOL   H126 7766   2.180   6.603   1.780 -0.6816 -0.1432 -1.0567
   21MOL   H127 7767   2.016   6.562   1.815  0.2109  1.5403 -1.6678
   21MOL   H128 7768   2.108   6.808   1.663  0.1184 -0.3753  0.4355
   21MOL   H129 7769   1.942   6.762   1.691 -0.6620 -1.8125  0.7842
   21MOL   H130 7770   2.121   6.583   1.540 -0.0363  0.0128 -0.6344
   21MOL   H131 7771   1.955   6.558   1.569 -0.9703  0.6262  2.5023
   21MOL   H132 7772   1.900   6.776   1.446  0.7074  1.7225 -0.1974
   21MOL   H133 7773   2.065   6.799   1.403 -0.8337  0.6675 -0.3298
   21MOL   H134 7774   1.975   6.666   1.340 -1.6353  0.1096  0.1910
   21MOL   C135 7775   2.112   6.956   1.991  0.0771 -0.0948 -0.8587
   21MOL   C136 7776   2.169   7.078   1.934  0.8857 -0.4532  0.1049
   21MOL   C137 7777   2.319   7.088   1.941  0.2863  0.1418 -0.6416
   21MOL   C138 7778   2.384   7.000   1.838  0.0853 -0.0037  0.3448
   21MOL   C139 7779   2.517   7.043   1.784  0.1501  0.2014 -0.0491
   21MOL   C140 7780   2.583   6.962   1.674  0.6124 -0.3344 -0.0196
   21MOL   O141 7781   2.116   7.192   2.007  0.0741 -0.0041  0.2263
   21MOL   H142 7782   2.004   6.966   2.004  0.4100  0.9672  1.3641
   21MOL   H143 7783   2.157   6.941   2.089  0.6223 -1.0721 -1.2570
   21MOL   H144 7784   2.136   7.075   1.830 -0.8948 -1.0113  0.6615
   21MOL   H145 7785   2.349   7.193   1.929  0.9936 -0.0123 -0.2445
   21MOL   H146 7786   2.341   7.070   2.046  1.2370 -1.2225 -1.0725
   21MOL   H147 7787   2.318   6.993   1.752 -0.3092  0.8384  0.5737
   21MOL   H148 7788   2.399   6.899   1.875 -0.9553 -0.3088 -0.0369
   21MOL   H149 7789   2.590   7.054   1.864 -2.5458  0.1949  2.4691
   21MOL   H150 7790   2.499   7.146   1.752  2.7327  0.9397  0.6720
   21MOL   H151 7791   2.684   6.998   1.659 -0.2787  1.2112 -2.7135
   21MOL   H152 7792   2.583   6.858   1.706  1.9524  0.3553  2.3364
   21MOL   H153 7793   2.536   6.977   1.577  3.6221  0.9913 -1.3097
   21MOL   C154 7794   2.001   7.251   1.943  0.2391 -0.3842 -0.4703
   21MOL   C155 7795   2.028   7.366   1.837  1.0206  0.1771  0.6447
   21MOL   C156 7796   2.146   7.461   1.883 -0.3396  0.1838  0.0882
   21MOL   C157 7797   2.112   7.550   2.002 -0.1297  0.1279  0.5351
   21MOL   C158 7798   2.017   7.660   1.956 -0.5408 -0.2843  0.3741
   21MOL   C159 7799   2.075   7.747   1.843 -0.5407  0.3276  0.5061
   21MOL   O160 7800   2.076   7.291   1.728 -0.0464 -0.7935  0.0551
   21MOL   H161 7801   1.929   7.292   2.014  0.0792  0.9391 -1.3794
   21MOL   H162 7802   1.948   7.162   1.906 -0.3555 -1.0795  1.9659
   21MOL   H163 7803   1.935   7.420   1.818  0.4262 -0.1986  2.3391
   21MOL   H164 7804   2.188   7.513   1.798  2.3661  0.7007  1.6817
   21MOL   H165 7805   2.230   7.397   1.911  0.7650  0.3890 -2.6565
   21MOL   H166 7806   2.209   7.594   2.027  0.3518 -1.1231  0.9220
   21MOL   H167 7807   2.066   7.496   2.085 -1.2028 -0.1157 -0.2086
   21MOL   H168 7808   1.922   7.620   1.921 -0.0166 -1.2692  0.0551
   21MOL   H169 7809   2.004   7.714   2.050  0.5959  0.6420  0.0085
   21MOL   H170 7810   2.016   0.052   1.846 -1.1380 -0.0606  0.4763
   21MOL   H171 7811   2.072   7.703   1.743 -4.1991  1.6549 -0.0360
   21MOL   H172 7812   2.176   0.002   1.853 -0.9271  0.8493  2.4628
   21MOL   C173 7813   2.031   7.335   1.601 -0.1018 -0.1185 -0.1715
   21MOL   C174 7814   2.107   7.268   1.489  0.0167  0.1720 -0.5487
   21MOL   C175 7815   2.026   7.253   1.364  0.8244  0.1731 -0.0964
   21MOL   C176 7816   1.938   7.125   1.372  0.0324 -0.3032 -0.0425
   21MOL   C177 7817   1.860   7.082   1.244  0.3215 -0.4348  0.0666
   21MOL   C178 7818   1.756   6.964   1.259 -0.0162 -0.5957  0.1631
   21MOL   O179 7819   2.212   7.347   1.443 -0.6578  0.5095 -0.3896
   21MOL   H180 7820   2.023   7.443   1.589 -0.8745  0.1826  2.6349
   21MOL   H181 7821   1.927   7.302   1.593 -0.2802  0.8688 -2.3876
   21MOL   H182 7822   2.145   7.168   1.506  2.3809  0.9684 -0.9115
   21MOL   H183 7823   1.983   7.347   1.330  1.1385  0.5138  0.4381
   21MOL   H184 7824   2.092   7.231   1.280  0.1572 -2.4127  0.0011
   21MOL   H185 7825   2.005   7.042   1.396 -0.3011 -0.5478  0.0415
   21MOL   H186 7826   1.877   7.133   1.462  1.3171 -0.9842  0.9200
   21MOL   H187 7827   1.815   7.175   1.209  0.4269 -0.5810 -0.4592
   21MOL   H188 7828   1.925   7.046   1.165  1.7408  1.0759  0.5038
   21MOL   H189 7829   1.816   6.873   1.260  1.1402  0.1675  0.7358
   21MOL   H190 7830   1.708   6.964   1.161  2.8239  0.2854 -1.2867
   21MOL   H191 7831   1.685   6.957   1.342  2.2069 -0.5364  2.1192
   21MOL   C192 7832   2.331   7.321   1.521 -0.3109  0.6568  0.2312
   21MOL   C193 7833   2.458   7.389   1.458  0.2215 -0.1903  0.0779
   21MOL   C194 7834   2.589   7.343   1.521 -0.4284  0.3769  0.3748
   21MOL   C195 7835   2.715   7.373   1.439 -0.6247  0.0382 -0.3241
   21MOL   C196 7836   2.850   7.374   1.518 -0.1060 -0.2075  0.5365
   21MOL   C197 7837   2.913   7.234   1.533 -0.1721 -0.3367  0.2984
   21MOL   O198 7838   2.457   7.530   1.455  0.2601 -0.2880 -0.7455
   21MOL   H199 7839   2.318   7.343   1.627 -1.4666 -3.2740  0.9977
   21MOL   H200 7840   2.355   7.215   1.518 -0.4546  0.6064  0.8521
   21MOL   H201 7841   2.475   7.344   1.360  2.7129 -0.4729  0.5886
   21MOL   H202 7842   2.608   7.382   1.621 -1.2216  2.1407 -0.1322
   21MOL   H203 7843   2.580   7.236   1.540  0.3826  0.2996  0.3338
   21MOL   H204 7844   2.709   7.471   1.393  1.2017  0.8493  1.0847
   21MOL   H205 7845   2.722   7.313   1.349 -2.4174 -0.1908 -0.3418
   21MOL   H206 7846   2.929   7.430   1.467 -0.5912  0.6079  0.6809
   21MOL   H207 7847   2.836   7.427   1.612 -2.3560  0.1442  0.0125
   21MOL   H208 7848   2.844   7.163   1.576 -1.1545  0.9462  0.8743
   21MOL   H209 7849   2.953   7.193   1.440 -1.4753  0.5582 -0.6763
   21MOL   H210 7850   2.996   7.240   1.604 -1.5565  0.1624  1.8907
   21MOL   C211 7851   2.434   7.599   1.576  0.3956  0.0990 -0.1259
   21MOL   C212 7852   2.396   7.744   1.556  0.5056  0.2680  0.6137
   21MOL   C213 7853   2.446   0.039   1.672 -0.4910 -0.6501  0.2224
   21MOL   C214 7854   2.400   0.185   1.658  0.2560  0.4478 -0.2465
   21MOL   C215 7855   2.448   0.275   1.770 -0.4345 -0.0117 -0.7428
   21MOL   C216 7856   2.407   0.423   1.761 -0.1424  0.4858 -0.0752
   21MOL   O217 7857   2.253   7.751   1.549 -0.6924  0.5495 -0.1517
   21MOL   H218 7858   2.534   7.593   1.619  0.3129 -1.2054 -0.1116
   21MOL   H219 7859   2.360   7.559   1.645 -1.4566  0.9194 -1.5904
   21MOL   H220 7860   2.444   7.771   1.462 -0.5298  2.0158  0.5654
   21MOL   H221 7861   2.411   7.781   1.765  0.4154  1.8246  1.7899
   21MOL   H222 7862   2.554   0.040   1.682 -0.5027  1.1054  0.3930
   21MOL   H223 7863   2.441   0.210   1.560  2.9353  0.7875  0.9113
   21MOL   H224 7864   2.292   0.195   1.644 -0.0034  1.6785  2.3804
   21MOL   H225 7865   2.399   0.230   1.857  0.1879  0.5213 -0.1179
   21MOL   H226 7866   2.555   0.263   1.782 -0.4587  0.4978 -0.0208
   21MOL   H227 7867   2.300   0.426   1.739 -0.1028 -0.6170 -0.4420
   21MOL   H228 7868   2.463   0.463   1.676  0.3009  0.2111  0.0852
   21MOL   H229 7869   2.430   0.488   1.845  0.5497  1.1724 -0.7930
   21MOL   C230 7870   2.194   7.736   1.416  0.4630  0.4263  0.2552
   21MOL   C231 7871   2.036   7.757   1.423  0.0458 -0.4640  0.1052
   21MOL   C232 7872   1.964   7.696   1.307  0.0453 -0.2458 -0.6695
   21MOL   C233 7873   1.812   7.702   1.326 -0.1081 -0.0041  0.2038
   21MOL   C234 7874   1.738   7.592   1.245 -0.3627  0.2418  0.4475
   21MOL   C235 7875   1.586   7.586   1.265 -0.1505  0.1813 -0.5502
   21MOL   O236 7876   2.005   0.110   1.410  0.0710 -0.0878 -0.2589
   21MOL   H237 7877   2.232   0.019   1.341  0.4133 -1.0103 -1.1249
   21MOL   H238 7878   2.224   7.636   1.385 -0.5027  0.5525 -1.1458
   21MOL   H239 7879   2.000   7.725   1.521 -1.4490  2.8225  0.7136
   21MOL   H240 7880   1.999   7.592   1.311 -0.2291 -0.3213 -0.0870
   21MOL   H241 7881   1.999   7.718   1.206 -0.6177 -4.8680 -2.0411
   21MOL   H242 7882   1.769   0.017   1.326  1.3604  0.6397  0.7336
   21MOL   H243 7883   1.794   7.669   1.428 -5.1163 -3.3950 -1.5864
   21MOL   H244 7884   1.766   7.634   1.148 -0.5665  0.3401  0.4315
   21MOL   H245 7885   1.784   7.495   1.259  0.5903  0.4269 -1.2070
   21MOL   H246 7886   1.558   7.569   1.369  0.5045 -1.8454 -0.6739
   21MOL   H247 7887   1.537   7.508   1.206  3.3509 -2.2992 -0.3216
   21MOL   H248 7888   1.546   7.685   1.241  0.1068  0.2598 -0.6516
   21MOL   C249 7889   2.026   0.204   1.516  0.0450 -0.7780 -0.4730
   21MOL   C250 7890   2.049   0.349   1.456  0.0614  0.6018 -0.3210
   21MOL   C251 7891   2.177   0.332   1.364  0.9099  0.6333  0.4520
   21MOL   C252 7892   2.219   0.466   1.303 -0.0471 -0.4213 -0.0737
   21MOL   C253 7893   2.329   0.459   1.199 -1.1416  0.8243 -0.2500
   21MOL   C254 7894   2.283   0.385   1.071  0.3005 -0.3765  0.0704
   21MOL   O255 7895   2.085   0.446   1.554 -0.0722  0.0443 -0.0098
   21MOL   H256 7896   1.932   0.196   1.570  0.2417  1.4898  0.2545
   21MOL   H257 7897   2.105   0.162   1.578 -1.2623 -0.3762  1.4935
   21MOL   H258 7898   1.955   0.366   1.405 -0.7723 -0.0697  0.9814
   21MOL   H259 7899   2.263   0.292   1.417  0.1136  0.4491  1.6275
   21MOL   H260 7900   2.165   0.258   1.285  1.1900  0.7983  0.2546
   21MOL   H261 7901   2.136   0.504   1.242 -0.1245  1.4409  1.1818
   21MOL   H262 7902   2.246   0.532   1.385  0.5079 -1.1920  0.3695
   21MOL   H263 7903   2.353   0.564   1.179  1.4018  0.4112  0.3948
   21MOL   H264 7904   2.418   0.414   1.242 -1.2226  1.0886  0.1921
   21MOL   H265 7905   2.186   0.418   1.033 -0.2615 -2.4782 -0.3858
   21MOL   H266 7906   2.279   0.276   1.081 -0.9703 -0.1678  1.9348
   21MOL   H267 7907   2.349   0.388   0.984  0.5098 -1.5249  0.1799
   21MOL   C268 7908   1.967   0.499   1.616 -0.3843 -0.2988  0.1213
   21MOL   C269 7909   2.018   0.612   1.715 -0.6044  0.4683 -0.1253
   21MOL   C270 7910   1.926   0.612   1.838 -0.0128 -0.1741  0.1642
   21MOL   C271 7911   1.948   0.727   1.937 -0.5925  0.0983 -0.2869
   21MOL   C272 7912   1.862   0.704   2.063  0.4900  0.2506  0.6951
   21MOL   C273 7913   1.877   0.832   2.147 -0.5401  0.5886 -0.1108
   21MOL   O274 7914   2.016   0.743   1.652 -0.0812  0.0838  0.1627
   21MOL   H275 7915   1.921   0.420   1.676 -0.6243  0.2856  0.7186
   21MOL   H276 7916   1.893   0.532   1.544 -0.1172  2.1887  0.9293
   21MOL   H277 7917   2.112   0.574   1.756  0.1983  1.8857 -0.6198
   21MOL   H278 7918   1.820   0.616   1.810  0.2061  1.9184 -0.4348
   21MOL   H279 7919   1.938   0.517   1.890 -0.1520 -1.0616 -1.3732
   21MOL   H280 7920   2.053   0.728   1.968 -0.6949 -1.5600  0.1868
   21MOL   H281 7921   1.920   0.822   1.893 -2.7428 -1.3734 -2.2300
   21MOL   H282 7922   1.756   0.703   2.037  0.9995 -2.3543 -1.4084
   21MOL   H283 7923   1.895   0.624   2.129 -0.7588 -1.3789 -0.6152
   21MOL   H284 7924   1.821   0.912   2.099 -2.0817  0.8841  2.0746
   21MOL   H285 7925   1.849   0.832   2.253  1.7500  2.1792  0.5120
   21MOL   H286 7926   1.981   0.861   2.145 -0.3844  0.0099 -0.7732
   21MOL   C287 7927   2.103   0.742   1.537 -0.4350  0.0695  0.8382
   21MOL   C288 7928   2.122   0.877   1.478 -0.2035  0.1346  0.4368
   21MOL   C289 7929   2.174   0.864   1.331  0.0541  0.2325 -0.0020
   21MOL   C290 7930   2.165   1.000   1.269 -0.5765  0.5389 -0.1084
   21MOL   C291 7931   2.223   1.011   1.130  0.0152 -0.1805  0.7026
   21MOL   C292 7932   2.133   0.947   1.022 -0.3298  0.2010 -0.0008
   21MOL   O293 7933   2.219   0.955   1.552 -0.0449  0.1145 -0.5805
   21MOL   H294 7934   2.061   0.677   1.459  1.5111 -0.0596 -0.1527
   21MOL   H295 7935   2.194   0.687   1.563 -1.6503 -1.2177  2.4799
   21MOL   H296 7936   2.025   0.926   1.479 -0.7003 -0.8291  0.9305
   21MOL   H297 7937   2.281   0.848   1.341  0.5985 -0.2887 -5.4885
   21MOL   H298 7938   2.133   0.793   1.260  0.3959 -0.5370  0.5568
   21MOL   H299 7939   2.059   1.015   1.250 -0.5842  0.2186 -0.3273
   21MOL   H300 7940   2.202   1.077   1.337 -1.7340 -0.4547  1.6810
   21MOL   H301 7941   2.323   0.971   1.113  0.1267  0.1723  0.5246
   21MOL   H302 7942   2.222   1.118   1.108 -0.4985  0.0010  1.5838
   21MOL   H303 7943   2.150   0.839   1.022  0.8724  0.3742  1.7215
   21MOL   H304 7944   2.028   0.977   1.033  0.5097  3.3573 -0.0666
   21MOL   H305 7945   2.170   0.980   0.925  0.8089  1.1584  0.7382
   21MOL   C306 7946   2.157   1.010   1.671  0.0262 -0.7157 -0.6237
   21MOL   C307 7947   2.224   1.146   1.718 -0.3083 -0.3357 -0.3983
   21MOL   C308 7948   2.157   1.198   1.852  0.2892  0.5126 -0.3502
   21MOL   C309 7949   2.237   1.313   1.918 -0.2457  0.0861  0.5373
   21MOL   C310 7950   2.367   1.277   1.982  0.1741 -1.0867 -0.4588
   21MOL   C311 7951   2.442   1.391   2.055  0.1779  0.9752  0.1797
   21MOL   O312 7952   2.194   1.246   1.620 -0.8589  0.2702 -0.4332
   21MOL   H313 7953   2.050   1.030   1.664 -0.1742 -0.8119  1.7678
   21MOL   H314 7954   2.164   0.932   1.747 -1.6303 -1.2197 -0.9636
   21MOL   H315 7955   2.332   1.133   1.714 -0.1916  0.4762 -0.0114
   21MOL   H316 7956   2.166   1.117   1.924 -2.8473 -1.8159 -2.3820
   21MOL   H317 7957   2.054   1.226   1.829 -0.0735 -1.7392 -1.5933
   21MOL   H318 7958   2.245   1.384   1.836  1.4754  0.8686  1.3324
   21MOL   H319 7959   2.184   1.360   2.001  0.9778  0.9109  0.8817
   21MOL   H320 7960   2.438   1.250   1.903  2.1218 -1.8690  1.4929
   21MOL   H321 7961   2.356   1.181   2.033  0.8980 -1.4900 -1.0429
   21MOL   H322 7962   2.539   1.356   2.092 -1.0363 -0.3338  2.2005
   21MOL   H323 7963   2.459   1.472   1.984  2.2001  1.1266  0.7878
   21MOL   H324 7964   2.386   1.426   2.142 -1.4922 -1.9276  0.3315
   21MOL   C325 7965   2.307   1.296   1.548  0.2929 -0.2015  0.6339
   21MOL   C326 7966   2.258   1.395   1.433 -0.5804 -0.1956  1.0562
   21MOL   C327 7967   2.372   1.444   1.340 -0.0888 -0.1848  0.0707
   21MOL   C328 7968   2.412   1.342   1.229 -0.1925 -0.0461 -0.1140
   21MOL   C329 7969   2.541   1.381   1.152 -0.0489 -0.0720 -0.2997
   21MOL   C330 7970   2.575   1.268   1.052 -0.2017 -0.8716  0.4679
   21MOL   O331 7971   2.212   1.508   1.488 -0.3453 -0.0420  0.4466
   21MOL   H332 7972   2.354   1.208   1.504 -1.4468 -0.6543 -0.4031
   21MOL   H333 7973   2.357   1.365   1.614 -1.5161  1.5158  0.2598
   21MOL   H334 7974   2.183   1.346   1.371  0.9602 -0.6895 -0.4610
   21MOL   H335 7975   2.343   1.530   1.280  0.0692 -0.5252 -0.5053
   21MOL   H336 7976   2.459   1.476   1.397  1.0131 -0.0369 -1.6386
   21MOL   H337 7977   2.442   1.250   1.280  0.6575 -0.2412 -0.9639
   21MOL   H338 7978   2.330   1.313   1.163 -2.6268  0.9074  2.4076
   21MOL   H339 7979   2.539   1.477   1.099  4.3862  0.6706  0.7029
   21MOL   H340 7980   2.613   1.392   1.233 -0.7123 -1.3489  0.4689
   21MOL   H341 7981   2.666   1.278   0.993  0.4177 -0.3232  1.4986
   21MOL   H342 7982   2.578   1.169   1.096 -0.0463 -0.1758  2.0817
   21MOL   H343 7983   2.486   1.259   0.989 -0.6160 -1.1972  1.0961
   21MOL   C344 7984   2.076   1.540   1.470  0.2426  0.0736 -0.6872
   21MOL   C345 7985   2.034   1.656   1.561 -0.1729  0.0311 -0.2823
   21MOL   C346 7986   1.932   1.745   1.490  0.7635 -0.2644  0.1773
   21MOL   C347 7987   1.896   1.874   1.571  0.1321 -0.6931 -0.4771
   21MOL   C348 7988   1.797   1.983   1.515  1.5152 -0.3045  0.2821
   21MOL   C349 7989   1.861   2.061   1.399  0.4570 -0.1881 -0.1058
   21MOL   O350 7990   1.979   1.602   1.674  0.1591 -0.2525  0.7256
   21MOL   H351 7991   2.021   1.451   1.503 -1.5935  0.7940 -1.7570
   21MOL   H352 7992   2.053   1.553   1.364 -2.0069  0.6125 -0.1608
   21MOL   H353 7993   2.122   1.717   1.582 -1.5345  1.3007  1.8799
   21MOL   H354 7994   1.839   1.690   1.473  1.1860 -0.5549 -1.1936
   21MOL   H355 7995   1.975   1.780   1.397 -2.2859  2.1200 -0.4014
   21MOL   H356 7996   1.982   1.925   1.615 -0.9490  0.7722 -0.0363
   21MOL   H357 7997   1.855   1.822   1.657 -1.6357  1.3901 -0.0146
   21MOL   H358 7998   1.754   2.050   1.590  0.0905 -2.3005  1.2830
   21MOL   H359 7999   1.707   1.930   1.484  0.8241  2.1829 -2.1739
   21MOL   H360 8000   1.872   2.000   1.309 -1.7820 -1.0281  0.1601
   21MOL   H361 8001   1.958   2.099   1.430  0.4738 -0.1862 -0.1605
   21MOL   H362 8002   1.789   2.132   1.359 -0.5453 -1.9217 -1.4732
   21MOL   C363 8003   2.038   1.622   1.796 -0.0211 -0.2075  0.1440
   21MOL   C364 8004   1.941   1.587   1.909 -0.4183 -0.0778 -0.3189
   21MOL   C365 8005   1.806   1.664   1.891  0.0500  0.6899  0.1631
   21MOL   C366 8006   1.699   1.642   2.004 -0.6529  0.4076 -0.0388
   21MOL   C367 8007   1.578   1.736   1.994  0.1108 -0.1335 -0.0864
   21MOL   C368 8008   1.498   1.700   2.122  0.6308  0.0210 -0.3425
   21MOL   O369 8009   1.916   1.448   1.898  0.0956 -0.3780 -0.6966
   21MOL   H370 8010   2.075   1.724   1.804  1.3280 -0.5566 -1.3790
   21MOL   H371 8011   2.121   1.550   1.797 -2.0798 -2.7922 -2.8621
   21MOL   H372 8012   1.974   1.605   2.011  1.3368  1.8125 -1.1842
   21MOL   H373 8013   1.837   1.768   1.899  3.6341 -0.5366  3.6420
   21MOL   H374 8014   1.756   1.645   1.796  0.4289  2.0575 -0.3095
   21MOL   H375 8015   1.661   1.539   2.005 -2.4869  0.9395 -4.2297
   21MOL   H376 8016   1.749   1.655   2.101  1.3230 -2.7057 -0.5468
   21MOL   H377 8017   1.614   1.839   1.988  1.8732 -0.6509  0.9874
   21MOL   H378 8018   1.526   1.717   1.900 -3.1672 -0.6180  1.7366
   21MOL   H379 8019   1.556   1.711   2.213 -0.5305  0.2372  0.3811
   21MOL   H380 8020   1.409   1.763   2.123  1.2185  0.8812 -0.9415
   21MOL   H381 8021   1.462   1.599   2.106 -1.7379  0.6256  0.9353
   21MOL   H382 8022   1.878   1.440   1.811  1.7632 -0.9218 -1.3896
   22MOL     C1 8023   0.594   0.139   6.500 -0.5756 -0.0435  0.7467
   22MOL     C2 8024   0.681   0.016   6.520 -0.0310  0.4738  0.1160
   22MOL     C3 8025   0.705   7.769   6.668 -0.2697  0.6088 -0.1254
   22MOL     C4 8026   0.815   7.671   6.698 -0.0175  0.7283  0.1363
   22MOL     C5 8027   0.792   7.608   6.842 -0.6835  0.3981  0.0513
   22MOL     C6 8028   0.794   7.717   6.955  0.3441  0.0202  0.6652
   22MOL     O7 8029   0.621   7.685   6.456  0.2697 -0.0700  0.0518
   22MOL     H8 8030   0.490   0.110   6.514 -0.5499 -0.8034 -0.5625
   22MOL     H9 8031   0.612   0.167   6.396  1.2803 -2.0725  0.4833
   22MOL    H10 8032   0.777   0.048   6.478 -0.1990  2.7470  1.4035
   22MOL    H11 8033   0.727   0.077   6.718 -0.7424  0.6586 -0.0109
   22MOL    H12 8034   0.608   7.735   6.705  0.1186 -0.6081 -0.1714
   22MOL    H13 8035   0.819   7.586   6.629  0.5359  0.2148  0.7967
   22MOL    H14 8036   0.916   7.710   6.688 -0.2636  0.8869 -2.0449
   22MOL    H15 8037   0.705   7.544   6.856  0.2083 -0.6409  1.0523
   22MOL    H16 8038   0.868   7.532   6.862 -0.4655  0.0610 -1.8709
   22MOL    H17 8039   0.810   7.675   7.054  1.7509  0.0947  0.4752
   22MOL    H18 8040   0.876   0.001   6.935  0.3910 -0.9617 -2.9983
   22MOL    H19 8041   0.702   7.777   6.958 -0.5788 -1.4008  1.1231
   22MOL    H20 8042   0.617   0.224   6.564  0.9856 -0.5280  0.8549
   22MOL    C21 8043   0.674   7.650   6.329  0.3950  0.6718 -0.2788
   22MOL    C22 8044   0.595   7.529   6.282  0.7886 -0.1791 -0.2686
   22MOL    C23 8045   0.447   7.554   6.251 -0.0777  0.3528  0.6370
   22MOL    C24 8046   0.363   7.431   6.287 -0.5941  0.3640 -0.1657
   22MOL    C25 8047   0.212   7.459   6.272 -0.6045 -0.1205 -0.3188
   22MOL    C26 8048   0.130   7.351   6.337  0.0091 -0.7686  0.0969
   22MOL    O27 8049   0.653   7.453   6.184 -0.1752 -0.1554  0.2631
   22MOL    H28 8050   0.659   7.739   6.267 -0.7640  0.8586  0.2631
   22MOL    H29 8051   0.781   7.627   6.322 -0.2347 -2.0155 -1.5748
   22MOL    H30 8052   0.597   7.466   6.371  0.7485 -1.5269 -1.2190
   22MOL    H31 8053   0.446   7.584   6.146 -2.5451  2.8287  1.2918
   22MOL    H32 8054   0.408   7.634   6.315 -0.4903 -0.7222  1.7525
   22MOL    H33 8055   0.374   7.388   6.386  0.5305  1.9003  0.3932
   22MOL    H34 8056   0.392   7.352   6.216  1.1598  0.3566  0.5192
   22MOL    H35 8057   0.193   7.558   6.315 -2.9684 -0.3592 -0.7278
   22MOL    H36 8058   0.183   7.467   6.167  0.5449  0.9519 -0.5664
   22MOL    H37 8059   0.128   7.252   6.291 -1.2660 -0.2429 -1.0100
   22MOL    H38 8060   0.024   7.377   6.332 -0.4526 -2.1841  1.9414
   22MOL    H39 8061   0.152   7.348   6.443 -4.1884  1.9580  1.1741
   22MOL    C40 8062   0.681   7.515   6.061 -0.3868  0.6886  0.0994
   22MOL    C41 8063   0.772   7.416   5.977 -0.3218 -0.3366  0.1934
   22MOL    C42 8064   0.845   7.477   5.855 -0.1711 -0.2444 -0.3722
   22MOL    C43 8065   0.932   7.604   5.881 -0.5059  0.7478 -0.7606
   22MOL    C44 8066   0.993   7.663   5.746 -0.4473  0.4312  0.2010
   22MOL    C45 8067   1.108   7.763   5.764  0.2534 -0.4276  0.4907
   22MOL    O46 8068   0.693   7.309   5.920  1.1665 -1.0035 -0.2381
   22MOL    H47 8069   0.729   7.613   6.069  0.4571  0.2915 -0.1216
   22MOL    H48 8070   0.588   7.537   6.008  1.5724 -1.5552 -4.4997
   22MOL    H49 8071   0.849   7.380   6.045  0.0662  1.8919  0.9485
   22MOL    H50 8072   0.912   7.404   5.810  1.6643  0.8245  0.5861
   22MOL    H51 8073   0.768   7.504   5.782 -0.3988 -0.4989 -0.2268
   22MOL    H52 8074   1.018   7.583   5.945  2.0284 -0.5797 -4.4169
   22MOL    H53 8075   0.869   7.685   5.918 -0.5787 -0.6213  2.3291
   22MOL    H54 8076   1.049   7.577   5.712 -1.4614 -0.9138  1.8723
   22MOL    H55 8077   0.916   7.674   5.670  0.6364  0.2082 -0.9345
   22MOL    H56 8078   1.174   7.733   5.845 -0.5925  0.6012  1.5731
   22MOL    H57 8079   1.152   7.784   5.666 -1.6268  3.2311  0.3708
   22MOL    H58 8080   1.061   0.071   5.794 -0.8972 -1.8512  3.3709
   22MOL    C59 8081   0.684   7.198   5.999  0.5068  0.3036  0.2285
   22MOL    C60 8082   0.553   7.126   5.953 -0.3980 -0.2228 -0.2798
   22MOL    C61 8083   0.435   7.222   5.936  0.1210 -0.4131  0.0552
   22MOL    C62 8084   0.301   7.152   5.915 -0.2303 -0.4403 -0.7184
   22MOL    C63 8085   0.192   7.243   5.872 -0.0475 -0.2194 -0.3928
   22MOL    C64 8086   0.057   7.180   5.819 -0.1028 -0.3874 -0.7221
   22MOL    O65 8087   0.574   7.065   5.825 -0.0104 -0.0364  0.2113
   22MOL    H66 8088   0.686   7.205   6.107 -0.1987 -0.4230  0.2980
   22MOL    H67 8089   0.767   7.136   5.964  0.4320 -0.3588  1.2161
   22MOL    H68 8090   0.522   7.052   6.026 -1.8278 -2.5951 -3.1847
   22MOL    H69 8091   0.453   7.292   5.854 -0.5879  1.0689  1.1323
   22MOL    H70 8092   0.433   7.286   6.024 -1.0166 -1.5867  0.9030
   22MOL    H71 8093   0.267   7.107   6.008  0.4907  0.2807 -0.0926
   22MOL    H72 8094   0.305   7.076   5.837 -1.0564  0.4599 -1.6616
   22MOL    H73 8095   0.227   7.300   5.786 -2.3296  2.3219  0.2824
   22MOL    H74 8096   0.173   7.322   5.945  0.8767  1.1263 -1.5897
   22MOL    H75 8097   7.763   7.246   5.784 -0.1731 -0.1740 -0.1652
   22MOL    H76 8098   0.074   7.116   5.732 -0.8627 -1.8586  0.1768
   22MOL    H77 8099   0.020   7.106   5.890 -1.2323 -0.9645 -1.8866
   22MOL    C78 8100   0.619   6.931   5.832 -0.4188  0.4349  1.4259
   22MOL    C79 8101   0.647   6.886   5.686 -0.5748  0.1057  0.3359
   22MOL    C80 8102   0.517   6.848   5.613 -0.1414 -0.0374 -0.8253
   22MOL    C81 8103   0.547   6.832   5.460 -0.2742  0.2052 -0.5664
   22MOL    C82 8104   0.423   6.801   5.372  0.4200  0.3338  0.1449
   22MOL    C83 8105   0.429   6.825   5.219 -0.0463 -0.2923 -0.4987
   22MOL    O84 8106   0.737   6.778   5.685 -0.3077  0.1186  0.3991
   22MOL    H85 8107   0.559   6.860   5.888 -2.8704  2.7904  1.8970
   22MOL    H86 8108   0.713   6.946   5.884  1.6740 -1.2538 -1.7064
   22MOL    H87 8109   0.693   6.968   5.630  0.3814 -1.1221 -0.7083
   22MOL    H88 8110   0.472   6.758   5.654  1.2828  0.0922  1.1120
   22MOL    H89 8111   0.447   6.930   5.624  1.0640  1.1220 -1.6888
   22MOL    H90 8112   0.618   6.750   5.448 -1.5577 -1.0623  0.4730
   22MOL    H91 8113   0.597   6.922   5.422  1.7724 -0.3698  0.6957
   22MOL    H92 8114   0.392   6.698   5.388  0.7805  0.1140 -0.5515
   22MOL    H93 8115   0.349   6.873   5.407  0.8752  1.4874 -1.2241
   22MOL    H94 8116   0.511   6.765   5.181 -0.5873  0.4760 -2.9552
   22MOL    H95 8117   0.418   6.928   5.187  3.0245  0.4629  0.7356
   22MOL    H96 8118   0.341   6.773   5.181 -1.9825  1.2926  1.6333
   22MOL    C97 8119   0.870   6.802   5.722 -1.0510  0.3503 -0.1339
   22MOL    C98 8120   0.967   6.688   5.680  0.4000  0.3949 -0.1025
   22MOL    C99 8121   0.915   6.548   5.729 -0.1401 -0.2025 -0.2536
   22MOL   C100 8122   0.996   6.435   5.670 -0.5041 -0.0710 -0.3690
   22MOL   C101 8123   0.959   6.300   5.737 -0.5272  0.4842 -0.2079
   22MOL   C102 8124   1.048   6.190   5.674  0.3614 -0.5935  0.1570
   22MOL   O103 8125   0.973   6.691   5.535 -0.1642  0.1794 -0.2714
   22MOL   H104 8126   0.864   6.816   5.830  1.4404  1.2692 -0.0797
   22MOL   H105 8127   0.903   6.895   5.674 -0.6663 -0.4005 -1.3329
   22MOL   H106 8128   1.070   6.697   5.714  1.3121 -0.3805 -2.5746
   22MOL   H107 8129   0.810   6.528   5.707 -0.0790 -1.2863  0.4148
   22MOL   H108 8130   0.925   6.565   5.836  0.9337  3.7614 -0.8851
   22MOL   H109 8131   1.103   6.455   5.670 -0.7996  1.5777  0.0224
   22MOL   H110 8132   0.968   6.429   5.564 -1.5904  0.5171 -0.1249
   22MOL   H111 8133   0.853   6.283   5.718 -0.9875  1.6624  1.2113
   22MOL   H112 8134   0.974   6.297   5.845  0.0406  1.3999 -0.2487
   22MOL   H113 8135   1.031   6.177   5.567 -0.9673 -2.6902  0.5955
   22MOL   H114 8136   1.154   6.197   5.699 -0.0741  0.4764  1.7270
   22MOL   H115 8137   1.008   6.105   5.729  1.3049 -2.2193 -1.5999
   22MOL   C116 8138   1.072   6.763   5.467  0.8288 -0.1698 -0.0721
   22MOL   C117 8139   1.032   6.802   5.322  0.1085  0.0257 -0.1891
   22MOL   C118 8140   0.915   6.905   5.331 -0.4478 -0.7077  0.0473
   22MOL   C119 8141   0.873   6.970   5.196 -0.4561 -0.3567 -0.1567
   22MOL   C120 8142   0.749   7.058   5.224  0.3469 -1.1320 -0.2449
   22MOL   C121 8143   0.744   7.177   5.119  0.1609 -0.0848 -0.4564
   22MOL   O122 8144   0.992   6.688   5.259 -0.8911 -0.0988 -0.1219
   22MOL   H123 8145   1.082   6.854   5.527 -0.6422  0.4850 -0.7958
   22MOL   H124 8146   1.168   6.712   5.462  1.8974  1.7213  0.4765
   22MOL   H125 8147   1.123   6.842   5.278  0.5787 -1.8693 -0.9763
   22MOL   H126 8148   0.824   6.858   5.368 -1.3095  0.3275 -0.6873
   22MOL   H127 8149   0.937   6.994   5.390 -1.8620  0.2219 -0.7855
   22MOL   H128 8150   0.858   6.901   5.113 -0.1558 -0.4086 -0.1674
   22MOL   H129 8151   0.961   7.026   5.164 -0.2847 -0.4029  0.2363
   22MOL   H130 8152   0.662   6.994   5.209 -0.5927  0.7316 -3.0273
   22MOL   H131 8153   0.732   7.084   5.329 -0.5586  1.9613 -1.1209
   22MOL   H132 8154   0.650   7.232   5.123  0.7554  0.8503  2.0356
   22MOL   H133 8155   0.828   7.246   5.134 -0.2454  0.1787  0.6188
   22MOL   H134 8156   0.763   7.132   5.022  2.1110 -0.8764  0.2657
   22MOL   C135 8157   1.075   6.576   5.217 -0.3597 -0.6436 -0.1915
   22MOL   C136 8158   0.973   6.461   5.169  0.1763 -0.9291 -0.5205
   22MOL   C137 8159   1.061   6.331   5.152 -0.2171  0.8352  0.1956
   22MOL   C138 8160   0.986   6.232   5.057 -0.5579  0.5396 -0.7609
   22MOL   C139 8161   1.059   6.106   5.028  0.0116  0.4875 -0.3587
   22MOL   C140 8162   1.194   6.126   4.948  0.6191 -0.5920 -0.4543
   22MOL   O141 8163   0.915   6.496   5.046 -0.0226 -0.0998 -0.1456
   22MOL   H142 8164   1.139   6.600   5.131 -2.0024  0.5263 -1.1304
   22MOL   H143 8165   1.132   6.541   5.303 -2.6413  0.6809  1.9210
   22MOL   H144 8166   0.899   6.442   5.247 -0.9062 -0.7875 -1.4997
   22MOL   H145 8167   1.160   6.355   5.114  0.2868  0.0671  1.0037
   22MOL   H146 8168   1.088   6.289   5.249  1.4829 -0.7592 -0.9430
   22MOL   H147 8169   0.967   6.284   4.963  0.4987  2.6873  0.1767
   22MOL   H148 8170   0.889   6.207   5.099 -0.3736  0.2575 -0.4997
   22MOL   H149 8171   0.993   6.036   4.976  2.1228 -0.7838 -1.4257
   22MOL   H150 8172   1.080   6.061   5.126  0.3029 -0.2608 -0.7575
   22MOL   H151 8173   1.183   6.173   4.850  3.4852 -1.7058 -1.3541
   22MOL   H152 8174   1.276   6.176   5.000 -0.0359  1.9762 -1.7729
   22MOL   H153 8175   1.227   6.024   4.933 -1.4319 -1.1216 -1.6489
   22MOL   C154 8176   0.779   6.516   5.044  0.2553 -0.7590  0.4193
   22MOL   C155 8177   0.736   6.527   4.900  0.3744  0.1925  0.7115
   22MOL   C156 8178   0.585   6.488   4.875  0.0731 -0.3834 -0.1319
   22MOL   C157 8179   0.548   6.497   4.725  0.1754 -0.3576  0.2730
   22MOL   C158 8180   0.394   6.498   4.689 -0.5550 -0.0437 -0.7535
   22MOL   C159 8181   0.314   6.379   4.747 -0.5586  0.3152  0.0595
   22MOL   O160 8182   0.738   6.664   4.870  0.4106  0.1380 -0.1320
   22MOL   H161 8183   0.762   6.609   5.098  0.4820 -0.5357  0.1089
   22MOL   H162 8184   0.722   6.435   5.091 -1.4792  1.0353  1.4764
   22MOL   H163 8185   0.801   6.470   4.833  1.0808  1.5854  0.1853
   22MOL   H164 8186   0.517   6.553   4.931  0.0852  0.3719 -0.9898
   22MOL   H165 8187   0.564   6.387   4.911  0.1155  0.3264  1.9794
   22MOL   H166 8188   0.596   6.416   4.669  2.9761 -0.0557  2.1034
   22MOL   H167 8189   0.603   6.581   4.682  0.8075 -0.8808  0.0429
   22MOL   H168 8190   0.349   6.587   4.733  2.5154  0.0920  2.3948
   22MOL   H169 8191   0.380   6.510   4.581  1.2696  0.4995 -0.9504
   22MOL   H170 8192   0.206   6.392   4.739 -0.5995  0.0537  0.1507
   22MOL   H171 8193   0.344   6.354   4.849  0.3419 -0.2955 -0.3448
   22MOL   H172 8194   0.339   6.288   4.692  1.5259  0.2631  1.0658
   22MOL   C173 8195   0.849   6.715   4.796 -0.0103 -0.0712  0.1140
   22MOL   C174 8196   0.826   6.864   4.776 -0.3811 -0.5130 -0.5828
   22MOL   C175 8197   0.963   6.934   4.749  1.3019 -0.5073  0.2542
   22MOL   C176 8198   1.048   6.946   4.870 -0.7007  0.1372 -0.4016
   22MOL   C177 8199   1.192   6.973   4.831  0.0275  0.3649 -0.5311
   22MOL   C178 8200   1.273   6.956   4.950 -0.2331  0.3555  0.4981
   22MOL   O179 8201   0.737   6.892   4.669 -0.4531 -0.8775  0.2391
   22MOL   H180 8202   0.875   6.669   4.700  1.1364  1.6137 -0.3996
   22MOL   H181 8203   0.935   6.690   4.858 -1.7110 -3.0604  1.3743
   22MOL   H182 8204   0.784   6.898   4.871 -0.2856 -0.2423 -0.6369
   22MOL   H183 8205   1.011   6.887   4.663  1.1418  0.5785 -0.4413
   22MOL   H184 8206   0.942   7.036   4.716  1.4819 -0.0653  1.5020
   22MOL   H185 8207   1.026   7.040   4.922  1.8214  0.5554 -0.0487
   22MOL   H186 8208   1.045   6.869   4.946  1.0712  0.8742  0.4517
   22MOL   H187 8209   1.229   6.901   4.757  2.4173 -0.4225  1.3600
   22MOL   H188 8210   1.211   7.070   4.785 -0.1478  0.3520 -0.6309
   22MOL   H189 8211   1.274   6.849   4.973  0.0107 -0.4714 -2.9779
   22MOL   H190 8212   1.230   7.007   5.036  0.6048  0.1137  1.0713
   22MOL   H191 8213   1.379   6.977   4.936 -0.2703 -0.2836 -0.8714
   22MOL   C192 8214   0.596   6.882   4.688 -0.3814  0.2676  0.3319
   22MOL   C193 8215   0.531   6.992   4.764  0.0423 -0.4945 -0.1025
   22MOL   C194 8216   0.403   6.944   4.832  0.4262 -0.0461  0.4191
   22MOL   C195 8217   0.337   7.063   4.911  0.6445  0.2447 -0.0817
   22MOL   C196 8218   0.194   7.033   4.961  0.3550 -0.9282  0.0299
   22MOL   C197 8219   0.084   7.035   4.845  0.4252  0.4688 -0.3031
   22MOL   O198 8220   0.499   7.094   4.671  0.0720  0.4215 -0.8921
   22MOL   H199 8221   0.546   6.877   4.591 -0.5847 -2.2126  0.5345
   22MOL   H200 8222   0.580   6.786   4.738 -1.2636 -0.7747 -1.8536
   22MOL   H201 8223   0.593   7.027   4.846  1.0296 -0.2504 -0.9313
   22MOL   H202 8224   0.334   6.903   4.759 -0.7030 -0.0850  1.4815
   22MOL   H203 8225   0.434   6.862   4.896  1.4336 -1.4784 -1.8629
   22MOL   H204 8226   0.339   7.154   4.850 -0.2245  0.3436  0.0353
   22MOL   H205 8227   0.404   7.079   4.995 -1.7347  0.4819  1.8277
   22MOL   H206 8228   0.195   6.933   5.004  2.9495 -1.2977 -0.8202
   22MOL   H207 8229   0.161   7.110   5.031  0.8919 -1.4929  0.9109
   22MOL   H208 8230   0.117   7.010   4.744 -1.5001 -1.0834 -0.5664
   22MOL   H209 8231   0.001   6.969   4.869  1.3409 -0.8528 -0.7092
   22MOL   H210 8232   0.032   7.130   4.840 -0.6045 -0.1220 -1.0407
   22MOL   C211 8233   0.619   7.176   4.637  0.0344 -0.5623 -0.4801
   22MOL   C212 8234   0.658   7.275   4.738 -0.0153  0.0589  0.2056
   22MOL   C213 8235   0.547   7.382   4.735 -0.0245  0.2696 -0.1893
   22MOL   C214 8236   0.562   7.450   4.875  0.2726 -0.0654  0.0342
   22MOL   C215 8237   0.455   7.553   4.905 -0.5183  0.0615  0.0324
   22MOL   C216 8238   0.481   7.620   5.034  0.0902 -0.1857 -0.5478
   22MOL   O217 8239   0.777   7.348   4.700 -0.3850  0.0330 -0.1728
   22MOL   H218 8240   0.581   7.215   4.543 -0.1250  0.1020 -0.1388
   22MOL   H219 8241   0.709   7.117   4.618  1.5338  1.0701  1.4416
   22MOL   H220 8242   0.675   7.220   4.830 -0.6635 -2.2587 -1.0187
   22MOL   H221 8243   0.565   7.458   4.658 -2.4805 -0.7382 -1.8030
   22MOL   H222 8244   0.450   7.333   4.727 -0.1105  0.0881  1.7234
   22MOL   H223 8245   0.547   7.374   4.952 -2.6194 -0.8794 -1.2417
   22MOL   H224 8246   0.661   7.495   4.879  0.2739 -0.1752  1.8160
   22MOL   H225 8247   0.463   7.629   4.827 -2.1137 -0.9638 -1.1414
   22MOL   H226 8248   0.355   7.511   4.895 -0.4717 -0.1902  0.6079
   22MOL   H227 8249   0.460   7.547   5.112  0.2360 -0.3394 -0.6531
   22MOL   H228 8250   0.426   7.712   5.054  1.1209  0.6506 -1.4869
   22MOL   H229 8251   0.588   7.637   5.045 -0.0961 -0.4801  2.0608
   22MOL   C230 8252   0.893   7.329   4.786 -0.3792  0.4950  0.0954
   22MOL   C231 8253   1.010   7.425   4.742  0.9384  0.2267 -0.4914
   22MOL   C232 8254   1.101   7.382   4.624 -0.2261 -0.1656 -0.3180
   22MOL   C233 8255   1.032   7.386   4.487 -0.3459  0.1462  0.2528
   22MOL   C234 8256   1.125   7.325   4.374  0.4974 -0.1778  0.2056
   22MOL   C235 8257   1.071   7.339   4.228 -0.6673 -0.0432 -0.0271
   22MOL   O236 8258   1.082   7.450   4.865 -0.2704  0.1820  0.7806
   22MOL   H237 8259   0.865   7.346   4.890 -0.2541 -2.0304  0.5741
   22MOL   H238 8260   0.932   7.227   4.788 -0.6251  0.3930  3.7055
   22MOL   H239 8261   0.964   7.519   4.714 -0.8763  0.3311  2.6119
   22MOL   H240 8262   1.146   7.285   4.647 -0.9252 -0.4160 -0.0177
   22MOL   H241 8263   1.191   7.444   4.624 -0.6720  0.4839 -0.5259
   22MOL   H242 8264   1.014   7.492   4.466  0.2059 -0.1171 -1.6327
   22MOL   H243 8265   0.943   7.323   4.492 -0.0101 -0.2724  1.0048
   22MOL   H244 8266   1.218   7.383   4.373 -0.4292  1.3174 -0.4658
   22MOL   H245 8267   1.154   7.222   4.394  1.9832  0.4294  1.3126
   22MOL   H246 8268   1.066   7.443   4.194  1.3629  0.1526  0.2159
   22MOL   H247 8269   0.965   7.318   4.224 -0.9461  1.0800  0.9002
   22MOL   H248 8270   1.124   7.272   4.161  0.0258 -0.0474  0.5127
   22MOL   C249 8271   1.133   7.341   4.943 -0.4625 -0.1997 -0.0557
   22MOL   C250 8272   1.219   7.400   5.056  0.4079 -0.5966  0.3706
   22MOL   C251 8273   1.322   7.301   5.092 -0.1123 -0.7192  1.0026
   22MOL   C252 8274   1.400   7.337   5.222  0.3423  0.3091  0.4127
   22MOL   C253 8275   1.526   7.244   5.245  0.0834 -0.5230 -0.2868
   22MOL   C254 8276   1.517   7.094   5.254 -0.1762  0.1182  0.1924
   22MOL   O255 8277   1.147   7.439   5.169  0.3059 -0.1073 -0.0970
   22MOL   H256 8278   1.066   7.271   4.993  0.2413 -0.6436  0.2810
   22MOL   H257 8279   1.195   7.278   4.879  0.5320 -0.2015  0.8993
   22MOL   H258 8280   1.261   7.489   5.011  0.8932 -0.6832  0.6519
   22MOL   H259 8281   1.286   7.199   5.107  0.5567 -0.7228  2.7611
   22MOL   H260 8282   1.392   7.293   5.009 -1.8948  0.6972 -0.6699
   22MOL   H261 8283   1.438   7.439   5.222  2.0531 -0.3055  0.5750
   22MOL   H262 8284   1.338   7.320   5.311  0.7976  0.7171  0.8133
   22MOL   H263 8285   1.596   7.271   5.165  0.6371  0.1743  0.4300
   22MOL   H264 8286   1.579   7.278   5.334 -0.6214 -1.4537  0.4861
   22MOL   H265 8287   1.519   7.055   5.152 -1.7646  1.3882 -0.3394
   22MOL   H266 8288   1.428   7.069   5.311  0.1778 -1.3048  0.1232
   22MOL   H267 8289   1.604   7.061   5.312 -0.3508 -0.3020  0.2153
   22MOL   C268 8290   1.057   7.541   5.144  0.3321 -0.2745 -0.5450
   22MOL   C269 8291   1.010   7.586   5.278  0.3072 -0.2424 -0.0267
   22MOL   C270 8292   0.925   7.486   5.357 -0.8116  0.2558 -0.2280
   22MOL   C271 8293   0.998   7.364   5.413  0.2082  0.5621  0.0277
   22MOL   C272 8294   0.907   7.293   5.521  0.0734 -0.9054 -0.3902
   22MOL   C273 8295   0.984   7.212   5.618  0.4632  0.2417 -0.0082
   22MOL   O274 8296   0.944   7.711   5.263 -0.0351  0.2824  0.3804
   22MOL   H275 8297   0.981   7.516   5.069 -0.0340  0.0358 -0.2829
   22MOL   H276 8298   1.112   7.627   5.107 -1.1133  0.9202  0.0551
   22MOL   H277 8299   1.102   7.599   5.336 -0.8350 -1.2189  2.0296
   22MOL   H278 8300   0.883   7.537   5.444  2.5463  1.1745  0.9063
   22MOL   H279 8301   0.847   7.457   5.286  0.3263  2.1064 -2.2907
   22MOL   H280 8302   1.035   7.293   5.339 -0.5863 -0.9494  1.0511
   22MOL   H281 8303   1.080   7.414   5.465 -0.4303  2.5319 -0.8163
   22MOL   H282 8304   0.846   7.371   5.567  1.4483 -1.2564  2.1083
   22MOL   H283 8305   0.839   7.235   5.459 -1.3972 -1.3435  1.5568
   22MOL   H284 8306   0.912   7.160   5.681  0.5836 -0.5861 -0.5491
   22MOL   H285 8307   1.035   7.143   5.549  0.6218  0.9075 -0.5625
   22MOL   H286 8308   1.061   7.267   5.672  0.2239 -2.6875  3.4745
   22MOL   C287 8309   0.964   0.023   5.362  1.0226  0.4851  0.1847
   22MOL   C288 8310   0.845   0.121   5.376  0.4069  0.3968 -0.2563
   22MOL   C289 8311   0.908   0.247   5.437  1.0206 -0.0670  0.4837
   22MOL   C290 8312   0.975   0.225   5.576  0.1344 -0.1199  0.2790
   22MOL   C291 8313   1.007   0.360   5.634 -0.1482  0.4564 -0.3725
   22MOL   C292 8314   1.119   0.433   5.572 -0.0242 -0.2260 -0.4961
   22MOL   O293 8315   0.756   0.059   5.464  0.7469  0.0739 -0.5990
   22MOL   H294 8316   1.056   0.080   5.350 -0.7466  3.0334 -1.9638
   22MOL   H295 8317   0.976   7.758   5.457 -1.0050 -0.8263 -0.2119
   22MOL   H296 8318   0.804   0.132   5.275  1.5918  0.2208 -0.7776
   22MOL   H297 8319   0.989   0.274   5.369  1.6202 -2.1175  0.3489
   22MOL   H298 8320   0.827   0.320   5.433  1.2349  0.1232 -0.4389
   22MOL   H299 8321   0.912   0.161   5.638 -2.2143  1.4643 -0.3904
   22MOL   H300 8322   1.066   0.171   5.552 -1.6221 -2.9206 -0.2916
   22MOL   H301 8323   1.032   0.347   5.739 -0.4419  0.1962 -0.3330
   22MOL   H302 8324   0.914   0.417   5.632  0.3734  1.5415  3.3913
   22MOL   H303 8325   1.199   0.365   5.542  1.7505  0.1135  3.2660
   22MOL   H304 8326   1.094   0.483   5.478 -1.8096  1.9559  1.0959
   22MOL   H305 8327   1.166   0.491   5.651  2.3073 -0.9436 -1.3175
   22MOL   C306 8328   0.653   7.782   5.396 -0.2499  0.1379  0.1047
   22MOL   C307 8329   0.601   7.668   5.486 -0.4636 -0.1238  0.7452
   22MOL   C308 8330   0.535   7.555   5.407 -0.0729 -0.0368 -0.3419
   22MOL   C309 8331   0.511   7.431   5.480  0.2784  0.0962 -0.2397
   22MOL   C310 8332   0.441   7.334   5.374 -0.7885  0.5147  0.3149
   22MOL   C311 8333   0.408   7.213   5.463 -0.3145 -0.1107  0.3880
   22MOL   O312 8334   0.511   7.720   5.586 -0.0898  0.3235  0.0143
   22MOL   H313 8335   0.569   0.062   5.373  1.7545  2.3529 -1.1382
   22MOL   H314 8336   0.703   7.739   5.310 -2.4456 -0.6401 -0.8057
   22MOL   H315 8337   0.688   7.622   5.533  1.0594 -1.0780 -2.8150
   22MOL   H316 8338   0.595   7.543   5.317 -0.7407 -0.1326 -0.7746
   22MOL   H317 8339   0.440   7.588   5.365  0.6176  1.5719 -0.7050
   22MOL   H318 8340   0.592   7.384   5.536 -0.0008  2.4025  2.1754
   22MOL   H319 8341   0.452   7.462   5.565  2.0006  0.2269  0.9240
   22MOL   H320 8342   0.512   7.307   5.296 -0.2055  2.2755  0.2105
   22MOL   H321 8343   0.357   7.381   5.321 -1.0757  0.3912  0.6612
   22MOL   H322 8344   0.340   7.236   5.545 -0.1134  0.4281  0.4012
   22MOL   H323 8345   0.356   7.148   5.392 -1.5689 -0.5316  1.6844
   22MOL   H324 8346   0.498   7.164   5.499 -0.7154 -0.9251  0.2942
   22MOL   C325 8347   0.575   7.742   5.708 -0.3179  0.1886  0.0083
   22MOL   C326 8348   0.484   0.037   5.804 -0.3648  0.0109 -0.3929
   22MOL   C327 8349   0.564   0.134   5.896 -0.0355 -0.2492 -0.0579
   22MOL   C328 8350   0.481   0.215   5.999 -0.1669  0.4717 -0.1368
   22MOL   C329 8351   0.571   0.286   6.099 -0.5205 -0.1687  0.2370
   22MOL   C330 8352   0.493   0.375   6.197  0.1730 -0.2185 -0.3830
   22MOL   O331 8353   0.427   7.737   5.900  0.8140  0.2032  0.1603
   22MOL   H332 8354   0.667   0.015   5.699  0.1898  0.0836  3.7309
   22MOL   H333 8355   0.599   7.649   5.759 -0.2369 -0.0702 -0.4916
   22MOL   H334 8356   0.414   0.106   5.756 -0.3217  0.4021  0.0922
   22MOL   H335 8357   0.635   0.078   5.956  1.3074  2.2870  0.8064
   22MOL   H336 8358   0.617   0.205   5.832  0.2021  0.0261  0.4437
   22MOL   H337 8359   0.417   0.286   5.947 -0.7062 -0.3532 -0.6123
   22MOL   H338 8360   0.416   0.142   6.048 -1.1380  1.5316  0.1706
   22MOL   H339 8361   0.628   0.211   6.155  1.3792  1.6735  0.8562
   22MOL   H340 8362   0.642   0.355   6.053 -0.3955 -1.2548 -1.2482
   22MOL   H341 8363   0.412   0.435   6.155 -0.8351 -2.4196 -1.6887
   22MOL   H342 8364   0.449   0.311   6.273 -0.5889 -1.6137 -1.9537
   22MOL   H343 8365   0.556   0.442   6.255 -1.7704 -0.0353  1.6051
   22MOL   C344 8366   0.335   7.638   5.844  0.6371  0.3866  0.0340
   22MOL   C345 8367   0.196   7.672   5.791  0.0022 -0.2665 -0.2462
   22MOL   C346 8368   0.140   7.578   5.675  0.1762 -0.1393  0.0523
   22MOL   C347 8369   0.027   7.643   5.607 -0.4975 -0.0139 -0.1863
   22MOL   C348 8370   0.062   7.749   5.504  0.2288 -0.1173  0.0609
   22MOL   C349 8371   0.083   7.687   5.365  0.2407  0.2410  0.6658
   22MOL   O350 8372   0.097   7.676   5.891 -0.5312 -0.0952 -0.1500
   22MOL   H351 8373   0.324   7.570   5.928  1.1457 -2.4130 -2.0856
   22MOL   H352 8374   0.387   7.578   5.769  0.3781 -2.4497  2.0378
   22MOL   H353 8375   0.215   7.766   5.740 -1.3492  0.0525 -0.1924
   22MOL   H354 8376   0.112   7.479   5.712  2.0030 -1.2972 -1.5469
   22MOL   H355 8377   0.224   7.560   5.608  1.9030  1.6699  1.7014
   22MOL   H356 8378   7.757   7.691   5.688  0.9276 -0.7832  1.2694
   22MOL   H357 8379   7.738   7.578   5.562 -0.7978 -0.2803  0.6730
   22MOL   H358 8380   0.148   0.026   5.526  0.7233  0.2154 -2.5783
   22MOL   H359 8381   7.764   0.032   5.490  0.9755  0.7298 -0.3117
   22MOL   H360 8382   0.042   7.755   5.290 -0.3888 -2.4633 -1.5305
   22MOL   H361 8383   0.043   7.587   5.348 -1.3748  0.6987  1.7207
   22MOL   H362 8384   0.186   7.689   5.328 -0.0514 -0.8994 -0.2423
   22MOL   C363 8385   0.117   7.779   5.992  0.0369 -0.1745  0.0765
   22MOL   C364 8386   7.770   0.024   6.067 -0.0385  0.0172 -0.0977
   22MOL   C365 8387   7.651   0.038   5.978 -0.5864  0.0570 -0.0079
   22MOL   C366 8388   7.517   0.084   6.043 -0.5693 -0.2674  0.2462
   22MOL   C367 8389   7.395   0.076   5.953  0.2474  0.1453  0.4678
   22MOL   C368 8390   7.263   0.062   6.024  0.2068 -0.2227  0.3928
   22MOL   O369 8391   7.740   7.702   6.150  0.2548 -0.3458 -0.4492
   22MOL   H370 8392   0.160   0.084   5.948  0.4799 -0.2693  0.3053
   22MOL   H371 8393   0.198   7.745   6.056  1.8794  2.2781 -0.8559
   22MOL   H372 8394   7.780   0.116   6.124  0.1820 -0.6656  0.9846
   22MOL   H373 8395   7.683   0.112   5.905  0.1876  3.2453  3.3648
   22MOL   H374 8396   7.642   7.733   5.918  2.1936 -0.4254  0.2219
   22MOL   H375 8397   7.502   0.011   6.123  1.7426 -1.5790 -0.4984
   22MOL   H376 8398   7.532   0.186   6.078 -1.2325 -0.0474 -0.0852
   22MOL   H377 8399   7.387   0.163   5.888 -0.4385 -0.8665 -0.8322
   22MOL   H378 8400   7.401   7.773   5.889  0.5628 -0.5661  1.4675
   22MOL   H379 8401   7.238   0.150   6.083 -0.0730 -0.1260  0.1289
   22MOL   H380 8402   7.181   0.027   5.962  0.5001 -0.7070  0.2747
   22MOL   H381 8403   7.277   7.762   6.091  0.9618  0.3273  0.9390
   22MOL   H382 8404   7.755   7.620   6.106 -0.1621 -1.6457  1.7498
   23MOL     C1 8405   6.298   5.722   5.750 -0.3590 -0.4810 -0.0620
   23MOL     C2 8406   6.371   5.855   5.722 -0.1347  0.0681  0.0192
   23MOL     C3 8407   6.322   5.921   5.587 -0.4300  0.4595  0.0633
   23MOL     C4 8408   6.330   5.835   5.460  0.1238  0.5999 -0.5075
   23MOL     C5 8409   6.251   5.894   5.345  0.1292 -0.1759  0.1538
   23MOL     C6 8410   6.295   5.836   5.213  0.2716  0.5082  0.7389
   23MOL     O7 8411   6.327   5.958   5.813 -0.5587 -0.2169  0.3720
   23MOL     H8 8412   6.193   5.738   5.729 -0.3185  2.0784  1.3707
   23MOL     H9 8413   6.303   5.703   5.858  1.8819 -0.3089 -0.0993
   23MOL    H10 8414   6.477   5.832   5.731  0.1294  1.2274 -0.0531
   23MOL    H11 8415   6.221   5.959   5.600 -0.5543  0.3296 -0.4767
   23MOL    H12 8416   6.383   6.009   5.570  0.1876 -0.1203 -0.7671
   23MOL    H13 8417   6.433   5.829   5.428  0.3729 -2.4370  0.6181
   23MOL    H14 8418   6.296   5.735   5.489  0.1520  1.0841  1.2655
   23MOL    H15 8419   6.144   5.879   5.361 -0.0072  0.6657  0.0568
   23MOL    H16 8420   6.254   6.003   5.349 -1.6559 -0.1087  0.0854
   23MOL    H17 8421   6.229   5.853   5.128  0.5040  1.5634  0.7664
   23MOL    H18 8422   6.400   5.859   5.194  0.4097 -1.5345 -1.1329
   23MOL    H19 8423   6.281   5.728   5.218 -2.4547  0.7524 -0.6554
   23MOL    H20 8424   6.333   5.631   5.702  0.2312 -0.8027  0.9508
   23MOL    C21 8425   6.416   6.066   5.853  0.1117  0.4108  0.2794
   23MOL    C22 8426   6.333   6.174   5.926 -0.5444 -0.0190 -0.4838
   23MOL    C23 8427   6.429   6.291   5.979  0.1861  0.1883 -0.7467
   23MOL    C24 8428   6.343   6.407   6.037 -0.2156  0.2462 -0.0263
   23MOL    C25 8429   6.405   6.496   6.135 -0.1351 -0.9267 -0.5565
   23MOL    C26 8430   6.308   6.608   6.192 -0.0036 -0.1937  0.2630
   23MOL    O27 8431   6.231   6.230   5.837  0.1463 -0.1456  0.4580
   23MOL    H28 8432   6.480   6.025   5.932 -0.7968 -1.3878  0.1074
   23MOL    H29 8433   6.454   6.114   5.763 -0.8679  0.8325  0.0833
   23MOL    H30 8434   6.292   6.122   6.013 -0.3443  1.0293  0.2495
   23MOL    H31 8435   6.493   6.333   5.902 -1.4344  2.0421 -1.1438
   23MOL    H32 8436   6.503   6.256   6.051  0.5680 -0.4354 -1.4381
   23MOL    H33 8437   6.261   6.359   6.091  0.4135 -1.0128 -0.1667
   23MOL    H34 8438   6.303   6.465   5.954  3.4849  1.4587 -1.0347
   23MOL    H35 8439   6.442   6.438   6.219  1.4044  1.0349  0.1436
   23MOL    H36 8440   6.496   6.548   6.106 -0.9014  0.8419  0.1182
   23MOL    H37 8441   6.276   6.657   6.100  2.4644  0.9488 -0.0382
   23MOL    H38 8442   6.358   6.677   6.259 -1.7177  0.5643  0.7750
   23MOL    H39 8443   6.236   6.547   6.246  0.3253  0.4204  1.4167
   23MOL    C40 8444   6.109   6.164   5.842  0.2853  0.4983  0.3896
   23MOL    C41 8445   5.997   6.238   5.771  0.1236  0.1584 -0.1365
   23MOL    C42 8446   6.028   6.243   5.614  0.9047 -0.1190 -0.4461
   23MOL    C43 8447   5.898   6.271   5.540  0.2777 -0.4929 -0.3986
   23MOL    C44 8448   5.806   6.154   5.521 -0.0792 -0.5703 -0.1998
   23MOL    C45 8449   5.678   6.200   5.444 -0.9685 -0.2488 -0.0447
   23MOL    O46 8450   5.985   6.372   5.816 -0.2287 -0.5050 -0.1451
   23MOL    H47 8451   6.085   6.163   5.948  1.8763  0.9502  0.7609
   23MOL    H48 8452   6.117   6.061   5.806  0.1068  0.2791  0.9685
   23MOL    H49 8453   5.902   6.186   5.784  0.4113 -0.0734  1.1073
   23MOL    H50 8454   6.104   6.317   5.593 -2.3003  3.9265  1.5777
   23MOL    H51 8455   6.065   6.148   5.575  0.3618  0.3863 -2.2290
   23MOL    H52 8456   5.926   6.318   5.446 -1.5598  0.5657 -0.4410
   23MOL    H53 8457   5.838   6.347   5.590  0.4100 -0.1518 -0.7595
   23MOL    H54 8458   5.857   6.073   5.469  0.7055  0.9307 -1.8012
   23MOL    H55 8459   5.776   6.108   5.615  1.5229 -0.9332  0.1542
   23MOL    H56 8460   5.655   6.300   5.480  0.9792  0.1398  0.1617
   23MOL    H57 8461   5.681   6.196   5.336 -0.5898  0.1420 -0.0502
   23MOL    H58 8462   5.601   6.135   5.486 -1.7151  1.8454  1.9559
   23MOL    C59 8463   5.959   6.395   5.954  0.6457 -0.6492  0.3980
   23MOL    C60 8464   5.939   6.543   5.974 -0.3448  0.4527 -0.6496
   23MOL    C61 8465   5.839   6.618   5.882 -0.0655 -0.1422  0.2226
   23MOL    C62 8466   5.824   6.761   5.923 -0.7318 -0.0798  0.0342
   23MOL    C63 8467   5.771   6.850   5.808 -0.7150  0.0813 -0.8274
   23MOL    C64 8468   5.773   7.003   5.832  0.5205  0.3991  0.2376
   23MOL    O65 8469   5.871   6.560   6.094  0.4959  0.0170  0.3249
   23MOL    H66 8470   6.043   6.374   6.020  1.8636  2.6400  0.0013
   23MOL    H67 8471   5.868   6.343   5.985 -0.7583  2.2491  1.2507
   23MOL    H68 8472   6.040   6.585   5.968 -0.6767  1.8430  2.1769
   23MOL    H69 8473   5.740   6.575   5.870 -1.3141  2.2979  1.1586
   23MOL    H70 8474   5.872   6.606   5.779  0.9708  1.9240  0.2786
   23MOL    H71 8475   5.911   6.802   5.975 -0.6150  1.0004 -0.9879
   23MOL    H72 8476   5.746   6.769   5.998 -0.6553  0.9536  0.0229
   23MOL    H73 8477   5.666   6.826   5.787 -1.7439  2.3473  1.4317
   23MOL    H74 8478   5.814   6.817   5.714 -0.5032  0.2296 -0.7809
   23MOL    H75 8479   5.873   7.047   5.837  0.7603 -0.0734 -0.3710
   23MOL    H76 8480   5.722   7.064   5.758  4.2870  0.4985 -2.4010
   23MOL    H77 8481   5.731   7.027   5.930  2.4176 -0.2523  1.2594
   23MOL    C78 8482   5.945   6.560   6.210 -0.3268 -0.4626 -0.8937
   23MOL    C79 8483   5.858   6.544   6.331 -0.2841 -0.4907 -0.6439
   23MOL    C80 8484   5.789   6.402   6.332  0.2433  0.2866 -0.5968
   23MOL    C81 8485   5.721   6.354   6.464  0.2664  0.1732  0.0228
   23MOL    C82 8486   5.658   6.213   6.469  0.0145 -0.6505 -0.1821
   23MOL    C83 8487   5.630   6.149   6.609 -0.8182  0.0755  0.5550
   23MOL    O84 8488   5.770   6.649   6.370  0.1168  0.2471  0.5575
   23MOL    H85 8489   5.992   6.659   6.210  0.3362 -0.7778 -0.8047
   23MOL    H86 8490   6.024   6.485   6.216  0.0912 -0.1187 -1.9818
   23MOL    H87 8491   5.932   6.531   6.410 -0.8002  0.4007 -0.0004
   23MOL    H88 8492   5.710   6.400   6.256 -1.1359  0.5474  0.8007
   23MOL    H89 8493   5.859   6.334   6.284  1.3779  2.4149 -2.0130
   23MOL    H90 8494   5.631   6.410   6.485 -0.6710 -0.7824 -1.3285
   23MOL    H91 8495   5.794   6.370   6.544 -1.6466  1.0881  1.5995
   23MOL    H92 8496   5.573   6.205   6.402 -1.9335  2.2495  1.8032
   23MOL    H93 8497   5.735   6.154   6.420 -0.9141 -1.4172 -0.7524
   23MOL    H94 8498   5.552   6.205   6.661 -2.0802 -2.0796  1.0392
   23MOL    H95 8499   5.715   6.142   6.676 -0.4500 -0.4014  0.0344
   23MOL    H96 8500   5.603   6.045   6.593  0.4951 -0.3448  1.0378
   23MOL    C97 8501   5.717   6.734   6.259 -0.0234 -0.0510 -0.3382
   23MOL    C98 8502   5.627   6.846   6.309 -0.6355 -0.1068 -0.4989
   23MOL    C99 8503   5.617   6.969   6.215 -0.1185 -0.7788 -0.5792
   23MOL   C100 8504   5.559   7.092   6.286 -0.3992  0.0174  0.2670
   23MOL   C101 8505   5.547   7.209   6.188 -0.9807 -0.3487  0.7833
   23MOL   C102 8506   5.429   7.183   6.091  0.3134 -0.0391  0.1310
   23MOL   O103 8507   5.489   6.805   6.319  0.2525 -0.6505  0.1230
   23MOL   H104 8508   5.662   6.678   6.182 -3.0372  2.3896 -0.0632
   23MOL   H105 8509   5.800   6.786   6.213  0.8572 -0.0507  1.2149
   23MOL   H106 8510   5.664   6.890   6.402  0.2355 -1.6400 -0.0872
   23MOL   H107 8511   5.557   6.938   6.129 -2.8879 -0.8885  1.3030
   23MOL   H108 8512   5.715   6.994   6.176  1.2561 -3.5698  0.9213
   23MOL   H109 8513   5.625   7.110   6.371  0.9158 -2.4748 -0.2078
   23MOL   H110 8514   5.460   7.074   6.328 -0.3765 -0.9608 -0.0819
   23MOL   H111 8515   5.637   7.230   6.130 -0.0032 -2.2403  1.5944
   23MOL   H112 8516   5.511   7.297   6.242 -1.1758 -0.6652  1.1724
   23MOL   H113 8517   5.420   7.270   6.027 -2.9583 -1.0567 -0.8885
   23MOL   H114 8518   5.463   7.107   6.020  1.8126  3.3352 -2.8946
   23MOL   H115 8519   5.329   7.171   6.132  0.5284  0.1682  0.7155
   23MOL   C116 8520   5.459   6.722   6.424 -0.1938 -0.1427  0.0824
   23MOL   C117 8521   5.303   6.737   6.453  0.3018 -0.1885  0.5199
   23MOL   C118 8522   5.249   6.694   6.599  0.5271  0.1920  0.2957
   23MOL   C119 8523   5.307   6.757   6.726  0.5652  0.2166 -0.5227
   23MOL   C120 8524   5.313   6.658   6.850  0.0524 -0.0299 -0.5355
   23MOL   C121 8525   5.398   6.706   6.965  0.0790  0.4406 -0.0225
   23MOL   O122 8526   5.227   6.654   6.368 -0.1904  0.3103  0.5593
   23MOL   H123 8527   5.490   6.622   6.393  2.9579 -0.0811  2.7869
   23MOL   H124 8528   5.519   6.755   6.508  0.5184  0.9594 -0.8382
   23MOL   H125 8529   5.274   6.842   6.454 -0.5830 -0.4159 -0.3807
   23MOL   H126 8530   5.141   6.698   6.616  0.3186 -0.5047 -0.7762
   23MOL   H127 8531   5.268   6.587   6.610  1.8957  0.4204  0.2211
   23MOL   H128 8532   5.252   6.847   6.755 -3.5043 -2.0331 -0.8460
   23MOL   H129 8533   5.409   6.786   6.704  0.8282  0.6995  1.2005
   23MOL   H130 8534   5.213   6.628   6.882 -0.5221  1.2351 -1.0969
   23MOL   H131 8535   5.346   6.561   6.814  2.2917 -0.4456  2.4477
   23MOL   H132 8536   5.423   6.625   7.034 -1.6072 -0.1466 -0.0757
   23MOL   H133 8537   5.496   6.735   6.927 -0.2030 -1.2469 -2.1355
   23MOL   H134 8538   5.345   6.791   7.009 -0.3304 -0.3225  0.9965
   23MOL   C135 8539   5.228   6.683   6.232  0.1712  0.6833 -0.6660
   23MOL   C136 8540   5.117   6.593   6.166 -0.0617  0.1168  0.6515
   23MOL   C137 8541   5.159   6.533   6.028  0.1154 -0.3424 -0.2718
   23MOL   C138 8542   5.055   6.429   5.979 -0.1412  0.3100  0.1902
   23MOL   C139 8543   5.114   6.345   5.867  0.7170 -0.8710  0.1233
   23MOL   C140 8544   5.003   6.253   5.813  0.0140  0.9279 -0.0237
   23MOL   O141 8545   4.996   6.660   6.132  0.1006 -0.5327  0.0876
   23MOL   H142 8546   5.204   6.789   6.223 -1.6285  0.4351  0.9113
   23MOL   H143 8547   5.322   6.660   6.181 -0.9127 -0.2595 -2.2648
   23MOL   H144 8548   5.099   6.500   6.220  0.2546 -0.4020 -0.1264
   23MOL   H145 8549   5.167   6.607   5.949  3.5683 -0.3036  0.0250
   23MOL   H146 8550   5.254   6.479   6.029  0.9492  1.0784 -1.5867
   23MOL   H147 8551   4.966   6.479   5.942  0.1510 -0.6943 -1.8935
   23MOL   H148 8552   5.024   6.368   6.065 -0.2400 -0.4044 -0.3510
   23MOL   H149 8553   5.191   6.283   5.912  1.2209 -1.0453 -0.9588
   23MOL   H150 8554   5.155   6.406   5.786  2.4653 -0.1331  1.5269
   23MOL   H151 8555   5.042   6.187   5.736 -1.2364 -0.3607  0.4123
   23MOL   H152 8556   4.981   6.190   5.900  1.7929 -0.9374 -0.8694
   23MOL   H153 8557   4.915   6.305   5.776  0.1571  2.3631  1.6043
   23MOL   C154 8558   4.922   6.707   6.248  1.1401  0.3135  0.7481
   23MOL   C155 8559   4.852   6.826   6.192 -0.8399 -0.4508 -0.9751
   23MOL   C156 8560   4.744   6.786   6.095  0.4101 -0.2626 -0.5441
   23MOL   C157 8561   4.683   6.916   6.038  0.1437 -0.8734 -0.2705
   23MOL   C158 8562   4.568   6.888   5.948  0.2621 -0.1436  0.7623
   23MOL   C159 8563   4.446   6.807   6.009 -0.1491  0.4444  0.6587
   23MOL   O160 8564   4.785   6.891   6.298 -0.2333 -0.1993 -0.2784
   23MOL   H161 8565   4.989   6.727   6.332  3.2573  2.4604 -1.3613
   23MOL   H162 8566   4.858   6.629   6.290  0.6852 -1.0926 -2.4316
   23MOL   H163 8567   4.933   6.882   6.144 -0.3911 -0.2506 -0.0008
   23MOL   H164 8568   4.674   6.718   6.144  0.0337  2.6556  3.1918
   23MOL   H165 8569   4.785   6.729   6.012  1.4676  3.1498 -2.5012
   23MOL   H166 8570   4.764   6.968   5.988  1.1185 -1.3103  0.8128
   23MOL   H167 8571   4.653   6.989   6.114 -0.0214 -2.6125  1.3803
   23MOL   H168 8572   4.541   6.978   5.891 -1.3415 -1.4018 -0.5125
   23MOL   H169 8573   4.613   6.829   5.869 -0.1480  1.4743 -0.7029
   23MOL   H170 8574   4.475   6.713   6.055 -1.0878  0.8348  2.0850
   23MOL   H171 8575   4.367   6.781   5.938 -0.7062  2.2749  0.5751
   23MOL   H172 8576   4.390   6.871   6.077 -1.1126  0.2520  0.0602
   23MOL   C173 8577   4.870   6.992   6.358  0.3310 -0.0348  0.2435
   23MOL   C174 8578   4.810   7.054   6.488 -0.3916 -0.5478 -0.7770
   23MOL   C175 8579   4.665   7.112   6.463 -0.7359  0.6610 -0.3393
   23MOL   C176 8580   4.600   7.156   6.590  1.0636  0.6408  0.1872
   23MOL   C177 8581   4.655   7.291   6.638  0.4045 -0.6052  0.0548
   23MOL   C178 8582   4.584   7.325   6.770  0.4487  0.0413 -0.2269
   23MOL   O179 8583   4.801   6.958   6.591  0.4883 -0.6906 -0.7319
   23MOL   H180 8584   4.894   7.070   6.285  1.7110  0.3398  1.0735
   23MOL   H181 8585   4.965   6.945   6.383  1.2970  0.8117 -1.7168
   23MOL   H182 8586   4.869   7.138   6.525  0.8913  0.1928 -4.3645
   23MOL   H183 8587   4.669   7.188   6.385 -2.7437  1.8553  0.6657
   23MOL   H184 8588   4.615   7.021   6.428 -0.7727  0.8175 -0.6983
   23MOL   H185 8589   4.493   7.164   6.570  1.0838 -2.7447 -1.6143
   23MOL   H186 8590   4.614   7.080   6.667  1.1004  1.8316  1.3716
   23MOL   H187 8591   4.762   7.291   6.658  0.1216 -0.2559  1.6846
   23MOL   H188 8592   4.632   7.370   6.567  0.8284 -0.8164 -0.3173
   23MOL   H189 8593   4.586   7.259   6.856 -0.1712  0.3457  0.0220
   23MOL   H190 8594   4.485   7.367   6.752  1.4225  2.9773  0.9231
   23MOL   H191 8595   4.641   7.409   6.810 -0.0806  0.3553 -0.1267
   23MOL   C192 8596   4.924   6.901   6.643 -0.0527  0.3770 -0.0929
   23MOL   C193 8597   4.919   6.870   6.796  0.5666 -0.1363  0.6798
   23MOL   C194 8598   4.777   6.811   6.841 -0.0436 -0.4146  0.7431
   23MOL   C195 8599   4.765   6.805   6.997  0.4197  0.3476  0.1709
   23MOL   C196 8600   4.628   6.746   7.045 -0.8851  0.3217  0.1474
   23MOL   C197 8601   4.606   6.702   7.192 -0.1387  0.0846  0.2397
   23MOL   O198 8602   4.971   6.982   6.880  0.5362 -0.3145 -0.1125
   23MOL   H199 8603   4.936   6.806   6.592 -1.4552  0.1668 -0.0599
   23MOL   H200 8604   5.019   6.951   6.628 -0.2028  0.2562 -1.4447
   23MOL   H201 8605   4.984   6.784   6.807 -2.2073 -2.3449  0.2997
   23MOL   H202 8606   4.701   6.878   6.799  0.2806 -0.2444  0.4290
   23MOL   H203 8607   4.764   6.712   6.798 -1.2562  0.2445 -0.4623
   23MOL   H204 8608   4.782   6.901   7.046  0.2739  0.9106 -0.8713
   23MOL   H205 8609   4.851   6.741   7.021 -0.2649 -0.0452  1.6219
   23MOL   H206 8610   4.557   6.823   7.014 -0.8357 -0.2950 -1.5220
   23MOL   H207 8611   4.608   6.662   6.979  0.1984 -0.3654  0.6824
   23MOL   H208 8612   4.513   6.649   7.207 -1.0035  1.7283  0.7813
   23MOL   H209 8613   4.685   6.629   7.212 -1.5392 -1.7917 -0.9262
   23MOL   H210 8614   4.616   6.784   7.263  0.8420  2.1204 -2.2060
   23MOL   C211 8615   4.923   7.106   6.838 -0.5667  0.5532  0.1455
   23MOL   C212 8616   4.996   7.216   6.924 -0.1267 -0.1305 -0.0731
   23MOL   C213 8617   4.924   7.352   6.917 -0.2699 -0.4372  0.6650
   23MOL   C214 8618   4.964   7.469   7.014  0.4739 -0.0866  0.3559
   23MOL   C215 8619   4.908   7.444   7.161 -0.5454 -0.4495 -0.2479
   23MOL   C216 8620   4.946   7.554   7.261  0.2217  0.2280  0.0818
   23MOL   O217 8621   5.125   7.255   6.882 -0.1066 -0.2811 -0.1047
   23MOL   H218 8622   4.816   7.110   6.853 -0.8309 -0.4009 -1.3228
   23MOL   H219 8623   4.948   7.136   6.736 -2.1663  0.0900 -0.3888
   23MOL   H220 8624   5.005   7.185   7.029  2.2666  3.8868  1.0333
   23MOL   H221 8625   4.912   7.378   6.812 -0.7293 -0.7978  0.6267
   23MOL   H222 8626   4.819   7.339   6.943 -1.0772  0.8213 -1.8304
   23MOL   H223 8627   5.073   7.471   7.010  0.4366  1.4020 -0.2283
   23MOL   H224 8628   4.930   7.564   6.972 -0.7557 -1.3912 -1.7018
   23MOL   H225 8629   4.800   7.431   7.167 -0.4744 -0.2387  1.6191
   23MOL   H226 8630   4.955   7.352   7.198  1.3855  0.9213  0.7797
   23MOL   H227 8631   4.903   7.527   7.357  2.5549 -0.2781  1.0149
   23MOL   H228 8632   4.912   7.654   7.233 -1.2584 -0.8248 -2.0954
   23MOL   H229 8633   5.054   7.567   7.269  0.1082  1.0856  0.1959
   23MOL   C230 8634   5.231   7.170   6.928  0.4952  0.2159 -0.5105
   23MOL   C231 8635   5.364   7.246   6.932 -0.8381 -0.7999  0.3228
   23MOL   C232 8636   5.469   7.159   6.865 -1.1179 -0.3309 -0.7542
   23MOL   C233 8637   5.603   7.233   6.840  1.2516  0.3236 -0.0596
   23MOL   C234 8638   5.718   7.134   6.820  0.2063 -0.1493 -0.3696
   23MOL   C235 8639   5.721   7.082   6.682  0.2433 -0.5358  0.1649
   23MOL   O236 8640   5.420   7.276   7.057  0.3393  0.3968  0.1064
   23MOL   H237 8641   5.204   7.117   7.020 -0.0431 -0.6640 -1.1671
   23MOL   H238 8642   5.238   7.082   6.864  0.4888 -0.1934  0.0395
   23MOL   H239 8643   5.347   7.335   6.872 -2.5768 -0.2206  1.6044
   23MOL   H240 8644   5.432   7.126   6.768 -1.8512 -1.1069 -0.2225
   23MOL   H241 8645   5.492   7.070   6.924  0.9591  1.0276  0.5334
   23MOL   H242 8646   5.632   7.291   6.927  0.3531  2.1330 -0.9482
   23MOL   H243 8647   5.594   7.307   6.760 -1.2793  1.4177  1.1829
   23MOL   H244 8648   5.819   7.170   6.837  0.4883 -1.6286  1.2623
   23MOL   H245 8649   5.702   7.049   6.887 -1.5579  1.9284  1.9582
   23MOL   H246 8650   5.743   7.163   6.612 -0.4040 -1.1465 -0.7736
   23MOL   H247 8651   5.624   7.038   6.656 -0.9489  1.2036  1.5536
   23MOL   H248 8652   5.804   7.012   6.669  2.2545  1.2796  2.7355
   23MOL   C249 8653   5.328   7.308   7.162  0.3125 -0.4796 -0.0641
   23MOL   C250 8654   5.394   7.361   7.284  0.1265 -0.4268 -0.4368
   23MOL   C251 8655   5.319   7.324   7.413  1.1927  0.3309  0.3276
   23MOL   C252 8656   5.403   7.327   7.538  0.4459  0.4902 -0.6453
   23MOL   C253 8657   5.334   7.324   7.671  0.1500 -0.5783 -0.3186
   23MOL   C254 8658   5.280   7.182   7.696  0.2639  0.4312 -0.1489
   23MOL   O255 8659   5.416   7.503   7.273 -1.1417  0.5141  0.0565
   23MOL   H256 8660   5.255   7.380   7.125  0.9844 -0.0989 -0.6704
   23MOL   H257 8661   5.266   7.225   7.194  1.5698 -1.3194  0.2425
   23MOL   H258 8662   5.494   7.317   7.291  0.8816  0.6093 -3.4472
   23MOL   H259 8663   5.228   7.383   7.417  1.6994  1.1960 -0.8808
   23MOL   H260 8664   5.281   7.222   7.404 -3.1412  1.7880  1.1457
   23MOL   H261 8665   5.484   7.254   7.544  0.2671  0.1750 -2.0037
   23MOL   H262 8666   5.451   7.425   7.536  0.0379  0.7379  0.8601
   23MOL   H263 8667   5.402   7.347   7.754  0.1138  2.2857 -1.0090
   23MOL   H264 8668   5.262   7.407   7.668 -1.2250 -1.7850 -1.3962
   23MOL   H265 8669   5.242   7.170   0.012 -0.5065  1.9195 -0.2371
   23MOL   H266 8670   5.358   7.109   7.678  0.4276  0.4528  0.4635
   23MOL   H267 8671   5.202   7.153   7.625  0.2359 -0.5916  0.2901
   23MOL   C268 8672   5.515   7.533   7.177  0.6746 -0.3238 -0.0382
   23MOL   C269 8673   5.550   7.684   7.168  0.8676 -0.5948 -0.8218
   23MOL   C270 8674   5.572   7.769   7.292  0.1168 -0.2760  0.6199
   23MOL   C271 8675   5.710   7.761   7.348 -0.0663  0.2528  0.8128
   23MOL   C272 8676   5.736   0.061   7.475  0.6423 -0.4201  0.6749
   23MOL   C273 8677   5.881   0.035   7.524  0.4066 -0.5139  0.0389
   23MOL   O274 8678   5.449   7.744   7.077 -0.6693 -0.3031  0.0856
   23MOL   H275 8679   5.488   7.509   7.075 -3.1007 -1.0568  1.0546
   23MOL   H276 8680   5.612   7.486   7.198 -0.0176 -1.3890  0.8731
   23MOL   H277 8681   5.642   7.677   7.111  0.8836  1.4530 -1.0806
   23MOL   H278 8682   5.541   0.086   7.273 -2.0421 -0.7996  1.2186
   23MOL   H279 8683   5.507   7.739   7.374 -0.6280  0.5929  0.3491
   23MOL   H280 8684   5.718   7.653   7.363 -0.0796 -0.2931 -2.7326
   23MOL   H281 8685   5.774   0.012   7.269 -0.6047 -0.9729 -0.2084
   23MOL   H282 8686   5.725   0.161   7.434 -1.0154 -0.4960  0.9037
   23MOL   H283 8687   5.664   0.045   7.555 -1.0933 -0.9994 -0.9965
   23MOL   H284 8688   5.885   7.741   7.598 -0.3589 -0.9415 -0.3761
   23MOL   H285 8689   5.935   0.006   7.433  0.4219  2.7577 -1.0533
   23MOL   H286 8690   5.928   0.131   7.544  1.7849 -0.5857 -2.5365
   23MOL   C287 8691   5.313   7.749   7.115 -0.3961  0.3671 -0.6656
   23MOL   C288 8692   5.228   0.016   7.003 -0.0074  0.1389  0.0464
   23MOL   C289 8693   5.087   0.078   7.045  0.5732  0.3755  0.1362
   23MOL   C290 8694   5.009   0.130   6.925 -0.6489  0.0449 -0.3906
   23MOL   C291 8695   5.044   0.273   6.878 -0.0179  0.4981 -0.0829
   23MOL   C292 8696   4.946   0.324   6.767 -0.4673 -0.5931 -0.1955
   23MOL   O293 8697   5.194   7.694   6.909 -0.0815 -0.0554 -0.0219
   23MOL   H294 8698   5.303   0.029   7.201  0.3563  0.2665 -0.5027
   23MOL   H295 8699   5.272   7.652   7.145 -0.9425  0.6098 -0.6322
   23MOL   H296 8700   5.280   0.100   6.957  1.3994  0.6062  2.4416
   23MOL   H297 8701   5.028   0.003   7.099  0.7273  0.6258  0.6575
   23MOL   H298 8702   5.102   0.149   7.126  1.8183 -0.5394  0.7341
   23MOL   H299 8703   5.022   0.068   6.836  2.2249  1.0183 -0.7190
   23MOL   H300 8704   4.902   0.113   6.940 -1.0227  0.5477 -2.3376
   23MOL   H301 8705   5.149   0.274   6.849 -0.0978  1.7119 -0.3427
   23MOL   H302 8706   5.052   0.346   6.958  2.6033 -0.6188  0.7374
   23MOL   H303 8707   4.972   0.288   6.667 -1.6793 -2.4253  0.1351
   23MOL   H304 8708   4.845   0.298   6.796  0.0352 -1.8237  0.4765
   23MOL   H305 8709   4.949   0.433   6.764  0.7988 -0.6170 -0.2300
   23MOL   C306 8710   5.293   7.678   6.808 -0.5318  0.4663  0.7171
   23MOL   C307 8711   5.246   7.578   6.697 -0.2216 -0.3060 -1.1754
   23MOL   C308 8712   5.365   7.514   6.624 -0.9081  0.3255 -0.3156
   23MOL   C309 8713   5.306   7.428   6.518 -1.0053 -0.1073 -0.0227
   23MOL   C310 8714   5.232   7.295   6.571 -0.0141 -0.6102  0.8007
   23MOL   C311 8715   5.204   7.184   6.468 -0.2139  0.1140  0.1077
   23MOL   O312 8716   5.161   7.656   6.611  0.6112 -0.0446 -0.6158
   23MOL   H313 8717   5.314   7.773   6.760 -0.1661  0.1126  0.1662
   23MOL   H314 8718   5.377   7.631   6.859 -0.3062  0.3685  0.2564
   23MOL   H315 8719   5.189   7.497   6.744  1.5720 -1.1987 -0.5052
   23MOL   H316 8720   5.425   7.453   6.692  1.4799 -1.5005 -3.9104
   23MOL   H317 8721   5.430   7.593   6.586 -0.1222 -0.4450 -0.6009
   23MOL   H318 8722   5.246   7.477   6.441 -2.0201  0.2975  1.0094
   23MOL   H319 8723   5.390   7.394   6.457  1.4581  2.4561  1.8354
   23MOL   H320 8724   5.135   7.339   6.598  0.6714  1.1695  0.4699
   23MOL   H321 8725   5.285   7.259   6.659  3.2984  1.1088 -0.3956
   23MOL   H322 8726   5.297   7.159   6.418  0.4169  1.4868  0.5521
   23MOL   H323 8727   5.147   7.096   6.496 -0.1474 -0.0088 -0.1382
   23MOL   H324 8728   5.142   7.227   6.389 -0.2264  0.7546  0.4608
   23MOL   C325 8729   5.021   7.626   6.628  0.5353  0.1537  0.7511
   23MOL   C326 8730   4.919   7.723   6.559  0.2889 -0.5703  0.4699
   23MOL   C327 8731   4.776   7.691   6.606 -0.0064  0.4039  0.2711
   23MOL   C328 8732   4.682   7.778   6.535  0.0768  0.0173  0.3393
   23MOL   C329 8733   4.533   7.764   6.565  0.5325  0.1259 -0.1105
   23MOL   C330 8734   4.478   7.630   6.528  0.0845 -0.0478  0.2417
   23MOL   O331 8735   4.917   7.705   6.419 -1.0061 -0.3010 -0.0544
   23MOL   H332 8736   5.001   7.644   6.733  0.6701  2.3206  0.4252
   23MOL   H333 8737   5.002   7.522   6.599  0.6655  0.3115  0.0865
   23MOL   H334 8738   4.937   0.041   6.586  0.9978 -0.6563  0.3289
   23MOL   H335 8739   4.756   7.584   6.605 -2.2899  0.8066  0.7019
   23MOL   H336 8740   4.775   7.714   6.713  1.1346  0.3526  0.3047
   23MOL   H337 8741   4.717   0.091   6.564 -0.6057  0.3547  0.0166
   23MOL   H338 8742   4.694   7.778   6.426  2.1536 -0.7532  0.5355
   23MOL   H339 8743   4.512   0.007   6.668  1.0958  1.9861 -0.4858
   23MOL   H340 8744   4.475   0.047   6.503  0.9379  0.2883 -0.3152
   23MOL   H341 8745   4.512   7.597   6.430 -1.1527 -0.0633 -0.1920
   23MOL   H342 8746   4.520   7.569   6.608  2.7183 -0.6837 -1.5522
   23MOL   H343 8747   4.372   7.607   6.536 -0.3560  1.5203 -0.8215
   23MOL   C344 8748   5.032   7.764   6.345  1.0496 -0.1038 -0.7925
   23MOL   C345 8749   4.997   0.014   6.206 -0.4286 -0.3133  0.8574
   23MOL   C346 8750   4.918   0.144   6.185  0.1482  0.4203  0.5616
   23MOL   C347 8751   4.904   0.169   6.038 -0.6238  0.0264 -0.3997
   23MOL   C348 8752   4.825   0.301   6.015  0.1481  0.1345 -0.3438
   23MOL   C349 8753   4.798   0.314   5.861 -0.2492 -0.5389 -0.4161
   23MOL   O350 8754   5.121   0.014   6.138  0.4372 -0.0035 -0.0246
   23MOL   H351 8755   5.116   7.695   6.341  1.3078  0.2294 -1.1672
   23MOL   H352 8756   5.071   0.061   6.404  0.4747 -0.2031 -0.2696
   23MOL   H353 8757   4.940   7.713   6.172  0.4078 -0.4496 -0.2236
   23MOL   H354 8758   4.957   0.233   6.234 -0.0670  1.4004 -1.0151
   23MOL   H355 8759   4.820   0.123   6.226  0.6120  0.1151  1.5445
   23MOL   H356 8760   4.879   0.082   5.977 -1.5585  0.0251 -0.0124
   23MOL   H357 8761   5.005   0.186   5.999 -0.1842  0.2679  0.8224
   23MOL   H358 8762   4.887   0.384   6.047 -0.7496  0.0211  1.7468
   23MOL   H359 8763   4.730   0.306   6.069 -0.3242 -0.2189 -1.1272
   23MOL   H360 8764   4.757   0.412   5.835 -0.9334 -0.9820 -1.0174
   23MOL   H361 8765   4.737   0.230   5.829  0.3868 -1.1036 -0.1404
   23MOL   H362 8766   4.891   0.307   5.806  0.7594  1.6326  0.9208
   23MOL   C363 8767   5.146   7.684   6.058 -0.2660 -0.1079  0.2460
   23MOL   C364 8768   5.292   7.697   6.006 -0.1969  0.2680  0.2256
   23MOL   C365 8769   5.342   7.564   5.947  0.3202 -0.4608  0.8447
   23MOL   C366 8770   5.284   7.530   5.809 -0.4942  0.3727 -0.0250
   23MOL   C367 8771   5.323   7.392   5.753 -0.5673  0.0031 -0.0642
   23MOL   C368 8772   5.272   7.365   5.607  0.0117 -0.3893 -0.2647
   23MOL   O369 8773   5.294   0.013   5.907  0.3299  0.3443  0.8473
   23MOL   H370 8774   5.075   7.666   5.977  0.8645  1.1607 -1.0503
   23MOL   H371 8775   5.134   7.600   6.128  1.3164  0.2817  1.0116
   23MOL   H372 8776   5.363   7.737   6.080  0.3048  1.4746 -0.8850
   23MOL   H373 8777   5.451   7.568   5.935  0.0540 -0.8775 -2.0684
   23MOL   H374 8778   5.324   7.484   6.019 -0.0651 -1.4090 -0.2800
   23MOL   H375 8779   5.176   7.543   5.814 -0.7069 -1.4121  0.4185
   23MOL   H376 8780   5.306   7.610   5.738 -0.7787  1.4359  1.0676
   23MOL   H377 8781   5.432   7.384   5.755 -0.6795 -1.5546  0.2804
   23MOL   H378 8782   5.293   7.314   5.823  0.5416 -0.6056 -0.2492
   23MOL   H379 8783   5.324   7.279   5.562 -0.5138 -1.4590  1.1425
   23MOL   H380 8784   5.170   7.332   5.587  0.8590 -1.5232 -3.0948
   23MOL   H381 8785   5.302   7.448   5.543  0.7909 -0.4250  0.0472
   23MOL   H382 8786   5.247   0.089   5.937 -1.7802 -0.2855 -0.7019
   24MOL     C1 8787   7.223   1.076   6.279  0.1391 -0.2469  0.2070
   24MOL     C2 8788   7.260   0.972   6.389 -0.3918 -0.3166 -0.2054
   24MOL     C3 8789   7.190   0.837   6.396 -0.3916  0.5390  0.2038
   24MOL     C4 8790   7.051   0.846   6.447  0.8790  0.0655  0.1965
   24MOL     C5 8791   7.028   0.904   6.585  0.5309 -0.1413  0.6474
   24MOL     C6 8792   6.882   0.886   6.622  0.4157 -0.0410  0.0054
   24MOL     O7 8793   7.396   0.938   6.350  0.3109 -0.6092  0.3508
   24MOL     H8 8794   7.121   1.100   6.310 -0.1135  0.0186 -0.8143
   24MOL     H9 8795   7.214   1.033   6.179 -0.0437 -0.9246  0.5109
   24MOL    H10 8796   7.258   1.027   6.483 -0.2072 -2.3316  1.0052
   24MOL    H11 8797   7.195   0.795   6.295 -0.6231 -0.6036  0.6604
   24MOL    H12 8798   7.249   0.781   6.469 -3.8900 -1.5838  1.5504
   24MOL    H13 8799   6.988   0.898   6.375  0.1141 -0.8162  0.2223
   24MOL    H14 8800   7.008   0.746   6.445  0.1059  0.3721  0.8901
   24MOL    H15 8801   7.098   0.870   6.662  0.3041 -2.7390 -0.2344
   24MOL    H16 8802   7.039   1.012   6.584 -2.3613  0.1682 -0.2543
   24MOL    H17 8803   6.825   0.946   6.551 -0.5030 -1.7916 -0.7742
   24MOL    H18 8804   6.854   0.780   6.622  0.4149 -0.0784  2.7661
   24MOL    H19 8805   6.855   0.926   6.720 -0.2929 -1.1522  0.2844
   24MOL    H20 8806   7.292   1.160   6.278  0.8805 -0.8507  0.1820
   24MOL    C21 8807   7.496   1.015   6.416 -0.0697  0.2421 -0.2411
   24MOL    C22 8808   7.631   0.981   6.354  0.0578  0.6153  0.5282
   24MOL    C23 8809   7.722   1.106   6.362 -0.1235 -0.2285  1.2555
   24MOL    C24 8810   7.747   1.167   6.502  0.4837 -0.3765 -0.0777
   24MOL    C25 8811   7.766   1.319   6.494  0.0337  0.0123 -0.1531
   24MOL    C26 8812   7.636   1.405   6.476  0.1507  0.0921  0.6202
   24MOL    O27 8813   7.687   0.875   6.421  0.0504 -0.0995  0.2303
   24MOL    H28 8814   7.472   1.121   6.420 -1.0745 -0.0104  0.5780
   24MOL    H29 8815   7.491   0.994   6.523  2.4437  0.3036 -0.0766
   24MOL    H30 8816   7.623   0.960   6.247  0.1898  1.6759  0.3022
   24MOL    H31 8817   7.684   1.182   6.294  2.8099  0.6283  0.5103
   24MOL    H32 8818   0.037   1.079   6.329 -0.3876 -1.4000  1.3769
   24MOL    H33 8819   0.037   1.106   6.552  0.5772  0.0176  0.2622
   24MOL    H34 8820   7.665   1.144   6.570 -0.5049  0.1708 -1.0604
   24MOL    H35 8821   0.035   1.349   6.583  1.7387 -1.3074 -0.7394
   24MOL    H36 8822   0.041   1.342   6.406  1.1308  0.5180  0.7297
   24MOL    H37 8823   7.654   1.501   6.427  1.6485 -0.5838 -0.1781
   24MOL    H38 8824   7.597   1.425   6.576  0.0215 -2.0954  1.0281
   24MOL    H39 8825   7.560   1.353   6.417  0.6863  0.9348 -0.8579
   24MOL    C40 8826   7.618   0.755   6.430  0.1790  0.0404  0.1344
   24MOL    C41 8827   7.711   0.662   6.517  0.1301 -0.2761 -0.9206
   24MOL    C42 8828   7.711   0.509   6.500 -0.1563 -0.1042 -0.0505
   24MOL    C43 8829   0.060   0.453   6.535 -0.2757  0.0577 -0.3569
   24MOL    C44 8830   0.087   0.301   6.519  0.1592 -0.6718 -0.0712
   24MOL    C45 8831   0.096   0.249   6.372  0.6050 -0.5073 -0.0937
   24MOL    O46 8832   7.686   0.690   6.655  0.4337  0.3580 -0.4128
   24MOL    H47 8833   7.627   0.704   6.333 -0.9848  0.0919 -0.0018
   24MOL    H48 8834   7.516   0.750   6.467  0.2807 -0.9685  0.2831
   24MOL    H49 8835   0.025   0.698   6.491 -0.2277  2.0278  0.7803
   24MOL    H50 8836   7.641   0.468   6.573  1.3749 -1.1862  0.8325
   24MOL    H51 8837   7.680   0.474   6.402 -1.9409 -0.2412  0.5404
   24MOL    H52 8838   0.081   0.496   6.633  2.5512  0.1560 -0.9597
   24MOL    H53 8839   0.132   0.504   6.470 -1.8818  2.4447 -0.3498
   24MOL    H54 8840   0.176   0.272   6.574 -0.2912  1.2132  1.7043
   24MOL    H55 8841   7.783   0.256   6.561 -0.2709  1.1425  0.9957
   24MOL    H56 8842   0.155   0.308   6.302  0.1252  0.5142  0.3472
   24MOL    H57 8843   0.123   0.144   6.373  2.1856 -0.1074 -0.5011
   24MOL    H58 8844   7.784   0.262   6.325  0.5664 -0.0923  0.0990
   24MOL    C59 8845   7.749   0.809   6.698 -0.3426  0.1857 -0.2085
   24MOL    C60 8846   7.717   0.806   6.846 -1.0042 -0.2244  0.6314
   24MOL    C61 8847   0.037   0.893   6.918 -0.3447  1.0522  0.1285
   24MOL    C62 8848   0.047   0.873   7.067  0.4973 -0.5738  0.2590
   24MOL    C63 8849   0.124   0.981   7.140 -0.1596 -0.4328 -0.2161
   24MOL    C64 8850   0.050   1.108   7.169  0.0524  0.4739  0.2166
   24MOL    O65 8851   7.591   0.872   6.867 -0.3377  0.4803 -0.3595
   24MOL    H66 8852   7.707   0.897   6.650 -1.2138 -0.1836 -0.1403
   24MOL    H67 8853   0.071   0.812   6.678  0.1994  2.7106  2.6027
   24MOL    H68 8854   7.713   0.700   6.871 -1.4550 -0.0251  1.4590
   24MOL    H69 8855   0.033   0.995   6.877 -3.3258 -0.0445 -2.5183
   24MOL    H70 8856   0.131   0.861   6.874 -1.5686 -0.6595 -1.3261
   24MOL    H71 8857   0.104   0.780   7.075 -0.9370 -1.3533  1.6911
   24MOL    H72 8858   7.736   0.848   7.111  1.3483 -0.5316  2.2338
   24MOL    H73 8859   0.217   1.015   7.093  0.3777 -2.2393 -0.5004
   24MOL    H74 8860   0.149   0.942   7.239  0.2601  0.3012 -0.0291
   24MOL    H75 8861   7.749   1.087   7.233  0.3261  1.1842  0.8370
   24MOL    H76 8862   0.111   1.178   7.226 -1.2050  0.0907  2.1164
   24MOL    H77 8863   0.019   1.147   7.072 -3.1238 -1.4129  0.3984
   24MOL    C78 8864   7.472   0.798   6.839  0.3782 -0.1054  0.5422
   24MOL    C79 8865   7.370   0.882   6.903  0.4330 -0.1238  0.0677
   24MOL    C80 8866   7.251   0.801   6.945 -0.1588  0.0261  0.3374
   24MOL    C81 8867   7.142   0.875   7.019  0.2496 -0.2412  0.2819
   24MOL    C82 8868   7.016   0.904   6.941 -0.1857  0.4351  0.9644
   24MOL    C83 8869   6.907   0.966   7.020  0.1939  0.5662 -0.3817
   24MOL    O84 8870   7.324   0.986   6.823  0.6595 -0.2127  0.0783
   24MOL    H85 8871   7.476   0.699   6.884  1.8325 -1.0138 -1.5037
   24MOL    H86 8872   7.456   0.764   6.737  3.4224  1.8085 -0.6447
   24MOL    H87 8873   7.406   0.940   6.988 -0.0997  0.3134 -0.0079
   24MOL    H88 8874   7.213   0.762   6.851  1.0823 -0.5012  0.0431
   24MOL    H89 8875   7.280   0.717   7.007  1.2668 -0.1736 -0.5881
   24MOL    H90 8876   7.191   0.967   7.052  2.5868 -1.5213  0.5559
   24MOL    H91 8877   7.111   0.816   7.105  0.9714 -1.3634 -0.1979
   24MOL    H92 8878   7.044   0.978   6.866  0.4972 -0.4869  0.2968
   24MOL    H93 8879   6.976   0.816   6.891  1.1791  1.1131 -1.3821
   24MOL    H94 8880   6.847   0.890   7.071  0.3949 -0.7719 -2.0747
   24MOL    H95 8881   6.838   1.023   6.957  2.3239  2.6431 -0.8923
   24MOL    H96 8882   6.949   1.051   7.073 -0.7952  2.4021 -2.4250
   24MOL    C97 8883   7.413   1.087   6.772  0.2200 -0.5046 -0.2006
   24MOL    C98 8884   7.402   1.215   6.860 -0.0724 -0.5195 -0.2405
   24MOL    C99 8885   7.544   1.276   6.888  0.5841  0.1679 -0.2052
   24MOL   C100 8886   7.546   1.401   6.989 -0.4476 -0.0477 -0.7688
   24MOL   C101 8887   7.693   1.456   7.002 -0.0708  0.5591 -0.2688
   24MOL   C102 8888   7.702   1.543   7.123  0.0935 -0.1924  0.1277
   24MOL   O103 8889   7.318   1.307   6.787 -0.2433  0.1054 -0.1068
   24MOL   H104 8890   7.370   1.114   6.675 -0.1875 -1.1983 -0.2172
   24MOL   H105 8891   7.506   1.041   6.738  0.5866  0.7273 -0.8893
   24MOL   H106 8892   7.366   1.192   6.960 -0.4849 -4.6192 -1.2410
   24MOL   H107 8893   7.572   1.311   6.789 -0.0464  2.0832  0.2752
   24MOL   H108 8894   7.595   1.186   6.923 -0.7341  0.3776  2.4117
   24MOL   H109 8895   7.511   1.363   7.085 -0.4672 -1.2993 -1.2587
   24MOL   H110 8896   7.475   1.481   6.971 -0.0779  0.6772  0.9208
   24MOL   H111 8897   7.720   1.509   6.910  0.1063  0.3109 -0.3630
   24MOL   H112 8898   7.766   1.375   6.995 -0.3857  0.4122 -2.0533
   24MOL   H113 8899   7.670   1.496   7.216 -1.2980  1.2347  0.4006
   24MOL   H114 8900   0.022   1.557   7.146 -0.5408  1.3873  2.3016
   24MOL   H115 8901   7.660   1.642   7.108  3.5475  1.0078 -2.2167
   24MOL   C116 8902   7.188   1.282   6.758  0.3174  0.0289  0.3784
   24MOL   C117 8903   7.108   1.404   6.709  0.0670 -0.4071  0.3987
   24MOL   C118 8904   6.964   1.388   6.740 -0.1912 -0.0712  0.7041
   24MOL   C119 8905   6.882   1.521   6.729 -0.6073 -0.8669  0.1470
   24MOL   C120 8906   6.738   1.488   6.760  0.1222 -0.7173 -0.3686
   24MOL   C121 8907   6.643   1.595   6.722 -0.4149 -0.1795 -0.1080
   24MOL   O122 8908   7.116   1.427   6.563 -0.8842  0.0738  0.1670
   24MOL   H123 8909   7.171   1.205   6.683  1.5157 -0.0817  0.2190
   24MOL   H124 8910   7.140   1.247   6.849 -1.7228  1.1114 -0.2535
   24MOL   H125 8911   7.153   1.495   6.750  1.3527  0.7270 -3.3624
   24MOL   H126 8912   6.923   1.316   6.669  0.9729 -0.6357  0.6016
   24MOL   H127 8913   6.940   1.351   6.840  1.7898 -0.2003  1.1376
   24MOL   H128 8914   6.885   1.561   6.628 -2.4232  0.1497  0.4823
   24MOL   H129 8915   6.929   1.587   6.802  1.1161 -0.1065 -1.6013
   24MOL   H130 8916   6.700   1.408   6.696 -3.0692 -1.8012  2.7777
   24MOL   H131 8917   6.738   1.455   6.863 -0.9900  1.2057  0.2771
   24MOL   H132 8918   6.682   1.692   6.756  2.6261 -1.8932  1.5281
   24MOL   H133 8919   6.635   1.609   6.615  1.9469  1.9728 -0.0715
   24MOL   H134 8920   6.540   1.575   6.753 -0.4739 -0.0891 -0.2465
   24MOL   C135 8921   7.242   1.436   6.501 -0.1354 -0.9681  0.0316
   24MOL   C136 8922   7.224   1.506   6.362 -0.6361 -0.3689  0.0536
   24MOL   C137 8923   7.341   1.480   6.257 -0.2623  0.2444  0.1535
   24MOL   C138 8924   7.297   1.480   6.107  0.0522 -0.5570  0.2497
   24MOL   C139 8925   7.413   1.449   6.020 -0.0600  0.2611  0.5089
   24MOL   C140 8926   7.376   1.429   5.870 -0.0154 -0.3274  1.1263
   24MOL   O141 8927   7.207   1.646   6.364 -0.0615 -0.6304 -0.3750
   24MOL   H142 8928   7.320   1.482   6.562  1.2266 -2.0254 -0.8816
   24MOL   H143 8929   7.267   1.332   6.481  0.2693 -0.7773 -0.4547
   24MOL   H144 8930   7.137   1.459   6.316 -0.1124 -0.5218 -0.8053
   24MOL   H145 8931   7.422   1.550   6.279  0.1302 -0.2856  0.3943
   24MOL   H146 8932   7.377   1.381   6.284  0.4510 -0.1167 -2.0837
   24MOL   H147 8933   7.241   1.563   6.063 -2.1145 -2.1848 -0.1392
   24MOL   H148 8934   7.228   1.396   6.094 -2.6752  1.7313 -0.5168
   24MOL   H149 8935   7.463   1.361   6.060  0.5173  1.3612  2.3094
   24MOL   H150 8936   7.486   1.530   6.023 -1.4568  1.5580  0.3954
   24MOL   H151 8937   7.467   1.427   5.811 -1.0191  1.2341 -0.5383
   24MOL   H152 8938   7.307   1.346   5.857  0.7109 -0.8660  0.6877
   24MOL   H153 8939   7.321   1.514   5.829  0.6984 -1.1631 -1.7213
   24MOL   C154 8940   7.090   1.684   6.424  0.2774  0.3633  0.3238
   24MOL   C155 8941   7.045   1.827   6.386 -0.1966 -0.4520  0.2850
   24MOL   C156 8942   6.890   1.837   6.416 -0.4685  0.0728  0.0813
   24MOL   C157 8943   6.827   1.977   6.395  0.1853 -0.0683 -0.2548
   24MOL   C158 8944   6.672   1.979   6.399  0.5960 -0.6181 -0.8822
   24MOL   C159 8945   6.614   1.915   6.525 -0.0589 -0.1227  0.5448
   24MOL   O160 8946   7.113   1.928   6.470  0.0861 -0.2333  0.2363
   24MOL   H161 8947   7.104   1.679   6.532  2.0844  0.1707  0.0861
   24MOL   H162 8948   7.008   1.617   6.396  0.8275  0.6657 -2.1132
   24MOL   H163 8949   7.057   1.855   6.281  2.2434  3.3360  1.4975
   24MOL   H164 8950   6.888   1.809   6.522  1.6064  1.2247  0.4584
   24MOL   H165 8951   6.836   1.756   6.368 -0.1113  1.6130 -3.0155
   24MOL   H166 8952   6.869   2.022   6.305 -0.8740  1.9443  0.2331
   24MOL   H167 8953   6.862   2.040   6.477  2.1128 -1.0865 -0.2610
   24MOL   H168 8954   6.644   2.083   6.420 -1.1064 -1.3738  0.6968
   24MOL   H169 8955   6.619   1.944   6.310  0.0838 -1.7694 -0.1270
   24MOL   H170 8956   6.641   1.810   6.534  0.6733 -0.0686 -0.8067
   24MOL   H171 8957   6.509   1.942   6.537  0.3065  0.6297  2.2782
   24MOL   H172 8958   6.656   1.962   6.614  0.3411 -1.9613  1.3457
   24MOL   C173 8959   7.230   1.977   6.404  0.0956 -0.0032  0.1105
   24MOL   C174 8960   7.281   2.106   6.478  0.7688 -0.3201  0.5887
   24MOL   C175 8961   7.435   2.121   6.497 -0.5934  0.1848  0.0551
   24MOL   C176 8962   7.470   2.257   6.562 -0.1077 -0.1735 -0.5158
   24MOL   C177 8963   7.395   2.269   6.697  0.5190  0.1556 -0.2531
   24MOL   C178 8964   7.456   2.375   6.783 -0.2456  0.0568 -0.1273
   24MOL   O179 8965   7.229   2.208   6.393 -0.2075 -0.0691 -0.6188
   24MOL   H180 8966   7.208   2.000   6.299 -0.9327  0.8161  0.5028
   24MOL   H181 8967   7.313   1.908   6.421 -0.5728 -0.9728 -0.5024
   24MOL   H182 8968   7.232   2.123   6.574  1.0879  2.4795  0.3043
   24MOL   H183 8969   7.469   2.035   6.555 -0.0861  0.3914  0.0620
   24MOL   H184 8970   7.481   2.115   6.398 -0.5736 -0.1464  0.0844
   24MOL   H185 8971   7.579   2.254   6.569  0.0775  1.3879 -2.1684
   24MOL   H186 8972   7.450   2.341   6.495  1.2901  0.9469  0.4448
   24MOL   H187 8973   7.288   2.280   6.683  0.4811 -2.1990 -2.1714
   24MOL   H188 8974   7.408   2.182   6.761  0.9190 -0.8563 -1.6785
   24MOL   H189 8975   7.562   2.396   6.766  0.8835 -3.1230  2.4544
   24MOL   H190 8976   7.445   2.344   6.887 -0.0716 -0.5942 -0.2988
   24MOL   H191 8977   7.398   2.466   6.773 -0.7167 -0.3138 -0.7993
   24MOL   C192 8978   7.085   2.228   6.402 -0.9270 -0.0854  0.0971
   24MOL   C193 8979   7.048   2.373   6.449 -0.5690 -0.1874 -0.3410
   24MOL   C194 8980   6.900   2.381   6.485  0.4085  0.6702  0.0122
   24MOL   C195 8981   6.846   2.527   6.515 -0.3990  0.0373  0.4879
   24MOL   C196 8982   6.697   2.533   6.540 -0.5022 -0.0956  0.1397
   24MOL   C197 8983   6.609   2.515   6.408 -0.1503  0.5152  1.0997
   24MOL   O198 8984   7.087   2.458   6.341  0.4990 -0.1791 -0.1817
   24MOL   H199 8985   7.037   2.208   6.306  2.0213 -0.9818 -1.2271
   24MOL   H200 8986   7.040   2.173   6.485 -0.9871 -1.6776 -0.9741
   24MOL   H201 8987   7.095   2.370   6.547  0.4411 -0.3488 -0.8206
   24MOL   H202 8988   6.861   2.341   6.391  1.7853 -2.5020  0.7098
   24MOL   H203 8989   6.862   2.314   6.563 -1.7530 -0.4217 -1.8970
   24MOL   H204 8990   6.870   2.590   6.430 -3.0881 -0.4485 -0.7019
   24MOL   H205 8991   6.902   2.573   6.596 -0.3127  1.5695 -0.4336
   24MOL   H206 8992   6.668   2.452   6.606  1.7524 -1.0656 -0.0084
   24MOL   H207 8993   6.678   2.635   6.575  0.0895  1.0752 -2.7626
   24MOL   H208 8994   6.511   2.556   6.430 -1.3318 -1.2683 -0.6031
   24MOL   H209 8995   6.634   2.572   6.318  0.0421  0.6067  1.2114
   24MOL   H210 8996   6.598   2.408   6.387  0.1381  0.7420 -0.2577
   24MOL   C211 8997   7.220   2.514   6.337 -0.2567  0.3822 -0.8561
   24MOL   C212 8998   7.246   2.603   6.214  0.5481  0.0394 -0.5243
   24MOL   C213 8999   7.397   2.621   6.196  0.5846  0.1425  0.3325
   24MOL   C214 9000   7.450   2.647   6.053  0.1004  0.1435  0.4772
   24MOL   C215 9001   7.599   2.683   6.048  0.2692 -0.0346  0.2976
   24MOL   C216 9002   7.656   2.704   5.904 -0.4875 -0.3479 -0.4657
   24MOL   O217 9003   7.222   2.739   6.239 -0.0578 -0.3795 -0.1535
   24MOL   H218 9004   7.294   2.434   6.333  1.2301  1.6496  0.4671
   24MOL   H219 9005   7.240   2.573   6.426  0.7511 -0.7009 -0.3519
   24MOL   H220 9006   7.203   2.561   6.124  0.1503 -0.8619  0.0774
   24MOL   H221 9007   7.435   2.686   6.275 -0.2780  0.2924  0.6291
   24MOL   H222 9008   7.440   2.522   6.208 -0.7024 -0.5149 -0.2845
   24MOL   H223 9009   7.437   2.563   5.984 -0.3673  1.6939 -1.3740
   24MOL   H224 9010   7.399   2.730   6.005  1.7559  1.0408  0.2052
   24MOL   H225 9011   7.625   2.774   6.102 -0.5656 -0.3935  1.3140
   24MOL   H226 9012   7.658   2.606   6.097  0.1027 -1.2513 -1.3718
   24MOL   H227 9013   7.607   2.791   5.859  1.4237  0.8427 -0.2750
   24MOL   H228 9014   7.637   2.613   5.846 -0.0903 -1.4033  1.0372
   24MOL   H229 9015   7.761   2.733   5.907 -1.1322  2.0181 -0.1584
   24MOL   C230 9016   7.081   2.764   6.240 -0.4229  0.1295 -0.3255
   24MOL   C231 9017   7.062   2.914   6.206  0.5277  0.0225 -0.2631
   24MOL   C232 9018   6.923   2.976   6.225  0.3358 -0.3646  0.3170
   24MOL   C233 9019   6.910   3.118   6.166 -0.2460  0.0785 -0.3753
   24MOL   C234 9020   7.019   3.220   6.226 -0.2423 -0.3861  0.1923
   24MOL   C235 9021   6.999   3.364   6.180  0.3265  0.4653 -0.0780
   24MOL   O236 9022   7.095   2.941   6.077 -0.2236 -0.4421  0.0981
   24MOL   H237 9023   7.031   2.704   6.164  1.4840 -0.8661 -0.7986
   24MOL   H238 9024   7.039   2.751   6.340  0.6090 -0.5024  0.0246
   24MOL   H239 9025   7.125   2.969   6.276 -0.0083 -1.1409  1.1559
   24MOL   H240 9026   6.881   2.974   6.326  1.0459 -1.8239  0.5935
   24MOL   H241 9027   6.854   2.918   6.163 -0.5860  0.3381  0.6747
   24MOL   H242 9028   6.816   3.168   6.187  0.3594  1.1937 -0.2928
   24MOL   H243 9029   6.917   3.126   6.058  1.8492 -1.0537 -0.3567
   24MOL   H244 9030   6.994   3.221   6.332  0.6320 -0.5408  0.4003
   24MOL   H245 9031   7.125   3.198   6.240  0.2364  1.5629 -0.2115
   24MOL   H246 9032   6.895   3.395   6.194 -0.5746 -2.4784  0.0688
   24MOL   H247 9033   7.016   3.384   6.074  1.6524  3.8657  0.7120
   24MOL   H248 9034   7.064   3.431   6.236  1.1659 -0.5909  0.2222
   24MOL   C249 9035   7.230   2.986   6.054 -0.2162  0.6412 -0.1589
   24MOL   C250 9036   7.233   3.022   5.903  0.0213  0.6331  0.4120
   24MOL   C251 9037   7.367   3.054   5.848 -0.1158 -0.8106 -0.7838
   24MOL   C252 9038   7.358   3.116   5.707 -0.0472  0.3297  0.1883
   24MOL   C253 9039   7.489   3.130   5.630  0.3730  0.0090  0.4657
   24MOL   C254 9040   7.454   3.185   5.488 -0.4272 -0.2340 -0.2017
   24MOL   O255 9041   7.147   3.134   5.885 -0.3007  0.5239  0.1154
   24MOL   H256 9042   7.255   3.072   6.115  0.8684 -1.5346  2.5622
   24MOL   H257 9043   7.302   2.912   6.088  1.0504  1.0096 -1.9564
   24MOL   H258 9044   7.187   2.942   5.843 -0.0610 -0.3232  1.7282
   24MOL   H259 9045   7.414   3.123   5.918 -1.9685 -0.6662  0.3488
   24MOL   H260 9046   7.433   2.967   5.841 -1.6440 -2.0243 -0.6153
   24MOL   H261 9047   7.293   3.051   5.647  1.8270 -0.9865 -0.4606
   24MOL   H262 9048   7.311   3.213   5.723 -0.6183  0.1128 -0.1610
   24MOL   H263 9049   7.557   3.203   5.675  1.3623 -1.3782  1.2331
   24MOL   H264 9050   7.543   3.036   5.621  0.1286 -0.0469 -0.5082
   24MOL   H265 9051   7.370   3.128   5.449  1.0610 -2.0961 -0.8110
   24MOL   H266 9052   7.530   3.172   5.411 -0.5668  2.5201 -0.8482
   24MOL   H267 9053   7.431   3.291   5.489  0.2007 -0.0963  0.5572
   24MOL   C268 9054   7.036   3.104   5.797  0.1879  0.6922  0.7911
   24MOL   C269 9055   6.958   3.236   5.770 -1.1805 -0.3826  0.0722
   24MOL   C270 9056   6.812   3.205   5.708 -0.1283  0.4086  0.0368
   24MOL   C271 9057   6.744   3.335   5.657  0.8611  0.5371  0.5843
   24MOL   C272 9058   6.606   3.306   5.607 -0.3974  1.0598 -0.2988
   24MOL   C273 9059   6.521   3.431   5.575 -0.4069 -0.3445 -0.2980
   24MOL   O274 9060   7.034   3.311   5.683  0.1906 -0.0575 -0.3009
   24MOL   H275 9061   6.975   3.027   5.843 -0.3241  0.2449 -0.6122
   24MOL   H276 9062   7.056   3.071   5.695  1.1165 -0.0731  1.2174
   24MOL   H277 9063   6.940   3.281   5.867  0.3553  0.8830 -0.2099
   24MOL   H278 9064   6.838   3.137   5.628 -1.0319 -2.6745  2.2781
   24MOL   H279 9065   6.746   3.139   5.765 -1.5835 -0.7717 -2.9084
   24MOL   H280 9066   6.735   3.412   5.733  1.1339  1.7339 -0.5598
   24MOL   H281 9067   6.808   3.374   5.577  1.8497  1.2312  1.7012
   24MOL   H282 9068   6.615   3.246   5.517 -0.1313  0.3937  0.1690
   24MOL   H283 9069   6.543   3.246   5.673  1.1929 -2.4996 -1.8749
   24MOL   H284 9070   6.600   3.504   5.553 -1.8914  2.2266  2.5193
   24MOL   H285 9071   6.444   3.423   5.499  0.1388  3.3555 -1.3566
   24MOL   H286 9072   6.475   3.464   5.668  1.1656  0.8007  0.1080
   24MOL   C287 9073   7.106   3.423   5.733  0.5118  0.2553 -0.8386
   24MOL   C288 9074   7.178   3.493   5.615 -1.0568 -0.3915 -0.5027
   24MOL   C289 9075   7.297   3.579   5.672 -0.1874  0.1786 -0.0220
   24MOL   C290 9076   7.366   3.676   5.571  0.1922 -0.0017  0.2402
   24MOL   C291 9077   7.433   3.612   5.446  0.3244  0.2658 -0.2815
   24MOL   C292 9078   7.537   3.706   5.381 -1.0144 -0.2369 -0.4258
   24MOL   O293 9079   7.092   3.583   5.550  0.4239  0.1101  0.1236
   24MOL   H294 9080   7.176   3.394   5.812  1.0807 -1.3353 -1.8847
   24MOL   H295 9081   7.033   3.490   5.779 -0.4280 -1.6083  0.4641
   24MOL   H296 9082   7.224   3.424   5.544  0.7102  0.3106 -0.0770
   24MOL   H297 9083   7.267   3.626   5.765 -1.3407  1.1675 -0.8652
   24MOL   H298 9084   7.373   3.508   5.705 -0.6860  0.4803  1.8171
   24MOL   H299 9085   7.306   3.762   5.542 -1.1044 -0.8202  0.4486
   24MOL   H300 9086   7.440   3.734   5.625  0.5219  0.8634 -1.1014
   24MOL   H301 9087   7.347   3.579   5.387  2.3846 -2.3506 -1.9452
   24MOL   H302 9088   7.483   3.519   5.475 -2.3130 -1.1748 -0.1718
   24MOL   H303 9089   7.614   3.729   5.455 -0.1970 -0.8778 -1.0714
   24MOL   H304 9090   7.601   3.661   5.304 -0.8140 -2.0478  0.7657
   24MOL   H305 9091   7.491   3.798   5.344 -1.8424 -0.9156 -1.1092
   24MOL   C306 9092   7.015   3.540   5.436  0.5873  0.0697  0.2544
   24MOL   C307 9093   6.883   3.627   5.406 -0.2495  0.6931 -0.0227
   24MOL   C308 9094   6.816   3.563   5.286  0.0801 -0.4346 -0.3760
   24MOL   C309 9095   6.687   3.637   5.233  0.1372 -0.1232  0.1036
   24MOL   C310 9096   6.708   3.751   5.130 -0.7171  0.4921 -0.1341
   24MOL   C311 9097   6.581   3.808   5.062  0.5861  0.5241  0.1708
   24MOL   O312 9098   6.920   3.753   5.361  1.1735 -0.1456 -0.5085
   24MOL   H313 9099   7.088   3.545   5.356 -0.9266 -0.3055 -1.1614
   24MOL   H314 9100   6.989   3.435   5.448  0.7523  0.1300  1.1741
   24MOL   H315 9101   6.819   3.631   5.495  1.9542  0.6136  1.6122
   24MOL   H316 9102   6.774   3.470   5.325  0.7805 -0.5597  0.0865
   24MOL   H317 9103   6.891   3.528   5.215 -0.9542  0.2193 -1.8119
   24MOL   H318 9104   6.617   3.564   5.191 -1.0148  0.7269  0.5167
   24MOL   H319 9105   6.624   3.688   5.306 -2.5142 -0.6027 -1.7932
   24MOL   H320 9106   6.789   3.721   5.063  0.3579  1.7439  0.5879
   24MOL   H321 9107   6.761   3.829   5.185  2.1467  0.0645 -2.1423
   24MOL   H322 9108   6.508   3.829   5.141  1.8396  0.7497  1.2834
   24MOL   H323 9109   6.608   3.899   5.009 -0.7709  0.9131  0.1111
   24MOL   H324 9110   6.532   3.739   4.993  1.7002 -1.0659  0.9312
   24MOL   C325 9111   6.978   3.843   5.455  0.4193  0.0995 -0.2848
   24MOL   C326 9112   6.950   3.991   5.425 -0.5293  0.1166  0.1151
   24MOL   C327 9113   7.061   4.074   5.494  0.2651  0.0873  1.0564
   24MOL   C328 9114   7.053   4.227   5.461 -0.3740  0.6543  0.6207
   24MOL   C329 9115   7.166   4.311   5.532  0.0363 -0.7258 -0.2161
   24MOL   C330 9116   7.169   4.460   5.490 -0.4434  0.6092 -0.2914
   24MOL   O331 9117   6.834   4.043   5.497 -0.4754 -0.1208 -0.8097
   24MOL   H332 9118   7.086   3.833   5.459  0.3856 -0.1264  0.0924
   24MOL   H333 9119   6.939   3.829   5.556  0.7675 -1.6962 -0.3775
   24MOL   H334 9120   6.937   4.015   5.320  1.4538 -1.1619 -0.4461
   24MOL   H335 9121   7.061   4.060   5.602  0.0873  1.0878  1.1954
   24MOL   H336 9122   7.162   4.041   5.472  1.5427  3.8172  1.0017
   24MOL   H337 9123   7.069   4.241   5.354 -1.5858 -0.2698  0.3063
   24MOL   H338 9124   6.950   4.256   5.485 -0.6827  0.6672 -0.6871
   24MOL   H339 9125   7.160   4.308   5.641  2.6181  0.3344 -0.0109
   24MOL   H340 9126   7.265   4.277   5.505 -0.0537 -1.2531  0.1257
   24MOL   H341 9127   7.248   4.504   5.550  1.3192  0.7502 -2.6536
   24MOL   H342 9128   7.193   4.485   5.387  2.2070  1.5179  0.5094
   24MOL   H343 9129   7.071   4.507   5.506  0.5701  2.4288  0.7378
   24MOL   C344 9130   6.712   3.979   5.459  0.5077 -0.3638 -0.4567
   24MOL   C345 9131   6.594   4.036   5.534 -0.2883  0.1146  0.0886
   24MOL   C346 9132   6.472   4.040   5.444 -0.0879  0.5648  0.0380
   24MOL   C347 9133   6.351   4.097   5.516  0.0303 -0.9068 -0.0862
   24MOL   C348 9134   6.236   4.130   5.415 -0.2957  0.6819 -0.0195
   24MOL   C349 9135   6.112   4.167   5.484  0.1849 -0.1859 -0.3160
   24MOL   O350 9136   6.555   3.973   5.658 -0.1327 -0.1012  0.0032
   24MOL   H351 9137   6.721   3.873   5.481 -0.0109 -0.2121  0.5230
   24MOL   H352 9138   6.699   3.989   5.351 -0.5272 -1.2904 -0.4235
   24MOL   H353 9139   6.624   4.137   5.562 -0.0427 -0.1764  0.8852
   24MOL   H354 9140   6.448   3.947   5.393 -2.6512  2.2531 -1.9386
   24MOL   H355 9141   6.487   4.107   5.359 -0.2386  0.1107 -0.3414
   24MOL   H356 9142   6.375   4.187   5.573 -1.6024 -0.4533 -0.0892
   24MOL   H357 9143   6.311   4.030   5.593  2.4716  0.9759  2.9228
   24MOL   H358 9144   6.212   4.050   5.345  0.1799  1.5609 -1.2075
   24MOL   H359 9145   6.267   4.210   5.348 -0.8248  1.2370  0.3987
   24MOL   H360 9146   6.087   4.106   5.571 -0.7303  0.3151 -0.2124
   24MOL   H361 9147   6.027   4.167   5.416  0.9056 -1.2181 -1.2226
   24MOL   H362 9148   6.116   4.271   5.518 -0.6385 -0.6347  1.1894
   24MOL   C363 9149   6.648   4.004   5.769  0.8004  0.7709  0.8550
   24MOL   C364 9150   6.570   3.965   5.890  0.0678  0.1439  0.4703
   24MOL   C365 9151   6.440   4.040   5.910  0.2464 -0.2349  0.6076
   24MOL   C366 9152   6.385   4.011   6.048  0.5797 -0.5571 -0.1486
   24MOL   C367 9153   6.252   4.074   6.098 -0.2666  0.1176  0.3387
   24MOL   C368 9154   6.221   4.044   6.247  0.2400  0.1294 -0.7424
   24MOL   O369 9155   6.542   3.823   5.876  0.2498 -0.2013  0.2715
   24MOL   H370 9156   6.686   4.106   5.768  2.2221  0.2554  1.1188
   24MOL   H371 9157   6.741   3.947   5.766 -0.6103 -1.6061  0.7499
   24MOL   H372 9158   6.633   3.975   5.979 -1.0494  1.7224  1.1091
   24MOL   H373 9159   6.461   4.144   5.888 -0.0470 -0.2405  0.2862
   24MOL   H374 9160   6.369   4.011   5.833  2.7849 -0.1644 -1.8535
   24MOL   H375 9161   6.383   3.904   6.068 -0.0200 -0.3834  0.7962
   24MOL   H376 9162   6.458   4.043   6.123  0.0857 -0.1929  0.1751
   24MOL   H377 9163   6.257   4.180   6.075 -0.0334 -0.1604 -0.9532
   24MOL   H378 9164   6.176   4.036   6.031  0.4856 -1.4302  0.3355
   24MOL   H379 9165   6.285   4.100   6.315  2.2351  1.8042 -3.8405
   24MOL   H380 9166   6.117   4.075   6.259  1.1974  3.1306  0.1701
   24MOL   H381 9167   6.242   3.940   6.271  0.4698  0.1721 -0.7575
   24MOL   H382 9168   6.489   3.834   5.799 -0.0606 -1.4323  0.2910
   25MOL     C1 9169   1.209   5.987   2.272  0.6165  0.9682 -0.3105
   25MOL     C2 9170   1.122   6.114   2.263  0.4001  0.4821  0.7788
   25MOL     C3 9171   1.051   6.153   2.393  0.1562 -0.3551 -0.5211
   25MOL     C4 9172   0.924   6.244   2.375 -0.4347 -0.0695  0.0535
   25MOL     C5 9173   0.819   6.250   2.488 -0.4907  0.4233  0.2527
   25MOL     C6 9174   0.759   6.109   2.523 -0.9215  0.1364 -0.1298
   25MOL     O7 9175   1.202   6.231   2.213  0.5790 -0.1282  0.1311
   25MOL     H8 9176   1.155   5.908   2.324  1.1193  1.0261  0.2989
   25MOL     H9 9177   1.290   6.008   2.341  0.6708  1.2382 -0.4571
   25MOL    H10 9178   1.046   6.086   2.189  0.5027 -0.0436  0.8680
   25MOL    H11 9179   1.035   6.055   2.437  1.4561 -0.6172 -0.5935
   25MOL    H12 9180   1.136   6.189   2.450 -0.4613 -0.9311  0.7817
   25MOL    H13 9181   0.962   6.343   2.353 -2.2781  0.1562 -2.2717
   25MOL    H14 9182   0.872   6.226   2.281  0.1178  0.6789 -0.3973
   25MOL    H15 9183   0.865   6.294   2.577  0.5677  0.5423 -0.3405
   25MOL    H16 9184   0.736   6.314   2.457  0.0381  0.7603 -0.4882
   25MOL    H17 9185   0.665   6.130   2.575 -0.3642  2.6691 -0.0425
   25MOL    H18 9186   0.745   6.043   2.438 -0.1963 -1.7097  1.1573
   25MOL    H19 9187   0.825   6.063   2.597 -0.7788  0.2400 -0.1913
   25MOL    H20 9188   1.240   5.940   2.178  0.9927  2.2150 -0.8185
   25MOL    C21 9189   1.245   6.219   2.079 -0.2926  0.2232 -0.2427
   25MOL    C22 9190   1.313   6.349   2.041  1.3215 -0.7899  0.0482
   25MOL    C23 9191   1.411   6.323   1.923 -0.1161  0.5308  0.3481
   25MOL    C24 9192   1.508   6.435   1.886  0.1223 -0.5480  0.5715
   25MOL    C25 9193   1.567   6.399   1.753  1.1342 -0.7465  0.0954
   25MOL    C26 9194   1.695   6.469   1.728  0.5194 -0.1461  0.1683
   25MOL    O27 9195   1.215   6.445   1.992 -0.1538  0.1261  0.7411
   25MOL    H28 9196   1.322   6.141   2.078  1.2822  1.7658 -1.3096
   25MOL    H29 9197   1.171   6.188   2.005  0.8452 -1.3000 -0.7673
   25MOL    H30 9198   1.372   6.391   2.122  0.5132  0.3243  0.0753
   25MOL    H31 9199   1.346   6.298   1.840 -0.2674  0.4268  0.4977
   25MOL    H32 9200   1.466   6.234   1.956  0.3954  1.5828  2.4354
   25MOL    H33 9201   1.581   6.453   1.965  0.0378  0.9039  0.3453
   25MOL    H34 9202   1.442   6.520   1.869 -0.7953 -1.1131  1.2833
   25MOL    H35 9203   1.600   6.295   1.757  1.1191 -0.8132 -1.4161
   25MOL    H36 9204   1.499   6.395   1.668  2.0747 -0.0349 -0.7024
   25MOL    H37 9205   1.747   6.507   1.816 -1.2256  0.4367  0.9574
   25MOL    H38 9206   1.672   6.566   1.684 -1.3906 -1.2633 -1.3664
   25MOL    H39 9207   1.765   6.420   1.661 -0.5338  0.4545 -1.4025
   25MOL    C40 9208   1.125   6.506   2.087 -0.2542 -0.3979  0.4898
   25MOL    C41 9209   1.027   6.609   2.019 -0.2007  0.5464 -0.2198
   25MOL    C42 9210   0.978   6.697   2.138 -0.1303 -0.0890 -0.1598
   25MOL    C43 9211   0.873   6.807   2.094 -0.1979 -0.5837 -0.1647
   25MOL    C44 9212   0.947   6.920   2.023  0.4001  0.7736  0.1664
   25MOL    C45 9213   0.880   6.959   1.894 -0.0687  0.1651 -0.0234
   25MOL    O46 9214   0.908   6.545   1.972  0.0451 -0.9167  0.5122
   25MOL    H47 9215   1.187   6.566   2.154  2.1729 -0.5765 -1.5330
   25MOL    H48 9216   1.077   6.440   2.159 -0.1228  0.3929  1.3051
   25MOL    H49 9217   1.086   6.666   1.948  3.4737 -1.4980  1.0199
   25MOL    H50 9218   0.939   6.628   2.212  1.3606 -0.1187  0.6165
   25MOL    H51 9219   1.064   6.742   2.188  0.3051 -1.4406  0.3162
   25MOL    H52 9220   0.827   6.848   2.184  0.4778 -0.6497  0.2151
   25MOL    H53 9221   0.796   6.780   2.022 -1.0252  1.6003 -0.1349
   25MOL    H54 9222   0.967   7.000   2.094  1.7401 -0.2723  1.0136
   25MOL    H55 9223   1.044   6.890   1.983 -1.0420  0.1869 -3.0321
   25MOL    H56 9224   0.935   7.034   1.837  1.0010  1.8380  3.0779
   25MOL    H57 9225   0.888   6.872   1.828 -0.2480 -0.4559  0.7731
   25MOL    H58 9226   0.776   6.987   1.909  0.6390  2.7388  0.3704
   25MOL    C59 9227   0.934   6.461   1.864 -0.0576  0.3103 -0.4100
   25MOL    C60 9228   0.794   6.415   1.819 -0.2965 -0.1890 -0.1987
   25MOL    C61 9229   0.798   6.375   1.669  0.0880  0.1153  0.2536
   25MOL    C62 9230   0.667   6.306   1.623 -0.6409 -0.1954 -0.5441
   25MOL    C63 9231   0.661   6.269   1.475  0.5838 -0.0374  0.2632
   25MOL    C64 9232   0.526   6.191   1.447  0.3943  0.0202 -0.5461
   25MOL    O65 9233   0.751   6.298   1.898 -0.6428 -0.5613  0.4208
   25MOL    H66 9234   0.990   6.373   1.896  1.3798  0.9247 -1.1723
   25MOL    H67 9235   0.985   6.502   1.776 -1.5643 -1.3641 -2.0999
   25MOL    H68 9236   0.724   6.498   1.828 -0.1067  0.1589 -1.8591
   25MOL    H69 9237   0.878   6.307   1.639  0.2913 -0.6390  2.4189
   25MOL    H70 9238   0.816   6.468   1.616 -1.7159 -1.7443 -3.8842
   25MOL    H71 9239   0.584   6.373   1.647 -0.3336 -0.1414  0.3500
   25MOL    H72 9240   0.646   6.216   1.680 -0.9249 -0.9441 -1.8003
   25MOL    H73 9241   0.747   6.209   1.445 -0.4313 -0.2182 -2.3466
   25MOL    H74 9242   0.660   6.354   1.407 -2.4856 -1.0817 -1.0858
   25MOL    H75 9243   0.511   6.109   1.518  0.3194  1.1908  0.8067
   25MOL    H76 9244   0.437   6.251   1.463 -0.3827 -0.5969 -2.4276
   25MOL    H77 9245   0.511   6.154   1.346 -0.1080 -0.4132 -0.3151
   25MOL    C78 9246   0.686   6.330   2.013 -0.6044 -0.3271  0.0802
   25MOL    C79 9247   0.607   6.206   2.053  0.7730  0.4397  0.2886
   25MOL    C80 9248   0.514   6.242   2.175  0.6371  0.0821  0.1079
   25MOL    C81 9249   0.407   6.135   2.215  0.8660  0.4117  0.2197
   25MOL    C82 9250   0.286   6.146   2.126  0.0080 -0.2456  0.1862
   25MOL    C83 9251   0.178   6.255   2.163 -0.4089 -0.1826 -0.6026
   25MOL    O84 9252   0.680   6.088   2.101  0.5720 -0.1078  0.5118
   25MOL    H85 9253   0.609   6.402   1.986  0.9594  0.3235 -2.9427
   25MOL    H86 9254   0.755   6.362   2.091  0.9810 -2.3566 -0.4343
   25MOL    H87 9255   0.543   6.171   1.971  0.0588  1.2055  0.5068
   25MOL    H88 9256   0.570   6.251   2.268  1.6966  1.2158 -0.6147
   25MOL    H89 9257   0.464   6.337   2.154  0.9946  0.2414 -0.0321
   25MOL    H90 9258   0.381   6.149   2.320 -0.9039  2.8038 -0.4790
   25MOL    H91 9259   0.450   6.036   2.202  0.2735  0.0880  0.6871
   25MOL    H92 9260   0.312   6.167   2.022 -1.7638  0.6223 -0.1049
   25MOL    H93 9261   0.221   6.059   2.116 -0.9853  0.6793 -1.8843
   25MOL    H94 9262   0.098   6.257   2.089 -0.6979 -1.0552 -0.3169
   25MOL    H95 9263   0.233   6.347   2.179  2.6203 -1.7912 -1.4318
   25MOL    H96 9264   0.132   6.213   2.253  3.2447 -3.2192 -0.0410
   25MOL    C97 9265   0.791   6.033   2.022  0.4356  0.2984  0.0717
   25MOL    C98 9266   0.740   5.984   1.885  0.3171 -0.3515 -0.4675
   25MOL    C99 9267   0.853   6.000   1.785 -0.6009 -0.0419 -0.2837
   25MOL   C100 9268   0.823   5.959   1.637  0.2173  0.0228 -0.5101
   25MOL   C101 9269   0.921   6.001   1.535  0.1115 -0.9294 -0.1828
   25MOL   C102 9270   0.879   5.962   1.399 -0.0939  0.6159  0.0106
   25MOL   O103 9271   0.709   5.848   1.886  0.0617 -0.0143 -0.6661
   25MOL   H104 9272   0.828   5.951   2.083 -1.9489 -2.0926 -1.5755
   25MOL   H105 9273   0.865   6.111   2.002 -1.1795  1.4492 -1.6431
   25MOL   H106 9274   0.651   6.037   1.850 -1.1709 -1.0298  2.1708
   25MOL   H107 9275   0.944   5.955   1.824  0.4121 -1.0232 -3.6017
   25MOL   H108 9276   0.881   6.105   1.776  2.2867 -0.6564  1.0530
   25MOL   H109 9277   0.726   6.003   1.615 -0.7390 -0.0657  3.3255
   25MOL   H110 9278   0.821   5.850   1.632  1.4155  0.0225 -1.6039
   25MOL   H111 9279   1.016   5.955   1.562  0.4602 -0.5935 -0.8192
   25MOL   H112 9280   0.943   6.107   1.546  1.5300 -1.1044 -1.2294
   25MOL   H113 9281   0.842   5.860   1.401 -0.6487  0.7899 -0.8939
   25MOL   H114 9282   0.798   6.031   1.372  0.6201  1.9459  1.1799
   25MOL   H115 9283   0.957   5.965   1.323  0.7990  1.8576  0.9708
   25MOL   C116 9284   0.614   5.791   1.978 -0.4276  0.1515 -0.4268
   25MOL   C117 9285   0.471   5.804   1.924 -0.4261  0.2990 -0.4001
   25MOL   C118 9286   0.364   5.748   2.024  0.0825 -0.0951 -0.2846
   25MOL   C119 9287   0.220   5.759   1.965 -0.6325 -0.3963  0.0779
   25MOL   C120 9288   0.118   5.718   2.071  0.4553  0.3700  0.1987
   25MOL   C121 9289   0.109   5.559   2.082  1.0504  0.1773  0.0324
   25MOL   O122 9290   0.450   5.734   1.800 -0.7749 -0.0563  0.1917
   25MOL   H123 9291   0.649   5.688   1.992 -1.0632 -0.1272 -0.8851
   25MOL   H124 9292   0.617   5.838   2.076  0.0526 -0.7550 -0.0017
   25MOL   H125 9293   0.447   5.909   1.912 -1.0383  0.3035  0.7748
   25MOL   H126 9294   0.388   5.643   2.043  1.1421  0.4124  1.2316
   25MOL   H127 9295   0.374   5.792   2.123  2.2996 -0.8327 -0.1592
   25MOL   H128 9296   0.217   5.681   1.889  1.0501 -2.3389  1.9405
   25MOL   H129 9297   0.191   5.856   1.925 -1.4579 -1.2078 -1.3482
   25MOL   H130 9298   0.135   5.774   2.163  2.7650 -0.6898  0.4427
   25MOL   H131 9299   0.020   5.748   2.033  0.8793  0.1629 -1.0820
   25MOL   H132 9300   0.075   5.522   1.985 -0.9295  1.2913  0.2809
   25MOL   H133 9301   0.203   5.516   2.116  2.7734  2.6349 -1.4761
   25MOL   H134 9302   0.037   5.533   2.158  1.6964 -2.2157 -0.1370
   25MOL   C135 9303   0.486   5.807   1.680 -0.4879  0.9510  0.0815
   25MOL   C136 9304   0.451   5.746   1.543 -0.4615 -0.6814 -0.2307
   25MOL   C137 9305   0.554   5.793   1.437 -0.0603  0.0151 -0.2385
   25MOL   C138 9306   0.523   5.746   1.297  0.5805  0.4058  0.4343
   25MOL   C139 9307   0.516   5.595   1.285  0.6095  0.3471 -0.3958
   25MOL   C140 9308   0.517   5.542   1.145 -0.0981 -0.4015 -0.4848
   25MOL   O141 9309   0.333   5.809   1.499  0.0202  0.3846 -0.0723
   25MOL   H142 9310   0.457   5.912   1.687 -1.0737  0.8136 -0.2364
   25MOL   H143 9311   0.594   5.799   1.686 -0.4695  2.0192  1.4200
   25MOL   H144 9312   0.432   5.641   1.563 -0.6010 -1.2057 -2.9527
   25MOL   H145 9313   0.569   5.900   1.448  1.5234 -0.2944  0.6275
   25MOL   H146 9314   0.653   5.757   1.465 -0.6277  0.2278  2.1760
   25MOL   H147 9315   0.594   5.788   1.225  0.7420  1.6696  1.3279
   25MOL   H148 9316   0.426   5.788   1.273  0.4005  0.7628  1.7859
   25MOL   H149 9317   0.420   5.569   1.329  0.5350 -0.9718 -1.2935
   25MOL   H150 9318   0.583   5.541   1.352 -0.4135  2.0186  2.0496
   25MOL   H151 9319   0.514   5.433   1.146  0.3933 -0.4084  1.5123
   25MOL   H152 9320   0.433   5.584   1.088 -0.5709 -2.2491 -1.1693
   25MOL   H153 9321   0.608   5.575   1.095  1.7017  0.1441  2.9917
   25MOL   C154 9322   0.216   5.768   1.566  0.1667  0.2322 -0.1101
   25MOL   C155 9323   0.099   5.818   1.475  0.8866  0.4275  0.4367
   25MOL   C156 9324   7.760   5.731   1.504 -1.2969  0.5573  0.0882
   25MOL   C157 9325   7.631   5.766   1.424  0.3754 -0.3603 -0.3996
   25MOL   C158 9326   7.517   5.670   1.470  0.1354 -0.4349 -0.2374
   25MOL   C159 9327   7.381   5.691   1.393  0.8251 -0.1631  0.1896
   25MOL   O160 9328   0.077   5.953   1.512  0.1219  0.3565  0.2543
   25MOL   H161 9329   0.202   5.829   1.656 -1.3216 -1.1646  0.6249
   25MOL   H162 9330   0.216   5.660   1.581  2.5594  0.4300  1.5518
   25MOL   H163 9331   0.110   5.804   1.367 -1.6760  0.4531  0.1467
   25MOL   H164 9332   7.737   5.736   1.611  1.8849 -0.0556  0.8445
   25MOL   H165 9333   0.000   5.627   1.486  0.2864  1.0455 -0.4931
   25MOL   H166 9334   7.640   5.767   1.315 -0.4766 -2.4058 -0.5000
   25MOL   H167 9335   7.600   5.869   1.442  2.9595  0.5264 -0.8238
   25MOL   H168 9336   7.549   5.566   1.460 -1.4381 -1.0633  1.1319
   25MOL   H169 9337   7.503   5.679   1.578 -1.7708 -1.7046 -0.3726
   25MOL   H170 9338   7.319   5.607   1.422  0.9730 -0.2846  0.1542
   25MOL   H171 9339   7.386   5.687   1.285 -1.4430  0.5591  0.0427
   25MOL   H172 9340   7.318   5.777   1.417  0.6291 -0.0082 -0.8557
   25MOL   C173 9341   0.027   6.041   1.407  0.5401 -0.2028 -0.3512
   25MOL   C174 9342   0.132   6.152   1.401 -0.1864  0.5945  0.5230
   25MOL   C175 9343   0.133   6.234   1.271 -0.0194  0.3085 -0.2539
   25MOL   C176 9344   0.247   6.333   1.246  0.4307 -0.1356  0.8752
   25MOL   C177 9345   0.232   6.410   1.119 -0.4958 -0.2228  0.6193
   25MOL   C178 9346   0.318   6.534   1.104 -0.0385 -0.0194 -0.5181
   25MOL   O179 9347   0.122   6.261   1.492 -0.0382  0.2513 -0.3492
   25MOL   H180 9348   7.716   6.075   1.444  0.3353 -0.9682 -0.1749
   25MOL   H181 9349   0.014   5.993   1.310  0.0070  1.3153 -1.0446
   25MOL   H182 9350   0.231   6.107   1.409 -0.8137 -0.7526  0.8407
   25MOL   H183 9351   0.129   6.156   1.194  1.8738  1.0870 -1.1854
   25MOL   H184 9352   0.037   6.283   1.258 -0.0609  0.2375 -0.2128
   25MOL   H185 9353   0.246   6.399   1.332 -0.0159 -2.3606  2.6334
   25MOL   H186 9354   0.341   6.278   1.232  0.8086  0.4029  1.2781
   25MOL   H187 9355   0.231   6.347   1.030 -1.4111 -0.0983  0.5299
   25MOL   H188 9356   0.128   6.443   1.118 -0.0114  1.3947 -1.9766
   25MOL   H189 9357   0.271   6.592   1.023 -0.3055  1.5907  0.7581
   25MOL   H190 9358   0.421   6.507   1.082  0.0405  1.0487 -1.5507
   25MOL   H191 9359   0.325   6.582   1.202 -1.6147 -1.7327  0.4503
   25MOL   C192 9360   0.146   6.239   1.631  0.0703  0.1564 -0.0387
   25MOL   C193 9361   0.150   6.373   1.698 -0.4515  1.1117 -0.1491
   25MOL   C194 9362   0.235   6.351   1.825 -0.5146 -0.2913 -0.5894
   25MOL   C195 9363   0.264   6.482   1.903 -0.4216  0.2924  0.2690
   25MOL   C196 9364   0.367   6.569   1.831 -0.0640  0.2680  0.1222
   25MOL   C197 9365   0.387   6.700   1.902 -0.0454 -0.3465 -0.4008
   25MOL   O198 9366   0.019   6.428   1.733  0.0015  0.2611  0.0513
   25MOL   H199 9367   0.075   6.170   1.676  0.5108  0.3966  1.0312
   25MOL   H200 9368   0.244   6.190   1.636 -0.3168 -0.4419  1.8434
   25MOL   H201 9369   0.197   6.444   1.629 -0.4933 -0.5308 -1.9175
   25MOL   H202 9370   0.196   6.279   1.896  0.7871 -2.0749 -1.6620
   25MOL   H203 9371   0.334   6.312   1.803 -0.0813  1.0370 -1.0914
   25MOL   H204 9372   0.303   6.457   2.001  0.1476  1.0332  0.2363
   25MOL   H205 9373   0.167   6.529   1.917 -0.0869  0.7069  1.1777
   25MOL   H206 9374   0.462   6.520   1.809  0.2709  1.8183 -2.0972
   25MOL   H207 9375   0.324   6.594   1.734  1.6152  1.0778 -0.4280
   25MOL   H208 9376   0.460   6.772   1.865 -0.0057  0.9689  2.1500
   25MOL   H209 9377   0.298   6.762   1.912  0.1399 -0.4656  2.4735
   25MOL   H210 9378   0.409   6.700   2.009 -2.0906 -2.9004  0.0539
   25MOL   C211 9379   7.760   6.553   1.674 -0.4046 -0.2832 -0.2034
   25MOL   C212 9380   7.710   6.546   1.532  0.0900 -0.1885 -0.2216
   25MOL   C213 9381   7.705   6.686   1.470 -0.4059 -0.6129 -0.2246
   25MOL   C214 9382   7.705   6.709   1.326  0.1712 -0.1834  0.3713
   25MOL   C215 9383   0.066   6.699   1.275 -0.1597 -0.6866  0.0997
   25MOL   C216 9384   0.149   6.823   1.287  0.2728  0.2413  0.6953
   25MOL   O217 9385   7.583   6.485   1.514 -0.1575 -0.2320 -0.2087
   25MOL   H218 9386   0.057   6.624   1.678 -1.1495  0.6130 -0.6632
   25MOL   H219 9387   7.678   6.595   1.731 -0.9499  1.3424 -2.1288
   25MOL   H220 9388   7.776   6.485   1.470  0.7010  0.2613 -0.0259
   25MOL   H221 9389   7.612   6.723   1.513 -0.0167  0.5055 -0.3287
   25MOL   H222 9390   0.010   6.740   1.500 -0.1473 -0.6253 -0.9856
   25MOL   H223 9391   7.639   6.659   1.255  0.4619  0.8659 -0.6514
   25MOL   H224 9392   7.674   6.813   1.315  1.0816  0.2507  1.7322
   25MOL   H225 9393   0.108   6.612   1.324 -0.5042 -1.1426 -0.4025
   25MOL   H226 9394   0.069   6.674   1.168 -2.5025 -1.4770  0.1848
   25MOL   H227 9395   0.192   6.826   1.387 -0.0484  1.4265  0.8025
   25MOL   H228 9396   0.108   6.915   1.244 -1.6273 -1.8193 -2.0399
   25MOL   H229 9397   0.242   6.814   1.230  0.2051  0.0916  0.6094
   25MOL   C230 9398   7.570   6.353   1.557 -0.6776  0.1882  0.3280
   25MOL   C231 9399   7.468   6.284   1.455 -0.1534 -0.4328 -0.0390
   25MOL   C232 9400   7.435   6.139   1.508 -0.1637 -0.5855 -0.2472
   25MOL   C233 9401   7.318   6.142   1.606  0.9500 -0.5027  0.1229
   25MOL   C234 9402   7.272   5.998   1.641  0.3707  0.2681 -0.0323
   25MOL   C235 9403   7.163   5.993   1.746 -0.2189  0.7381  0.5255
   25MOL   O236 9404   7.531   6.266   1.330 -0.2624 -0.0010 -0.0638
   25MOL   H237 9405   7.667   6.305   1.547  0.3384  2.3099 -0.4329
   25MOL   H238 9406   7.537   6.343   1.661 -2.0034  0.5149 -0.0536
   25MOL   H239 9407   7.375   6.340   1.453  2.0590  3.5883  3.3260
   25MOL   H240 9408   7.519   6.088   1.556  1.9911  1.6373 -1.5362
   25MOL   H241 9409   7.403   6.079   1.423  0.2061 -0.9632 -0.1228
   25MOL   H242 9410   7.233   6.192   1.559  1.1662  0.4923  0.7662
   25MOL   H243 9411   7.334   6.205   1.694  1.8995  0.3049 -0.6149
   25MOL   H244 9412   7.248   5.944   1.550  0.4591  1.0348 -0.5131
   25MOL   H245 9413   7.355   5.939   1.681  2.0825  3.0274  0.6244
   25MOL   H246 9414   7.082   6.065   1.734 -2.2626 -1.1150  2.6025
   25MOL   H247 9415   7.202   6.019   1.845 -1.7019  1.1585  1.0098
   25MOL   H248 9416   7.130   5.889   1.755  0.4755  0.2504 -2.2891
   25MOL   C249 9417   7.461   6.332   1.225  0.0415  0.2510 -0.6647
   25MOL   C250 9418   7.491   6.289   1.081 -0.0425  0.5342  0.3700
   25MOL   C251 9419   7.400   6.373   0.985 -0.2218 -0.3800 -0.2204
   25MOL   C252 9420   7.382   6.326   0.840 -1.0337 -0.1846 -0.0791
   25MOL   C253 9421   7.266   6.396   0.764 -0.2699  0.5429 -0.1369
   25MOL   C254 9422   7.238   6.347   0.628  0.3305 -0.1961  0.6440
   25MOL   O255 9423   7.460   6.155   1.062 -0.4300  0.0203 -0.1265
   25MOL   H256 9424   7.356   6.305   1.234 -0.4573  1.3261 -2.8796
   25MOL   H257 9425   7.473   6.440   1.226  0.9854  0.1561  2.2476
   25MOL   H258 9426   7.595   6.314   1.058  0.0269  1.1723  1.3240
   25MOL   H259 9427   7.298   6.376   1.024 -0.2544  4.0626 -0.3410
   25MOL   H260 9428   7.440   6.474   0.981 -0.4210 -0.2254  1.2353
   25MOL   H261 9429   7.482   6.340   0.799 -1.1709  1.6048  0.1491
   25MOL   H262 9430   7.370   6.218   0.839 -0.3231 -0.2637 -0.0972
   25MOL   H263 9431   7.171   6.369   0.809 -0.0389  0.4862  0.3175
   25MOL   H264 9432   7.273   6.505   0.765 -1.0607  0.6038 -0.4947
   25MOL   H265 9433   7.321   6.361   0.559  0.6269 -0.6759  0.9059
   25MOL   H266 9434   7.150   6.400   0.590  0.8224  0.1106 -0.0637
   25MOL   H267 9435   7.213   6.241   0.627 -1.1207  0.0879  2.5712
   25MOL   C268 9436   7.557   6.075   1.113  0.2141 -0.8666 -0.2863
   25MOL   C269 9437   7.632   6.024   0.991  0.9119 -0.2304  0.5976
   25MOL   C270 9438   7.712   5.894   1.008 -0.0980  0.8101 -0.3607
   25MOL   C271 9439   7.630   5.769   1.021 -0.5875 -0.1065 -0.3165
   25MOL   C272 9440   7.694   5.638   1.082 -0.3700 -0.6590  0.9316
   25MOL   C273 9441   7.587   5.536   1.114  0.2941  0.3264 -0.7591
   25MOL   O274 9442   7.726   6.124   0.957 -0.0752  0.1782  0.0793
   25MOL   H275 9443   7.507   5.994   1.165  0.3344  1.3199  3.3804
   25MOL   H276 9444   7.628   6.120   1.183 -1.0323 -0.3192  0.6340
   25MOL   H277 9445   7.565   6.014   0.906  1.7618 -0.8922  0.0011
   25MOL   H278 9446   7.772   5.871   0.920  1.7593  2.3349  0.4700
   25MOL   H279 9447   7.772   5.906   1.097  0.1030  1.0253 -0.5243
   25MOL   H280 9448   7.540   5.799   1.074  0.1169  2.0253 -0.2537
   25MOL   H281 9449   7.603   5.736   0.920  0.7171 -1.8821 -0.1159
   25MOL   H282 9450   7.770   5.599   1.014 -1.6815 -1.7529  0.0894
   25MOL   H283 9451   7.742   5.663   1.177 -2.2752  1.4713  1.3781
   25MOL   H284 9452   7.565   5.485   1.020 -1.5041 -1.0623  0.3981
   25MOL   H285 9453   7.634   5.463   1.179 -2.2442 -0.3752  0.3131
   25MOL   H286 9454   7.497   5.571   1.164  0.8349  0.5419  0.0721
   25MOL   C287 9455   7.763   6.129   0.817  0.8523  0.1456 -0.3311
   25MOL   C288 9456   0.119   6.158   0.792  0.1590 -0.1335 -0.0431
   25MOL   C289 9457   0.214   6.079   0.889 -0.6571 -0.0920 -0.0994
   25MOL   C290 9458   0.368   6.091   0.865  0.0412  0.5272 -0.4797
   25MOL   C291 9459   0.454   6.031   0.976  0.1764  0.6329  0.7176
   25MOL   C292 9460   0.610   6.020   0.941 -0.1064  0.3650  0.1531
   25MOL   O293 9461   0.150   6.298   0.801  0.1306  0.4971 -0.8792
   25MOL   H294 9462   7.698   6.204   0.771 -1.3532 -0.6024  1.4611
   25MOL   H295 9463   7.741   6.036   0.765 -1.0743  0.5779 -0.3122
   25MOL   H296 9464   0.145   6.115   0.695 -1.5243  0.5045 -0.7878
   25MOL   H297 9465   0.213   6.128   0.987  1.3001  2.2690 -1.2065
   25MOL   H298 9466   0.197   5.972   0.899  1.2187 -0.4843 -0.7735
   25MOL   H299 9467   0.385   6.057   0.763 -0.0422  0.6473 -0.5346
   25MOL   H300 9468   0.379   6.198   0.846  0.3720  0.7180  0.7301
   25MOL   H301 9469   0.416   5.932   0.999  0.8514 -0.1181 -1.2486
   25MOL   H302 9470   0.440   6.100   1.058  3.6708  0.8654  1.1967
   25MOL   H303 9471   0.618   5.953   0.855 -1.3008  0.3619  0.0417
   25MOL   H304 9472   0.651   6.118   0.916 -2.2580  1.4532  0.7384
   25MOL   H305 9473   0.670   5.973   1.018  3.1773 -0.2808 -2.6630
   25MOL   C306 9474   0.143   6.367   0.676 -0.0598 -0.7338  0.2143
   25MOL   C307 9475   0.177   6.519   0.694  0.0208 -0.0975  0.3253
   25MOL   C308 9476   0.078   6.585   0.789  0.1901  0.2296  0.4321
   25MOL   C309 9477   0.084   6.738   0.803 -0.2535 -0.0409  0.7250
   25MOL   C310 9478   7.770   6.796   0.902 -0.0487 -0.3756 -0.1031
   25MOL   C311 9479   0.009   6.940   0.933 -0.2421 -0.7024  0.2167
   25MOL   O312 9480   0.175   6.588   0.568  0.0940  0.1405 -0.8190
   25MOL   H313 9481   0.213   6.322   0.606  2.1769  1.4941  0.9642
   25MOL   H314 9482   0.044   6.359   0.631  0.0116 -1.9880  0.2544
   25MOL   H315 9483   0.275   6.549   0.731  0.6859 -1.1993 -0.5281
   25MOL   H316 9484   0.075   6.532   0.884 -1.6111 -1.3621 -0.4756
   25MOL   H317 9485   7.762   6.558   0.760  0.4911  0.1331 -0.5663
   25MOL   H318 9486   0.185   6.771   0.831  0.2653 -0.7915 -0.2473
   25MOL   H319 9487   0.070   6.778   0.703 -1.2561  0.2227  0.9653
   25MOL   H320 9488   7.772   6.735   0.992 -0.4060  1.7166  1.3740
   25MOL   H321 9489   7.670   6.781   0.862 -0.0481 -1.9750  0.4739
   25MOL   H322 9490   7.708   6.990   0.976  2.7156  2.1428  3.1665
   25MOL   H323 9491   0.097   6.950   0.998 -0.2723  1.8855 -0.0913
   25MOL   H324 9492   0.029   7.011   0.852 -0.6174 -1.2512 -0.3570
   25MOL   C325 9493   0.278   6.561   0.474 -0.2231  0.2807 -0.5254
   25MOL   C326 9494   0.286   6.685   0.380  0.0667 -0.2166 -0.1056
   25MOL   C327 9495   0.325   6.641   0.247  0.1776 -0.3333 -0.0090
   25MOL   C328 9496   0.371   6.753   0.152  0.3076  0.4179  0.1256
   25MOL   C329 9497   0.397   6.685   0.020  0.6241 -0.2340  0.1187
   25MOL   C330 9498   0.419   6.783   7.694 -0.1195  0.0130 -0.1536
   25MOL   O331 9499   0.374   6.783   0.434 -1.2014  0.3694 -0.1253
   25MOL   H332 9500   0.239   6.482   0.410  2.2841 -0.4123 -1.2122
   25MOL   H333 9501   0.377   6.543   0.516  1.0042  3.6361 -1.8464
   25MOL   H334 9502   0.186   6.728   0.372  0.7247  1.1084 -1.5585
   25MOL   H335 9503   0.410   6.574   0.255 -1.3336 -2.1200  1.7321
   25MOL   H336 9504   0.249   6.577   0.202  1.6982  0.2291 -3.5890
   25MOL   H337 9505   0.287   6.821   0.137  0.4715  0.5748 -0.0964
   25MOL   H338 9506   0.449   6.818   0.190  0.0541  0.1322  1.1321
   25MOL   H339 9507   0.481   6.615   0.028  1.3467  0.6192  0.1156
   25MOL   H340 9508   0.309   6.624   7.784 -0.3584  1.3320 -0.3557
   25MOL   H341 9509   0.373   6.746   7.602  0.4155 -1.7447  0.2779
   25MOL   H342 9510   0.370   6.878   7.715  0.8365  0.1000  1.8186
   25MOL   H343 9511   0.522   6.790   7.658 -0.4251 -0.9566 -1.2692
   25MOL   C344 9512   0.318   6.914   0.411  0.0400  0.6926 -0.4836
   25MOL   C345 9513   0.392   7.031   0.464  0.6359  0.1137 -0.1950
   25MOL   C346 9514   0.460   7.007   0.599 -0.0282 -0.2195  0.2576
   25MOL   C347 9515   0.365   6.956   0.707 -0.8120 -0.2657  0.0669
   25MOL   C348 9516   0.428   6.984   0.844  0.0430 -0.8676 -0.0506
   25MOL   C349 9517   0.407   7.131   0.891 -0.2381  0.3449  0.3015
   25MOL   O350 9518   0.491   7.061   0.364 -0.6008 -0.4514 -0.0452
   25MOL   H351 9519   0.223   6.920   0.463 -1.0222  0.8754 -2.4022
   25MOL   H352 9520   0.295   6.942   0.308  0.6431 -0.4028 -0.9302
   25MOL   H353 9521   0.321   7.112   0.482  2.0444  1.4669 -0.7203
   25MOL   H354 9522   0.484   7.112   0.615 -1.5590  0.1509  0.2517
   25MOL   H355 9523   0.542   6.937   0.580 -0.5000 -0.7959  0.3179
   25MOL   H356 9524   0.352   6.849   0.689  1.4687 -0.4121 -0.9490
   25MOL   H357 9525   0.266   7.000   0.705 -0.7022  0.0709  1.3669
   25MOL   H358 9526   0.531   6.951   0.859 -0.2486 -2.4880 -1.4401
   25MOL   H359 9527   0.378   6.922   0.919 -4.0449  1.2439 -0.9256
   25MOL   H360 9528   0.446   7.195   0.811 -0.5965  0.1551 -0.0305
   25MOL   H361 9529   0.468   7.158   0.977 -0.1532 -2.0078  1.0172
   25MOL   H362 9530   0.305   7.159   0.915 -0.0704  0.0142  1.3828
   25MOL   C363 9531   0.533   7.196   0.357  0.6638  0.4997 -0.1316
   25MOL   C364 9532   0.580   7.220   0.213  0.3262  0.8623  0.5714
   25MOL   C365 9533   0.454   7.252   0.121 -0.1452  0.1473  0.1323
   25MOL   C366 9534   0.482   7.267   7.762 -0.3750  0.6712  0.4766
   25MOL   C367 9535   0.354   7.305   7.683 -0.2326  0.0570  0.6619
   25MOL   C368 9536   0.384   7.326   7.533  0.2744  0.1619  0.0689
   25MOL   O369 9537   0.662   7.336   0.208  0.3765 -0.1138 -0.0793
   25MOL   H370 9538   0.619   7.215   0.423 -0.6003  0.4983  1.5458
   25MOL   H371 9539   0.456   7.267   0.388 -0.1082 -0.9928  1.4189
   25MOL   H372 9540   0.637   7.132   0.182 -0.2200  0.6599  0.1177
   25MOL   H373 9541   0.377   7.177   0.135 -1.9326  1.7036 -1.0964
   25MOL   H374 9542   0.396   7.336   0.157 -2.4672  0.1202 -3.2923
   25MOL   H375 9543   0.551   7.351   7.753 -0.8685  1.0490  0.2164
   25MOL   H376 9544   0.532   7.179   7.721 -2.1865  0.2310 -0.8586
   25MOL   H377 9545   0.273   7.233   7.697 -0.0262  0.0890  1.9870
   25MOL   H378 9546   0.309   7.394   7.726  0.5516  0.0635  1.4743
   25MOL   H379 9547   0.292   7.317   7.476 -0.8731  1.0371  1.7537
   25MOL   H380 9548   0.442   7.417   7.517 -0.6800  0.4824 -1.6130
   25MOL   H381 9549   0.446   7.242   7.502  2.3537  1.8942 -0.6018
   25MOL   H382 9550   0.742   7.305   0.247 -1.3046 -3.9789  0.5940
   26MOL     C1 9551   2.883   2.861   3.905  0.1437  0.6645 -0.4419
   26MOL     C2 9552   2.790   2.980   3.899  0.2526 -0.4021  0.2401
   26MOL     C3 9553   2.643   2.939   3.927 -0.0435  0.0884  0.9202
   26MOL     C4 9554   2.532   3.044   3.892  0.8350 -1.0789 -0.6260
   26MOL     C5 9555   2.384   2.998   3.920  0.2355 -0.0686  0.3372
   26MOL     C6 9556   2.306   3.021   3.794  0.4553  0.3802 -0.2327
   26MOL     O7 9557   2.829   3.075   3.997 -0.1121 -0.3124 -0.4434
   26MOL     H8 9558   2.987   2.890   3.924  0.0049  0.5226  0.5679
   26MOL     H9 9559   2.869   2.819   3.805 -2.9908  1.6712 -0.4608
   26MOL    H10 9560   2.789   3.026   3.800 -2.0010  2.0605  1.3357
   26MOL    H11 9561   2.634   2.856   3.857 -0.5917  1.6585 -0.9115
   26MOL    H12 9562   2.632   2.898   4.027  0.0625  1.5311  1.5194
   26MOL    H13 9563   2.576   3.118   3.959 -2.1744 -0.0598  0.3266
   26MOL    H14 9564   2.541   3.083   3.790 -1.4332  2.0046  0.2600
   26MOL    H15 9565   2.372   2.894   3.948  0.0676  0.1885  1.2364
   26MOL    H16 9566   2.352   3.050   4.010 -1.1006  0.1889 -0.2744
   26MOL    H17 9567   2.328   3.120   3.754  1.5735 -0.2048 -1.0949
   26MOL    H18 9568   2.326   2.938   3.725 -0.6235 -0.9516  1.0359
   26MOL    H19 9569   2.201   3.013   3.820  0.4007  1.2782 -0.1746
   26MOL    H20 9570   2.866   2.790   3.986  2.2982  0.6257  0.0271
   26MOL    C21 9571   2.939   3.160   3.955  0.3264 -0.3540 -0.5934
   26MOL    C22 9572   2.976   3.259   4.068 -0.3262 -0.2113  0.1587
   26MOL    C23 9573   3.111   3.318   4.055  0.1532 -0.3126  0.4632
   26MOL    C24 9574   3.160   3.405   4.171  0.2048  0.1672  0.3082
   26MOL    C25 9575   3.294   3.453   4.149  0.2243  0.0976  0.0049
   26MOL    C26 9576   3.356   3.524   4.273 -0.2242  0.1756 -0.3861
   26MOL    O27 9577   2.882   3.368   4.066 -0.6585 -0.2092  0.2674
   26MOL    H28 9578   3.024   3.094   3.939  0.0658 -1.7956  3.3358
   26MOL    H29 9579   2.919   3.210   3.860 -0.2245  0.6188  0.0217
   26MOL    H30 9580   2.966   3.209   4.165 -2.2797  2.4227  1.3563
   26MOL    H31 9581   3.120   3.369   3.959 -1.8950  2.0731  1.5008
   26MOL    H32 9582   3.178   3.232   4.052 -0.1644 -0.5139 -1.5974
   26MOL    H33 9583   3.159   3.342   4.260 -0.2879 -1.4843 -0.8367
   26MOL    H34 9584   3.099   3.494   4.185  0.2926 -0.0641  2.3067
   26MOL    H35 9585   3.358   3.366   4.132  1.5343  1.0048  0.1651
   26MOL    H36 9586   3.295   3.520   4.063  0.7587 -1.8819 -1.5769
   26MOL    H37 9587   3.305   3.491   4.363  0.1437 -0.9550 -0.5865
   26MOL    H38 9588   3.338   3.632   4.275  0.7286  0.3340  0.3761
   26MOL    H39 9589   3.462   3.498   4.271 -0.2034  0.3185 -1.1653
   26MOL    C40 9590   2.761   3.347   4.140 -0.1253  0.0459  0.0033
   26MOL    C41 9591   2.669   3.472   4.131  0.0908  0.5521 -0.1311
   26MOL    C42 9592   2.565   3.479   4.237 -0.3250  0.6034  0.4675
   26MOL    C43 9593   2.516   3.625   4.269  0.1711 -0.2330  0.1046
   26MOL    C44 9594   2.384   3.609   4.337 -0.0819  0.1469  0.2753
   26MOL    C45 9595   2.317   3.745   4.371 -0.0553 -0.5546 -1.1059
   26MOL    O46 9596   2.603   3.476   4.008 -0.0812  0.1035  0.1490
   26MOL    H47 9597   2.776   3.327   4.246 -0.8426 -2.2020 -0.2869
   26MOL    H48 9598   2.698   3.264   4.108 -0.2908 -0.4443  1.5278
   26MOL    H49 9599   2.732   3.559   4.153  1.1428  0.0352 -1.0673
   26MOL    H50 9600   2.483   3.413   4.207 -0.9847  0.9166  1.5771
   26MOL    H51 9601   2.608   3.432   4.326  0.9119  1.1010  0.1517
   26MOL    H52 9602   2.500   3.684   4.179 -0.5215  0.5963  0.7661
   26MOL    H53 9603   2.592   3.677   4.328  0.4511 -0.2177 -0.2695
   26MOL    H54 9604   2.313   3.572   4.263  1.3115  2.8572 -2.5510
   26MOL    H55 9605   2.399   3.539   4.419 -0.0967  0.2595  0.3741
   26MOL    H56 9606   2.372   3.801   4.446  0.1071 -0.0525 -1.5996
   26MOL    H57 9607   2.297   3.815   4.290 -1.3188  2.1766  1.4743
   26MOL    H58 9608   2.215   3.742   4.409  1.4457 -3.1160  3.0470
   26MOL    C59 9609   2.675   3.542   3.910 -0.4618 -0.8991 -0.6110
   26MOL    C60 9610   2.606   3.537   3.770 -0.8466 -0.2331  0.2980
   26MOL    C61 9611   2.564   3.391   3.732  0.3481  0.2814  0.4795
   26MOL    C62 9612   2.542   3.380   3.578 -0.0857 -0.4544  0.0278
   26MOL    C63 9613   2.520   3.235   3.517 -0.3054  0.4965  0.3723
   26MOL    C64 9614   2.542   3.237   3.367 -0.5606  0.0848  1.1811
   26MOL    O65 9615   2.494   3.626   3.752  0.5001 -0.0371  0.2116
   26MOL    H66 9616   2.775   3.500   3.900 -0.5093 -1.4920  1.2480
   26MOL    H67 9617   2.699   3.647   3.929  2.9225 -1.6890 -0.2424
   26MOL    H68 9618   2.687   3.567   3.703 -1.4409  1.1999  0.1871
   26MOL    H69 9619   2.479   3.365   3.795  0.7019 -0.5683  0.6132
   26MOL    H70 9620   2.641   3.322   3.766  0.8291 -1.0791 -3.0846
   26MOL    H71 9621   2.634   3.415   3.533  0.3941 -0.1069  1.2555
   26MOL    H72 9622   2.462   3.448   3.551 -0.2180  0.1816  1.9133
   26MOL    H73 9623   2.421   3.200   3.544 -0.0783 -0.5119 -0.0734
   26MOL    H74 9624   2.597   3.170   3.559 -0.2138 -0.4402 -1.2212
   26MOL    H75 9625   2.484   3.307   3.307 -0.5532 -1.3774 -0.6047
   26MOL    H76 9626   2.647   3.256   3.347 -0.2367 -3.5780 -1.1827
   26MOL    H77 9627   2.521   3.136   3.331  1.4209  0.7950 -2.2170
   26MOL    C78 9628   2.513   3.763   3.767  0.6980  0.6260  0.8866
   26MOL    C79 9629   2.608   3.847   3.686 -0.2763 -0.6817 -1.3040
   26MOL    C80 9630   2.625   3.990   3.743 -0.4227  0.8418  0.0772
   26MOL    C81 9631   2.745   4.070   3.681  0.1109  0.2146 -0.1090
   26MOL    C82 9632   2.786   4.185   3.775 -0.1972 -0.0996 -0.0061
   26MOL    C83 9633   2.680   4.279   3.825  0.2811 -0.9754  0.3364
   26MOL    O84 9634   2.567   3.862   3.549  0.4620 -0.0816  0.4789
   26MOL    H85 9635   2.515   3.772   3.875  2.5301 -0.6490  0.9933
   26MOL    H86 9636   2.414   3.800   3.741  0.5283 -1.0317 -0.9517
   26MOL    H87 9637   2.708   3.808   3.699 -0.0331  0.4696  0.5998
   26MOL    H88 9638   2.527   4.036   3.732 -0.8186  0.2970  1.2449
   26MOL    H89 9639   2.633   3.992   3.851  0.0139 -3.4252  0.2082
   26MOL    H90 9640   2.711   4.113   3.587  0.5063  1.4111  0.2877
   26MOL    H91 9641   2.836   4.014   3.660 -0.6278 -1.0032 -0.1301
   26MOL    H92 9642   2.829   4.131   3.860  1.9189  0.4311 -0.6923
   26MOL    H93 9643   2.871   4.241   3.735 -0.6786  0.8873  0.3591
   26MOL    H94 9644   2.629   4.335   3.747  1.6252 -1.4942 -0.9298
   26MOL    H95 9645   2.728   4.349   3.895  1.5608  0.6141 -2.0438
   26MOL    H96 9646   2.605   4.231   3.887 -1.2462  2.0248  0.9214
   26MOL    C97 9647   2.577   3.742   3.471 -0.4418 -0.5372 -0.8218
   26MOL    C98 9648   2.542   3.763   3.323 -0.4343  0.5833 -0.0484
   26MOL    C99 9649   2.566   3.631   3.248  0.0730 -0.0061 -0.2920
   26MOL   C100 9650   2.557   3.654   3.099 -0.0512  0.8620 -0.3779
   26MOL   C101 9651   2.572   3.515   3.024 -0.1417 -0.0301  0.6144
   26MOL   C102 9652   2.708   3.449   3.049 -0.3589 -0.2253  0.5234
   26MOL   O103 9653   2.399   3.782   3.309 -0.1339 -0.5828  0.1546
   26MOL   H104 9654   2.515   3.665   3.518 -3.3399  1.7730 -0.7118
   26MOL   H105 9655   2.679   3.708   3.485 -0.2759  0.2586 -0.1188
   26MOL   H106 9656   2.587   3.852   3.279 -3.3938  1.7256 -0.8412
   26MOL   H107 9657   2.498   3.555   3.287  1.2200 -0.8146  0.1840
   26MOL   H108 9658   2.666   3.589   3.262  0.0502  0.1821  0.4271
   26MOL   H109 9659   2.622   3.729   3.054  0.5347  0.7344  0.2397
   26MOL   H110 9660   2.462   3.704   3.079  0.7027  1.6089 -2.2569
   26MOL   H111 9661   2.554   3.523   2.917 -1.8659 -0.5049  0.8399
   26MOL   H112 9662   2.497   3.453   3.073 -1.5196  1.4630  0.4501
   26MOL   H113 9663   2.725   3.386   3.137 -0.5981  0.6902  1.2311
   26MOL   H114 9664   2.738   3.378   2.972 -1.6038 -0.9088  0.6587
   26MOL   H115 9665   2.791   3.519   3.042  0.8888 -1.7842 -0.4380
   26MOL   C116 9666   2.340   3.900   3.343 -0.4065 -0.5475 -0.0428
   26MOL   C117 9667   2.193   3.887   3.314  0.2047 -0.2884 -0.2720
   26MOL   C118 9668   2.143   4.023   3.260 -0.1949 -0.5144 -0.5357
   26MOL   C119 9669   1.992   4.021   3.233  0.3270  0.7208 -0.0954
   26MOL   C120 9670   1.948   4.153   3.163 -0.3967  0.4324  0.2670
   26MOL   C121 9671   1.796   4.154   3.148  0.8355  0.3353  0.0761
   26MOL   O122 9672   2.129   3.849   3.441 -0.0829 -0.2622 -0.1369
   26MOL   H123 9673   2.353   3.917   3.449 -0.3567 -2.9068  0.3498
   26MOL   H124 9674   2.389   3.980   3.287  1.1228 -0.5508  1.2707
   26MOL   H125 9675   2.179   3.814   3.234 -3.3969  0.8946 -0.8094
   26MOL   H126 9676   2.182   4.096   3.330 -3.0655  0.3237  0.2603
   26MOL   H127 9677   2.194   4.046   3.166 -0.2200  0.4241 -0.3240
   26MOL   H128 9678   1.948   4.020   3.333  0.2111 -2.4221 -0.1520
   26MOL   H129 9679   1.961   3.935   3.174 -0.9498 -0.1461  1.7930
   26MOL   H130 9680   1.976   4.237   3.227  0.4751  0.8822 -0.6924
   26MOL   H131 9681   2.012   4.155   3.074  0.1211 -0.5296  0.6020
   26MOL   H132 9682   1.775   4.054   3.110  0.1134 -0.2048  1.8309
   26MOL   H133 9683   1.749   4.168   3.245 -0.4418  0.4766 -0.5576
   26MOL   H134 9684   1.771   4.236   3.080  2.4223  0.9687  0.2314
   26MOL   C135 9685   2.122   3.710   3.477  0.2759  0.8404  0.1854
   26MOL   C136 9686   2.109   3.682   3.635 -0.0397  0.8934  0.3198
   26MOL   C137 9687   2.122   3.532   3.668 -0.1508  0.2359 -0.0158
   26MOL   C138 9688   2.167   3.509   3.815  1.0076  0.0956 -0.2611
   26MOL   C139 9689   2.132   3.364   3.865 -0.5068 -0.2032 -0.0194
   26MOL   C140 9690   2.206   3.316   3.990  0.0538  0.5150 -0.5077
   26MOL   O141 9691   1.977   3.708   3.682 -0.6547  0.0216 -0.4666
   26MOL   H142 9692   2.035   3.663   3.433  1.3082 -0.6683 -0.2737
   26MOL   H143 9693   2.204   3.655   3.432 -1.0651 -2.7147  1.9231
   26MOL   H144 9694   2.192   3.735   3.682 -1.9873  2.7239  1.7907
   26MOL   H145 9695   2.021   3.494   3.652 -0.3266 -0.5602  2.6953
   26MOL   H146 9696   2.200   3.481   3.611  0.4064  2.5279 -1.3495
   26MOL   H147 9697   2.113   3.578   3.880  0.0101  0.9259 -1.9179
   26MOL   H148 9698   2.273   3.528   3.828  1.2604 -0.3537 -1.5911
   26MOL   H149 9699   2.154   3.286   3.793  2.7842 -0.5539  1.2722
   26MOL   H150 9700   2.024   3.371   3.879 -0.5469 -0.0103 -0.4403
   26MOL   H151 9701   2.197   3.208   3.999 -0.5064  0.8449  3.9528
   26MOL   H152 9702   2.312   3.342   3.996 -0.3278  2.1879 -0.7005
   26MOL   H153 9703   2.177   3.364   4.083  2.2229 -0.1416  0.5400
   26MOL   C154 9704   1.947   3.850   3.699 -0.6748  0.3138 -0.1292
   26MOL   C155 9705   1.990   3.907   3.836  0.5805 -0.4864  0.2268
   26MOL   C156 9706   2.110   4.003   3.837  0.3380  0.7937  0.5309
   26MOL   C157 9707   2.171   4.018   3.979 -0.3560 -0.0344 -0.3796
   26MOL   C158 9708   2.313   4.078   3.982 -0.4851  0.1801  0.6800
   26MOL   C159 9709   2.351   4.115   4.122  0.2802 -0.0244  0.5732
   26MOL   O160 9710   1.885   3.983   3.895  0.0613  0.1225 -0.1867
   26MOL   H161 9711   1.839   3.852   3.683 -0.5265 -0.8173 -1.3187
   26MOL   H162 9712   1.975   3.918   3.618 -1.0760 -1.2991 -1.6708
   26MOL   H163 9713   2.022   3.835   3.911  0.7066  0.3097  0.9384
   26MOL   H164 9714   2.082   4.096   3.788 -1.3116 -0.0734 -0.2399
   26MOL   H165 9715   2.193   3.965   3.777  0.8723 -2.2575  3.0914
   26MOL   H166 9716   2.188   3.917   4.018  0.3408  0.7772  1.4540
   26MOL   H167 9717   2.105   4.075   4.044 -0.2283 -1.6038  1.1897
   26MOL   H168 9718   2.389   4.008   3.948  1.0075  1.8930  0.4421
   26MOL   H169 9719   2.313   4.173   3.929 -1.3843  0.7424  1.6828
   26MOL   H170 9720   2.382   4.036   4.191  0.2481 -0.0525  0.5554
   26MOL   H171 9721   2.264   4.157   4.173 -0.5413 -0.4873 -0.4167
   26MOL   H172 9722   2.424   4.195   4.125  0.2460  0.0503 -0.5831
   26MOL   C173 9723   1.796   3.894   3.961  0.8822  0.0173 -0.0960
   26MOL   C174 9724   1.705   3.980   4.038  0.1825  0.1788 -0.0679
   26MOL   C175 9725   1.604   3.894   4.113  0.2649 -0.0272  0.8247
   26MOL   C176 9726   1.499   3.980   4.186  0.3582  0.2978  0.1745
   26MOL   C177 9727   1.366   3.913   4.228 -0.2034 -0.2947 -0.5264
   26MOL   C178 9728   1.376   3.784   4.309 -0.0165 -0.5218 -0.4490
   26MOL   O179 9729   1.764   4.050   4.143 -0.7589  0.1040 -0.1491
   26MOL   H180 9730   1.835   3.824   4.034  0.3843 -0.3462 -0.1800
   26MOL   H181 9731   1.744   3.829   3.891  0.2097  0.5136 -0.0644
   26MOL   H182 9732   1.653   4.042   3.964  2.1665  0.9823 -0.8272
   26MOL   H183 9733   1.558   3.840   4.031 -1.4901  0.4200  1.4888
   26MOL   H184 9734   1.652   3.821   4.179 -0.4379 -0.9273  0.3524
   26MOL   H185 9735   1.544   3.990   4.285  1.7742 -1.5241 -0.2599
   26MOL   H186 9736   1.489   4.076   4.135 -0.2945 -0.9971 -2.1901
   26MOL   H187 9737   1.315   3.992   4.283 -2.0117 -1.6612 -0.2025
   26MOL   H188 9738   1.304   3.888   4.142  0.7916 -3.4578 -0.3839
   26MOL   H189 9739   1.469   3.777   4.366  2.4271  3.2564 -3.7153
   26MOL   H190 9740   1.386   3.704   4.237 -0.6740 -2.3965  1.5080
   26MOL   H191 9741   1.295   3.772   4.380 -0.0717  2.9233  0.1947
   26MOL   C192 9742   1.779   4.188   4.114  0.3338 -0.4321 -0.3106
   26MOL   C193 9743   1.820   4.271   4.240 -0.3399 -0.7438 -0.1768
   26MOL   C194 9744   1.699   4.326   4.313 -0.0154  0.0979 -0.4165
   26MOL   C195 9745   1.742   4.411   4.439  1.0725  0.7643 -0.2247
   26MOL   C196 9746   1.616   4.486   4.482 -0.6657 -0.6096  0.1761
   26MOL   C197 9747   1.643   4.579   4.602  0.1219 -0.4138 -0.2179
   26MOL   O198 9748   1.892   4.386   4.193 -0.0920 -0.5735 -0.5961
   26MOL   H199 9749   1.863   4.197   4.046  0.4204  1.9079  0.0590
   26MOL   H200 9750   1.691   4.242   4.079  0.4321  1.5997  2.3859
   26MOL   H201 9751   1.877   4.215   4.315 -1.5097 -1.7723 -0.0409
   26MOL   H202 9752   1.635   4.392   4.255 -0.2639  0.8746  0.7216
   26MOL   H203 9753   1.635   4.242   4.340 -0.6012  0.6926  0.0781
   26MOL   H204 9754   1.817   4.482   4.404  0.2632  2.4240  1.3563
   26MOL   H205 9755   1.785   4.347   4.516  0.4386  4.7434  3.5931
   26MOL   H206 9756   1.576   4.546   4.401  1.1333  0.4938  0.0904
   26MOL   H207 9757   1.546   4.410   4.517 -0.5343 -2.2283 -2.8981
   26MOL   H208 9758   1.709   4.663   4.587  0.8791 -1.4369 -2.7930
   26MOL   H209 9759   1.554   4.625   4.645  1.5118  2.5353 -0.4013
   26MOL   H210 9760   1.689   4.525   4.685  1.9625  2.0229  0.3986
   26MOL   C211 9761   2.030   4.391   4.227  0.1132  0.3783  0.1862
   26MOL   C212 9762   2.090   4.523   4.192  0.2762 -0.2118  0.5751
   26MOL   C213 9763   2.038   4.614   4.300  0.2237  0.0348 -0.7160
   26MOL   C214 9764   2.114   4.753   4.314  0.5081  0.1138  0.3179
   26MOL   C215 9765   2.030   4.851   4.397  0.1208  0.1444  0.0463
   26MOL   C216 9766   2.122   4.965   4.441 -0.1483 -0.2475 -0.0139
   26MOL   O217 9767   2.058   4.568   4.063  0.7948  0.1695 -0.3083
   26MOL   H218 9768   2.075   4.312   4.167  2.0330  3.7536 -3.0046
   26MOL   H219 9769   2.054   4.364   4.330  1.5517 -2.7515 -0.9137
   26MOL   H220 9770   2.196   4.505   4.205  0.6908  2.0708  0.5271
   26MOL   H221 9771   1.936   4.635   4.270 -0.8695 -2.4426  1.0761
   26MOL   H222 9772   2.042   4.566   4.398 -1.2412 -0.5440 -0.9330
   26MOL   H223 9773   2.210   4.731   4.362  0.7381 -0.8635 -0.5613
   26MOL   H224 9774   2.133   4.785   4.211 -1.8500  0.3386 -0.0628
   26MOL   H225 9775   1.952   4.893   4.333 -1.1329 -0.6284  1.0295
   26MOL   H226 9776   1.990   4.798   4.484 -0.5598 -0.3218 -0.5405
   26MOL   H227 9777   2.062   5.039   4.493  0.8970  0.9905 -0.5288
   26MOL   H228 9778   2.185   5.008   4.363  3.4618 -1.4578  2.1345
   26MOL   H229 9779   2.193   4.925   4.513  0.5620 -0.0413 -0.5910
   26MOL   C230 9780   2.116   4.506   3.950 -0.8451 -0.6181  0.4131
   26MOL   C231 9781   2.129   4.607   3.835  0.4931  0.1151 -0.1846
   26MOL   C232 9782   2.118   4.527   3.711 -0.0207 -0.2685  0.4010
   26MOL   C233 9783   2.245   4.461   3.668  0.1976 -0.1540 -0.1428
   26MOL   C234 9784   2.230   4.347   3.565  0.4077  0.6669  0.3012
   26MOL   C235 9785   2.354   4.268   3.538  0.0360 -0.3173 -0.8247
   26MOL   O236 9786   2.261   4.674   3.844  0.0106  0.4062 -0.0647
   26MOL   H237 9787   2.219   4.478   3.971 -0.5049  1.3028  1.4690
   26MOL   H238 9788   2.071   4.410   3.929  1.0665 -1.2121 -1.1128
   26MOL   H239 9789   2.041   4.670   3.833 -0.3354 -1.0302 -0.6881
   26MOL   H240 9790   2.094   4.594   3.628  2.9539  1.2224  0.6810
   26MOL   H241 9791   2.034   4.458   3.719 -1.4700  1.3826 -0.2357
   26MOL   H242 9792   2.297   4.408   3.748  1.5430 -2.9250 -2.7247
   26MOL   H243 9793   2.320   4.533   3.635 -0.9641  0.8023 -0.7267
   26MOL   H244 9794   2.144   4.283   3.585  0.7998 -0.1083 -0.4436
   26MOL   H245 9795   2.197   4.380   3.467  0.5469  0.8456  0.3153
   26MOL   H246 9796   2.330   4.189   3.466 -0.0533 -0.3398 -0.7710
   26MOL   H247 9797   2.397   4.220   3.626 -2.6845 -0.4952  0.4537
   26MOL   H248 9798   2.426   4.324   3.479  2.5867 -1.2249  1.3013
   26MOL   C249 9799   2.281   4.768   3.941  0.0886  0.4020 -0.2506
   26MOL   C250 9800   2.417   4.840   3.906 -0.0414 -0.1016  0.4429
   26MOL   C251 9801   2.498   4.842   4.040  0.2521  0.3137 -0.1321
   26MOL   C252 9802   2.558   4.704   4.074  0.0310 -0.0447  0.3526
   26MOL   C253 9803   2.666   4.686   4.182 -0.3360 -0.5562 -0.7071
   26MOL   C254 9804   2.699   4.538   4.187  0.4103 -0.9002 -0.2562
   26MOL   O255 9805   2.389   4.973   3.859  0.1425 -1.0413  0.1194
   26MOL   H256 9806   2.197   4.835   3.958 -1.1918 -1.0013 -0.9282
   26MOL   H257 9807   2.286   4.719   4.039 -1.5524  0.9533  0.1277
   26MOL   H258 9808   2.465   4.775   3.833  0.9319 -0.8097  1.6871
   26MOL   H259 9809   2.582   4.908   4.023  0.7243 -1.1250 -3.7575
   26MOL   H260 9810   2.442   4.873   4.129 -1.4436  1.5747 -1.6143
   26MOL   H261 9811   2.480   4.634   4.107 -0.2987 -0.5301 -1.4339
   26MOL   H262 9812   2.608   4.664   3.986 -1.8140  1.0447 -1.2318
   26MOL   H263 9813   2.752   4.753   4.170 -0.3654 -0.7485 -2.0759
   26MOL   H264 9814   2.617   4.714   4.275  0.9589 -1.5226  0.2880
   26MOL   H265 9815   2.723   4.484   4.095 -0.3291 -0.3670 -0.7691
   26MOL   H266 9816   2.616   4.477   4.222  0.6757 -0.5653  0.9705
   26MOL   H267 9817   2.771   4.516   4.266  2.1931 -0.2532 -1.6633
   26MOL   C268 9818   2.328   4.980   3.732  0.0857  0.0258  0.0541
   26MOL   C269 9819   2.307   5.141   3.706  0.0723 -0.6421 -0.5379
   26MOL   C270 9820   2.184   5.156   3.610 -0.0049  0.2572  0.4451
   26MOL   C271 9821   2.154   5.307   3.580 -0.2535  0.3045  0.2991
   26MOL   C272 9822   2.024   5.328   3.503  0.0776 -0.2908  0.1938
   26MOL   C273 9823   1.902   5.311   3.589  0.1818  0.8119 -0.2026
   26MOL   O274 9824   2.420   5.201   3.644  0.4192  0.3582  0.3443
   26MOL   H275 9825   2.230   4.931   3.731  0.7364 -1.2953 -1.3062
   26MOL   H276 9826   2.383   4.941   3.647  0.0117  2.6819 -1.2681
   26MOL   H277 9827   2.283   5.193   3.799  0.0977  1.5670 -1.7332
   26MOL   H278 9828   2.206   5.110   3.513 -0.0662  0.7428  0.1967
   26MOL   H279 9829   2.103   5.105   3.663 -1.1978  1.6085 -0.0407
   26MOL   H280 9830   2.151   5.353   3.679 -1.4021  0.4506  0.2096
   26MOL   H281 9831   2.233   5.359   3.526  1.1413 -1.8061  0.2470
   26MOL   H282 9832   2.026   5.430   3.463 -1.1546 -0.5298 -0.4853
   26MOL   H283 9833   2.021   5.262   3.417 -0.2451  1.3680 -1.0990
   26MOL   H284 9834   1.815   5.302   3.524  1.7276 -1.2672 -2.0575
   26MOL   H285 9835   1.911   5.229   3.660  0.7423  0.6799 -0.4227
   26MOL   H286 9836   1.887   5.408   3.636 -0.5393  0.2534  0.7496
   26MOL   C287 9837   2.501   5.269   3.736  0.4175  0.5016  0.2205
   26MOL   C288 9838   2.634   5.298   3.664  0.0313  0.5187 -0.6374
   26MOL   C289 9839   2.614   5.371   3.535  0.2725 -0.9489 -0.4025
   26MOL   C290 9840   2.729   5.465   3.494  0.2795  0.7811  0.5769
   26MOL   C291 9841   2.697   5.545   3.369 -0.0342 -0.4748  0.4820
   26MOL   C292 9842   2.814   5.631   3.312 -0.1317  0.2443 -0.2478
   26MOL   O293 9843   2.704   5.181   3.626  0.2674  0.6208 -0.3869
   26MOL   H294 9844   2.512   5.203   3.822 -0.4723 -0.9838 -0.7749
   26MOL   H295 9845   2.459   5.364   3.768 -0.7791  0.7263 -1.8811
   26MOL   H296 9846   2.692   5.360   3.732 -2.2281  1.3721  0.5859
   26MOL   H297 9847   2.579   5.309   3.452 -0.9954  0.6505 -1.0782
   26MOL   H298 9848   2.532   5.442   3.546  0.4225 -0.9102  0.5506
   26MOL   H299 9849   2.755   5.527   3.580  1.0910 -0.8023  1.4864
   26MOL   H300 9850   2.817   5.407   3.468  1.6534  2.5476  1.1649
   26MOL   H301 9851   2.610   5.607   3.390  0.7061  0.5474  0.5551
   26MOL   H302 9852   2.656   5.471   3.300  2.6319 -0.5327 -1.0944
   26MOL   H303 9853   2.839   5.718   3.373  1.8051 -0.7849  0.4604
   26MOL   H304 9854   2.899   5.567   3.289 -0.1011  0.6072 -1.1920
   26MOL   H305 9855   2.784   5.660   3.211  0.7315 -0.1906 -0.6301
   26MOL   C306 9856   2.763   5.104   3.734  0.2024 -0.0694 -0.1927
   26MOL   C307 9857   2.837   4.982   3.678  0.3703  0.6703 -0.7210
   26MOL   C308 9858   2.810   4.857   3.773 -0.8222  0.1197  0.2744
   26MOL   C309 9859   2.894   4.740   3.730 -0.2948  0.4508  0.2635
   26MOL   C310 9860   2.871   4.607   3.809 -0.4184 -0.4209 -0.4508
   26MOL   C311 9861   2.981   4.504   3.773 -0.0274 -0.0991  0.1419
   26MOL   O312 9862   2.978   5.016   3.690  0.3380  0.4926  0.2829
   26MOL   H313 9863   2.820   5.167   3.802 -2.6727  3.2566 -0.7308
   26MOL   H314 9864   2.686   5.061   3.800 -0.9985  0.1385 -1.4415
   26MOL   H315 9865   2.815   4.965   3.572 -1.4380 -0.3647 -0.1967
   26MOL   H316 9866   2.707   4.826   3.755 -0.7861 -0.3287  0.8158
   26MOL   H317 9867   2.820   4.874   3.880 -0.4764  0.2764  0.2178
   26MOL   H318 9868   2.892   4.724   3.622  2.4414  3.2700 -0.2933
   26MOL   H319 9869   2.999   4.768   3.742 -0.2348  0.1458  0.4665
   26MOL   H320 9870   2.773   4.559   3.804 -0.9833  0.6008  0.4975
   26MOL   H321 9871   2.873   4.632   3.915  0.2248 -1.2289 -0.2678
   26MOL   H322 9872   2.969   4.475   3.669 -0.4072 -0.4742  0.2904
   26MOL   H323 9873   3.083   4.541   3.786 -0.2493  0.5271  0.0999
   26MOL   H324 9874   2.970   4.408   3.823 -0.6646 -0.6282 -1.0038
   26MOL   C325 9875   3.045   5.047   3.569 -0.0005  0.2825  0.0116
   26MOL   C326 9876   3.144   5.163   3.597  0.3343  0.0548  0.1454
   26MOL   C327 9877   3.185   5.229   3.463  0.3493 -0.0669  0.1435
   26MOL   C328 9878   3.252   5.365   3.478 -0.2671  0.6543  0.3292
   26MOL   C329 9879   3.282   5.427   3.336  0.3420 -0.1305  0.2747
   26MOL   C330 9880   3.156   5.475   3.263 -0.3187  0.7520 -1.0085
   26MOL   O331 9881   3.269   5.112   3.645 -0.2636  0.4689  0.0391
   26MOL   H332 9882   2.966   5.081   3.503  0.4267 -1.0400 -1.2184
   26MOL   H333 9883   3.105   4.971   3.520 -0.6495 -0.4076  0.2688
   26MOL   H334 9884   3.095   5.241   3.655  0.7733  0.2429  0.2594
   26MOL   H335 9885   3.242   5.170   3.392 -1.4934 -0.4997 -0.9809
   26MOL   H336 9886   3.095   5.259   3.410  1.1426  0.8017 -0.7466
   26MOL   H337 9887   3.185   5.427   3.538 -1.2013  1.1805 -1.2422
   26MOL   H338 9888   3.342   5.349   3.537 -0.6539  0.3247  0.8411
   26MOL   H339 9889   3.337   5.515   3.368  0.8288 -0.1100 -0.6089
   26MOL   H340 9890   3.349   5.367   3.275 -0.0180  0.6099 -0.8496
   26MOL   H341 9891   3.090   5.392   3.237  1.1714  0.1670 -3.0490
   26MOL   H342 9892   3.105   5.535   3.339  0.9057  0.5622 -0.0224
   26MOL   H343 9893   3.181   5.525   3.170 -0.7073  2.0827 -0.4032
   26MOL   C344 9894   3.270   5.121   3.787  0.8820 -0.2655  0.0635
   26MOL   C345 9895   3.393   5.053   3.847 -0.8180  0.2462 -0.0829
   26MOL   C346 9896   3.410   5.091   3.993 -0.1855 -0.8147  0.7914
   26MOL   C347 9897   3.553   5.069   4.061 -0.8755  0.1821  0.0348
   26MOL   C348 9898   3.587   4.916   4.080  0.3430 -0.1904 -0.4149
   26MOL   C349 9899   3.489   4.838   4.163  0.2852  0.3056  0.0224
   26MOL   O350 9900   3.379   4.918   3.831 -0.4475  0.0247 -0.2517
   26MOL   H351 9901   3.180   5.085   3.836 -1.0841  0.5781 -2.7237
   26MOL   H352 9902   3.280   5.227   3.813  0.5693  0.1278 -1.3471
   26MOL   H353 9903   3.474   5.099   3.792 -1.3676 -0.8509 -1.8486
   26MOL   H354 9904   3.334   5.028   4.040 -0.7590 -1.4480 -0.9395
   26MOL   H355 9905   3.387   5.196   4.010  0.8184 -0.2648 -1.0408
   26MOL   H356 9906   3.558   5.104   4.164 -1.0010  1.9961 -0.5491
   26MOL   H357 9907   3.631   5.127   4.011 -0.4093 -0.5825 -0.1274
   26MOL   H358 9908   3.684   4.895   4.125 -0.2489  1.7763  1.8799
   26MOL   H359 9909   3.582   4.862   3.986 -0.7187 -1.2076  0.2195
   26MOL   H360 9910   3.529   4.740   4.188 -0.4579 -0.2212 -0.8008
   26MOL   H361 9911   3.394   4.815   4.114  0.3437  1.0891 -0.4667
   26MOL   H362 9912   3.476   4.891   4.257  0.0238 -2.8396  1.8281
   26MOL   C363 9913   3.431   4.862   3.708  0.2678  0.8884  0.1450
   26MOL   C364 9914   3.361   4.726   3.691 -0.1367  0.8540  0.1288
   26MOL   C365 9915   3.376   4.660   3.553 -0.2448 -0.0622 -0.3344
   26MOL   C366 9916   3.286   4.536   3.540 -0.4405  0.4485  0.2297
   26MOL   C367 9917   3.300   4.465   3.403 -0.1462 -0.1862  0.2038
   26MOL   C368 9918   3.190   4.359   3.380 -0.7236 -0.6111  0.8293
   26MOL   O369 9919   3.412   4.632   3.782 -0.0561 -0.2511  0.0072
   26MOL   H370 9920   3.539   4.853   3.722  0.0979  1.3642  1.8116
   26MOL   H371 9921   3.439   4.932   3.625  3.1417  0.3168 -0.1197
   26MOL   H372 9922   3.255   4.734   3.716  0.1393 -0.7608  1.9697
   26MOL   H373 9923   3.345   4.741   3.486  2.8159  0.3755 -1.2843
   26MOL   H374 9924   3.481   4.646   3.531 -0.9289 -1.8284 -2.6232
   26MOL   H375 9925   3.318   4.463   3.615  2.1364  1.3809  0.1008
   26MOL   H376 9926   3.181   4.563   3.550 -0.7627 -0.4538 -0.6520
   26MOL   H377 9927   3.305   4.546   3.330  0.8838  0.6265  1.1596
   26MOL   H378 9928   3.398   4.418   3.399 -0.1367 -0.2030  0.6119
   26MOL   H379 9929   3.099   4.417   3.393 -1.0712 -1.1462  0.8180
   26MOL   H380 9930   3.188   4.305   3.285  0.7478 -0.4519  0.6981
   26MOL   H381 9931   3.197   4.292   3.465 -1.4044 -1.8632 -0.0800
   26MOL   H382 9932   3.424   4.676   3.865  2.9949 -1.8505  0.4932
   27MOL     C1 9933   7.621   0.511   2.076 -0.6251  0.8479 -0.5592
   27MOL     C2 9934   7.723   0.602   2.132 -0.5515  0.3106 -0.4767
   27MOL     C3 9935   7.776   0.702   2.025  0.2979  0.5671 -0.7014
   27MOL     C4 9936   7.670   0.793   1.960  0.4264  0.4419  0.1548
   27MOL     C5 9937   7.727   0.915   1.882 -0.6461  0.1330 -0.3094
   27MOL     C6 9938   7.597   0.999   1.842  0.2220 -0.9591  0.0452
   27MOL     O7 9939   7.646   0.662   2.231 -0.2028  1.0327 -0.4675
   27MOL     H8 9940   7.553   0.465   2.147  0.7491  1.1559  0.9883
   27MOL     H9 9941   7.661   0.427   2.020 -2.5633  0.1370 -0.9116
   27MOL    H10 9942   0.020   0.541   2.170 -0.9414 -0.0661 -0.2361
   27MOL    H11 9943   0.072   0.763   2.062  1.2757 -0.9817 -0.2632
   27MOL    H12 9944   0.035   0.649   1.941  2.1280  1.5780 -0.3904
   27MOL    H13 9945   7.630   0.730   1.880  0.9973 -0.2124  0.3771
   27MOL    H14 9946   7.596   0.830   2.031  0.2833  1.5573 -0.5607
   27MOL    H15 9947   0.016   0.970   1.939 -1.9575  1.6833 -0.0575
   27MOL    H16 9948   7.780   0.875   1.796 -0.4857  0.6353 -0.4434
   27MOL    H17 9949   7.621   1.082   1.775  3.0458 -0.4720  1.5759
   27MOL    H18 9950   7.522   0.944   1.786  0.9429 -2.4855  0.5487
   27MOL    H19 9951   7.564   1.046   1.935  3.3869 -1.3890  1.4855
   27MOL    H20 9952   7.546   0.558   2.012 -2.6039 -0.7141  0.5614
   27MOL    C21 9953   7.720   0.737   2.320  0.6688 -0.9367 -0.2660
   27MOL    C22 9954   7.759   0.646   2.438 -0.0917 -0.3176  0.5468
   27MOL    C23 9955   7.646   0.545   2.478  0.7760 -0.4305 -0.0761
   27MOL    C24 9956   7.666   0.508   2.630 -0.5474  0.2192  0.5666
   27MOL    C25 9957   7.582   0.389   2.673 -0.0140 -1.3058  0.1509
   27MOL    C26 9958   7.628   0.345   2.808  0.2874 -0.0432 -0.5281
   27MOL    O27 9959   0.089   0.567   2.405  0.3312 -0.0570  0.1769
   27MOL    H28 9960   0.023   0.784   2.277  0.5696  1.9532  2.4892
   27MOL    H29 9961   7.658   0.820   2.354  1.0844 -0.6399 -0.2264
   27MOL    H30 9962   7.781   0.714   2.521 -2.0375  1.9141 -0.7146
   27MOL    H31 9963   7.669   0.455   2.421  2.7766 -0.9072  1.4282
   27MOL    H32 9964   7.544   0.583   2.479  0.2984 -1.7112  0.1752
   27MOL    H33 9965   7.662   0.597   2.693 -0.6944 -1.0100  2.3170
   27MOL    H34 9966   7.769   0.473   2.628 -1.1323 -1.5741 -2.6478
   27MOL    H35 9967   7.480   0.427   2.672 -0.0136 -1.3039 -0.5378
   27MOL    H36 9968   7.580   0.303   2.606 -1.2982 -0.3456 -1.0699
   27MOL    H37 9969   7.651   0.435   2.866  0.1156  0.6854 -1.5702
   27MOL    H38 9970   7.724   0.297   2.788 -0.0327 -0.9249  0.0396
   27MOL    H39 9971   7.559   0.275   2.857 -0.5612  1.2887  0.2200
   27MOL    C40 9972   0.207   0.629   2.464  0.1998 -0.6325 -0.3697
   27MOL    C41 9973   0.344   0.566   2.419 -0.1658  0.5054 -0.3856
   27MOL    C42 9974   0.436   0.566   2.542 -0.7240  0.3495 -0.5183
   27MOL    C43 9975   0.574   0.513   2.503 -0.2663  0.0519 -0.9558
   27MOL    C44 9976   0.591   0.366   2.468 -0.6345 -0.2564  0.0306
   27MOL    C45 9977   0.720   0.322   2.408  0.1678  0.5723  0.2316
   27MOL    O46 9978   0.411   0.651   2.322 -0.2330  0.0241 -0.2719
   27MOL    H47 9979   0.202   0.631   2.573  0.8227 -1.4877 -0.3196
   27MOL    H48 9980   0.207   0.733   2.431  0.9020 -0.0607  1.3645
   27MOL    H49 9981   0.307   0.468   2.389 -1.2781  0.4440  1.1260
   27MOL    H50 9982   0.449   0.668   2.577  0.7472 -0.1073  0.3116
   27MOL    H51 9983   0.402   0.508   2.628 -1.2016  1.7136  0.2234
   27MOL    H52 9984   0.639   0.529   2.589 -0.0889 -0.2466 -1.0375
   27MOL    H53 9985   0.625   0.567   2.424  0.6087  0.6568  0.0025
   27MOL    H54 9986   0.566   0.309   2.558  0.7661 -0.5247  0.2550
   27MOL    H55 9987   0.529   0.341   2.382  0.1245 -0.4145 -0.4729
   27MOL    H56 9988   0.744   0.385   2.322  2.5673  0.5086  0.8441
   27MOL    H57 9989   0.806   0.316   2.474  0.2248  0.0905  0.1145
   27MOL    H58 9990   0.718   0.222   2.365  0.4426  0.0184  1.4783
   27MOL    C59 9991   0.381   0.608   2.192  0.3165 -0.3291  0.2333
   27MOL    C60 9992   0.463   0.700   2.102  0.9655 -0.3941  0.5191
   27MOL    C61 9993   0.612   0.702   2.130  0.0808 -0.5047 -0.1838
   27MOL    C62 9994   0.688   0.813   2.049  0.3617  0.9627  0.4577
   27MOL    C63 9995   0.837   0.812   2.075  0.2389  0.0628  0.5183
   27MOL    C64 9996   0.903   0.935   2.026 -0.3945  1.0013 -0.4246
   27MOL    O65 9997   0.452   0.670   1.963 -0.4075 -0.0256 -0.0201
   27MOL    H66 9998   0.275   0.605   2.167  1.1434  1.0903 -3.8720
   27MOL    H67 9999   0.412   0.504   2.182  0.7449 -0.1025 -0.8260
   27MOL    H6810000   0.422   0.801   2.103 -0.1591 -0.8456  0.0356
   27MOL    H6910001   0.654   0.608   2.095 -0.4354 -1.5513  1.9516
   27MOL    H7010002   0.634   0.713   2.236  1.2186 -1.8532 -0.2614
   27MOL    H7110003   0.652   0.915   2.063  3.3056  2.5240 -2.5793
   27MOL    H7210004   0.669   0.802   1.942  0.7774  0.1716  0.4671
   27MOL    H7310005   0.896   0.729   2.036  0.8310  0.6200  0.2309
   27MOL    H7410006   0.847   0.809   2.184  1.3031  0.1043  0.4265
   27MOL    H7510007   0.997   0.960   2.075  0.2087 -1.4434 -0.3023
   27MOL    H7610008   0.934   0.924   1.922 -0.1991 -1.1377 -0.1527
   27MOL    H7710009   0.840   1.023   2.042 -1.0361 -0.0671  3.4318
   27MOL    C7810010   0.330   0.646   1.895 -1.2052 -0.6125  0.7339
   27MOL    C7910011   0.357   0.619   1.745 -0.1776 -0.3971  0.0195
   27MOL    C8010012   0.448   0.500   1.720  0.3990 -0.1762 -0.7379
   27MOL    C8110013   0.472   0.475   1.566  0.8231 -0.3751  0.6763
   27MOL    C8210014   0.578   0.365   1.558 -0.3419  0.6347  0.8050
   27MOL    C8310015   0.564   0.291   1.423 -0.3201 -0.2382  0.0047
   27MOL    O8410016   0.399   0.738   1.679  0.0301 -0.5767  0.1814
   27MOL    H8510017   0.262   0.731   1.903  0.3657  0.7037  0.4952
   27MOL    H8610018   0.276   0.569   1.950 -1.3625 -0.0053  1.4500
   27MOL    H8710019   0.260   0.591   1.704 -0.8065  3.8617 -1.6884
   27MOL    H8810020   0.542   0.515   1.772 -1.0065 -0.6938  2.0668
   27MOL    H8910021   0.408   0.408   1.763 -0.7117 -0.3022 -1.9729
   27MOL    H9010022   0.497   0.560   1.502  1.5367 -0.9845  0.1344
   27MOL    H9110023   0.379   0.430   1.531 -1.0949  2.6860  1.6294
   27MOL    H9210024   0.678   0.404   1.572 -0.5810  1.6142 -0.1462
   27MOL    H9310025   0.565   0.299   1.644 -1.7216 -1.4450 -0.9205
   27MOL    H9410026   0.640   0.213   1.419  0.0115  0.0225  1.1113
   27MOL    H9510027   0.606   0.351   1.342  0.7185  0.7670  1.2865
   27MOL    H9610028   0.464   0.255   1.399 -0.1923 -0.8894  0.4476
   27MOL    C9710029   0.311   0.852   1.685 -0.1749 -0.6056 -0.2635
   27MOL    C9810030   0.343   0.937   1.560 -0.4792  0.3082 -0.2794
   27MOL    C9910031   0.227   1.031   1.523 -0.2266  0.6731  0.3242
   27MOL   C10010032   0.207   1.151   1.619  0.8887 -0.1829  0.2825
   27MOL   C10110033   0.086   1.248   1.585 -0.1213 -0.3064 -0.8788
   27MOL   C10210034   0.087   1.374   1.674  0.5844 -0.0844  0.2650
   27MOL   O10310035   0.457   1.016   1.591 -0.5260 -0.0054  0.0726
   27MOL   H10410036   0.316   0.918   1.772  0.4041  0.3469 -1.0078
   27MOL   H10510037   0.210   0.813   1.676  0.2637 -1.9065  0.3965
   27MOL   H10610038   0.352   0.881   1.467 -1.4230  1.9568 -1.3804
   27MOL   H10710039   0.144   0.963   1.503  0.1116  0.1548  0.6764
   27MOL   H10810040   0.254   1.072   1.425 -0.7002  1.1365  0.3851
   27MOL   H10910041   0.301   1.201   1.596  1.4776 -1.4496 -0.1124
   27MOL   H11010042   0.183   1.124   1.722 -0.6183 -3.3808 -0.8302
   27MOL   H11110043   7.776   1.200   1.607  0.3291 -1.1494 -0.7105
   27MOL   H11210044   0.073   1.265   1.478  2.0399 -1.9737 -1.4679
   27MOL   H11310045   0.166   1.445   1.649  0.9407  0.1992  2.1887
   27MOL   H11410046   7.781   1.429   1.655 -0.3873 -2.4391 -2.3840
   27MOL   H11510047   0.103   1.337   1.775  2.0826  2.6886  1.0814
   27MOL   C11610048   0.576   0.943   1.631 -0.7436  0.2327  0.4444
   27MOL   C11710049   0.695   1.037   1.662 -0.2300  0.9481 -0.2953
   27MOL   C11810050   0.829   0.963   1.625 -0.0624 -0.3584 -0.3534
   27MOL   C11910051   0.949   1.051   1.645 -0.3140  0.1758 -0.8256
   27MOL   C12010052   1.080   0.981   1.607  0.3480  0.5805  0.7113
   27MOL   C12110053   1.199   1.067   1.656  0.1453  0.1564  0.8200
   27MOL   O12210054   0.684   1.051   1.801  0.0191 -0.2011 -0.2802
   27MOL   H12310055   0.560   0.885   1.721  1.1796 -1.3804 -0.2072
   27MOL   H12410056   0.606   0.864   1.563  1.5410 -0.0922  1.7705
   27MOL   H12510057   0.683   1.132   1.611 -2.6686  0.6438 -0.3343
   27MOL   H12610058   0.837   0.871   1.684 -1.3087  0.0556  0.4906
   27MOL   H12710059   0.834   0.912   1.529  0.7242 -2.7608  0.9092
   27MOL   H12810060   0.955   1.073   1.751 -2.1463 -0.5596 -0.5629
   27MOL   H12910061   0.932   1.154   1.612  1.8063  0.8574  0.0714
   27MOL   H13010062   1.078   0.887   1.662  2.4615  0.6680  0.9511
   27MOL   H13110063   1.086   0.966   1.500 -0.2277  1.5979  0.5269
   27MOL   H13210064   1.292   1.019   1.622 -0.2491 -1.1589  1.5495
   27MOL   H13310065   1.196   1.169   1.620 -1.5188  1.2049  3.7719
   27MOL   H13410066   1.210   1.073   1.764 -0.4932  0.6563  0.8602
   27MOL   C13510067   0.571   1.139   1.843 -0.0560  0.4421 -0.0471
   27MOL   C13610068   0.605   1.200   1.979 -0.1739  0.2709  0.0106
   27MOL   C13710069   0.487   1.212   2.074 -0.9473 -0.1901 -0.0375
   27MOL   C13810070   0.429   1.085   2.119 -0.9561  1.0036 -0.4782
   27MOL   C13910071   0.298   1.109   2.184  0.3545  0.4997 -0.2548
   27MOL   C14010072   0.220   0.980   2.213  0.3140 -0.1888 -0.5985
   27MOL   O14110073   0.649   1.337   1.951  0.2471  0.0654 -0.7310
   27MOL   H14210074   0.540   1.205   1.763 -0.3561  3.0583  2.1508
   27MOL   H14310075   0.486   1.072   1.856 -1.0673  1.1161 -2.9424
   27MOL   H14410076   0.683   1.143   2.030 -0.9232  0.3033  1.2109
   27MOL   H14510077   0.524   1.261   2.163 -1.0068 -1.4372  0.6844
   27MOL   H14610078   0.424   1.282   2.020 -1.1155 -2.4731 -2.9557
   27MOL   H14710079   0.499   1.037   2.187 -4.2281 -0.2823  2.0823
   27MOL   H14810080   0.397   1.011   2.045 -0.6219 -0.5829  0.9484
   27MOL   H14910081   0.239   1.179   2.125  1.0767 -0.1063 -1.6964
   27MOL   H15010082   0.306   1.167   2.276 -3.1387  2.8235 -1.3149
   27MOL   H15110083   0.124   1.009   2.257 -0.0703 -1.3240 -0.6530
   27MOL   H15210084   0.186   0.941   2.117 -0.2524 -0.0206 -0.4715
   27MOL   H15310085   0.274   0.903   2.268  0.9929  1.2773  0.8397
   27MOL   C15410086   0.786   1.370   1.978  0.0798 -0.7973  0.4447
   27MOL   C15510087   0.824   1.506   1.908  0.5089  0.9635 -0.8884
   27MOL   C15610088   0.958   1.557   1.948  0.7019  0.1426  0.4451
   27MOL   C15710089   0.994   1.694   1.899  0.2366  0.5865  0.4738
   27MOL   C15810090   1.133   1.753   1.943  0.6814 -0.3902 -0.2075
   27MOL   C15910091   1.152   1.896   1.894 -0.6804 -0.1030  0.6310
   27MOL   O16010092   0.831   1.475   1.769  0.1464 -0.4290  0.2453
   27MOL   H16110093   0.846   1.298   1.922  0.2177 -0.9308  0.7628
   27MOL   H16210094   0.799   1.375   2.086  1.2078  0.9642  0.2575
   27MOL   H16310095   0.743   1.576   1.926 -1.7558 -1.6362 -0.5500
   27MOL   H16410096   1.030   1.483   1.912 -0.6078 -1.4154  0.9532
   27MOL   H16510097   0.962   1.549   2.056  0.2466 -1.9142  0.3406
   27MOL   H16610098   0.918   1.758   1.944 -0.7266  1.7365 -2.6514
   27MOL   H16710099   0.982   1.694   1.791 -1.4730 -0.1033  0.6563
   27MOL   H16810100   1.136   1.753   2.052 -0.3665  3.2858 -0.1066
   27MOL   H16910101   1.213   1.694   1.899  0.0172 -1.6172  0.2107
   27MOL   H17010102   1.184   1.901   1.790 -0.8029  1.4575  0.6521
   27MOL   H17110103   1.229   1.949   1.950 -1.7384  2.2095 -0.0392
   27MOL   H17210104   1.062   1.957   1.905  1.1305  2.3022  2.9200
   27MOL   C17310105   0.718   1.505   1.689  0.3176  0.6580 -0.2614
   27MOL   C17410106   0.728   1.435   1.555  0.8618 -0.0141 -0.2611
   27MOL   C17510107   0.586   1.406   1.499  0.9761 -0.2329 -0.9120
   27MOL   C17610108   0.588   1.329   1.361 -0.0194 -0.1370  0.5144
   27MOL   C17710109   0.455   1.346   1.284  0.0368 -0.8507 -0.2064
   27MOL   C17810110   0.446   1.241   1.178  0.0929  0.0862  0.5226
   27MOL   O17910111   0.794   1.503   1.451  0.2569 -0.0466  0.1090
   27MOL   H18010112   0.720   1.614   1.683 -0.3813  0.7151  0.4894
   27MOL   H18110113   0.631   1.473   1.745  1.2789 -2.5942 -0.5622
   27MOL   H18210114   0.786   1.343   1.558 -0.0092 -0.5333  1.9727
   27MOL   H18310115   0.517   1.358   1.570  0.4473  1.0564 -0.5505
   27MOL   H18410116   0.535   1.501   1.488 -1.4929 -1.3924 -0.0070
   27MOL   H18510117   0.675   1.362   1.305 -0.3937 -0.9197 -0.5250
   27MOL   H18610118   0.604   1.223   1.378 -1.8270 -0.2415  1.7437
   27MOL   H18710119   0.371   1.332   1.352 -0.4153  0.1633 -0.5433
   27MOL   H18810120   0.447   1.445   1.238 -0.2446 -0.3704  0.8790
   27MOL   H18910121   0.526   1.235   1.104  0.2197 -0.8771  0.7263
   27MOL   H19010122   0.358   1.254   1.114  1.5465  0.2247 -1.5160
   27MOL   H19110123   0.449   1.143   1.225 -0.5264  0.9164  2.3219
   27MOL   C19210124   0.927   1.552   1.479  0.2370 -0.0539  0.4243
   27MOL   C19310125   1.051   1.461   1.503 -0.0298  0.2717 -0.7608
   27MOL   C19410126   1.158   1.561   1.558 -0.4514  0.6526 -0.0320
   27MOL   C19510127   1.274   1.465   1.602  0.5228 -0.5215  0.0843
   27MOL   C19610128   1.391   1.527   1.663  0.3654  0.4712  0.0187
   27MOL   C19710129   1.475   1.612   1.561 -0.2464 -0.3028  0.0880
   27MOL   O19810130   1.097   1.401   1.378 -0.1513 -0.1413 -0.0623
   27MOL   H19910131   0.954   1.624   1.401 -1.3581  1.9461  1.6523
   27MOL   H20010132   0.917   1.618   1.565 -1.6510  0.2562  0.0022
   27MOL   H20110133   1.040   1.392   1.587 -0.9864  0.4341 -0.7446
   27MOL   H20210134   1.194   1.631   1.483 -0.1533  1.9446  1.2958
   27MOL   H20310135   1.123   1.605   1.651 -0.5159  0.9850 -0.2141
   27MOL   H20410136   1.306   1.404   1.517 -2.2407 -0.3417 -1.1331
   27MOL   H20510137   1.243   1.394   1.679  0.2304  1.4854  1.8298
   27MOL   H20610138   1.371   1.591   1.748  0.0882  0.3355  0.0550
   27MOL   H20710139   1.455   1.445   1.698  0.7221  0.5756 -0.3782
   27MOL   H20810140   1.488   1.554   1.470 -0.9151  0.2903 -0.3884
   27MOL   H20910141   1.416   1.701   1.541 -1.4707 -0.7553  1.5832
   27MOL   H21010142   1.570   1.645   1.603 -0.1530  0.1476 -0.4723
   27MOL   C21110143   1.010   1.293   1.342 -0.3260 -0.2158 -0.4092
   27MOL   C21210144   1.066   1.210   1.229  0.4921 -0.3845  0.5286
   27MOL   C21310145   0.951   1.127   1.152 -0.3402  0.0803  0.2317
   27MOL   C21410146   0.854   1.041   1.235  0.6240 -0.2821  0.8944
   27MOL   C21510147   0.747   0.985   1.141 -0.4480  0.8172 -0.7366
   27MOL   C21610148   0.807   0.885   1.031 -0.4159  0.4997 -0.2142
   27MOL   O21710149   1.166   1.130   1.276  0.1314  0.3368 -0.6561
   27MOL   H21810150   0.918   1.340   1.309 -1.1473 -2.6879 -1.7498
   27MOL   H21910151   0.986   1.221   1.419 -2.9519 -0.2508 -1.2283
   27MOL   H22010152   1.111   1.267   1.149  1.1680 -0.0525  1.1361
   27MOL   H22110153   0.885   1.192   1.094 -1.5696 -0.8200  0.5971
   27MOL   H22210154   1.003   1.062   1.081 -0.5570 -0.3877  0.4992
   27MOL   H22310155   0.913   0.966   1.287  1.5492  1.8031  2.9465
   27MOL   H22410156   0.810   1.094   1.320  1.8330 -1.3553  2.2194
   27MOL   H22510157   0.679   0.925   1.202  0.4449  1.4636  0.9530
   27MOL   H22610158   0.695   1.072   1.102 -1.0900  0.5955 -0.3939
   27MOL   H22710159   0.865   0.941   0.958 -0.8713  1.1402 -0.0952
   27MOL   H22810160   0.719   0.848   0.980 -0.6490  0.7202  0.0235
   27MOL   H22910161   0.866   0.804   1.073  0.3441  1.6162  0.9187
   27MOL   C23010162   1.295   1.197   1.280  0.2290 -0.3971  0.0865
   27MOL   C23110163   1.406   1.098   1.244  0.1221 -0.0313  0.3311
   27MOL   C23210164   1.541   1.128   1.317  0.7669  0.3714 -0.1412
   27MOL   C23310165   1.591   1.276   1.318  0.5660  0.2288 -0.0765
   27MOL   C23410166   1.744   1.288   1.346 -0.6276 -0.2398  0.2874
   27MOL   C23510167   1.780   1.283   1.497 -0.5404 -0.0180  0.1443
   27MOL   O23610168   1.433   1.106   1.104  0.1141  0.3528  0.3719
   27MOL   H23710169   1.307   1.287   1.220  2.6802 -1.3188 -0.8882
   27MOL   H23810170   1.297   1.235   1.383  0.4296  1.0177 -0.4238
   27MOL   H23910171   1.366   1.001   1.272 -0.5747  0.0110 -0.4612
   27MOL   H24010172   1.619   1.075   1.262  0.2972  0.5193 -0.9704
   27MOL   H24110173   1.527   1.085   1.416 -3.5096 -0.1226 -0.8661
   27MOL   H24210174   1.530   1.325   1.394 -0.0672 -1.2506  0.3827
   27MOL   H24310175   1.562   1.328   1.226  0.7211 -0.2174 -0.3808
   27MOL   H24410176   1.797   1.205   1.300 -0.2153 -0.3855  1.0160
   27MOL   H24510177   1.779   1.375   1.289 -2.1217 -1.4603 -2.5933
   27MOL   H24610178   1.796   1.382   1.542 -0.0815 -0.3506  0.7240
   27MOL   H24710179   1.860   1.213   1.521  0.5112  1.0490 -0.1798
   27MOL   H24810180   1.691   1.240   1.543  0.6529 -3.3483 -0.5758
   27MOL   C24910181   1.356   1.016   1.018  0.4286  0.3905 -0.2972
   27MOL   C25010182   1.415   1.016   0.877  0.3003  0.6481  0.2249
   27MOL   C25110183   1.316   0.947   0.770  0.4192 -0.4564  0.3123
   27MOL   C25210184   1.193   1.023   0.722  0.0725  0.0665 -1.1149
   27MOL   C25310185   1.116   0.959   0.608  0.2231  0.7131  0.4311
   27MOL   C25410186   1.162   0.981   0.463 -0.6453  0.7085 -0.1628
   27MOL   O25510187   1.532   0.943   0.869  0.0079  0.3556 -0.2458
   27MOL   H25610188   1.367   0.918   1.064 -3.2609  0.0005 -0.0855
   27MOL   H25710189   1.252   1.049   1.010 -0.6446 -2.1821  1.9544
   27MOL   H25810190   1.419   1.118   0.840 -0.2058  0.2486 -0.9619
   27MOL   H25910191   1.386   0.929   0.688 -2.4128  0.1926 -2.3166
   27MOL   H26010192   1.291   0.850   0.813  0.2461 -0.3960  0.3460
   27MOL   H26110193   1.124   1.041   0.804 -0.0023  2.9350 -1.7473
   27MOL   H26210194   1.218   1.123   0.686  1.0286 -0.6782 -2.5291
   27MOL   H26310195   1.118   0.852   0.627 -0.4592  0.7815  0.9065
   27MOL   H26410196   1.010   0.982   0.610  0.2963  1.1513 -0.4813
   27MOL   H26510197   1.138   1.080   0.425  2.9911  1.2013 -1.3710
   27MOL   H26610198   1.133   0.900   0.395  2.0640 -1.1930  0.8610
   27MOL   H26710199   1.270   0.975   0.468 -0.6689  0.5126  0.1280
   27MOL   C26810200   1.645   1.026   0.884  0.5554  0.3950 -0.6874
   27MOL   C26910201   1.767   0.934   0.869  0.1195  0.1746 -0.1419
   27MOL   C27010202   1.780   0.884   0.727  0.5135  0.5177 -0.4641
   27MOL   C27110203   1.915   0.814   0.699  0.5140 -0.5419  0.2305
   27MOL   C27210204   1.930   0.769   0.549  0.3456  0.6366 -0.0431
   27MOL   C27310205   2.056   0.691   0.512 -0.1108  0.5789 -0.1152
   27MOL   O27410206   1.777   0.816   0.955  0.8072  0.6433  0.3589
   27MOL   H27510207   1.644   1.072   0.982 -0.2406 -2.8697  0.9047
   27MOL   H27610208   1.652   1.106   0.811  1.1524  1.6451  0.7201
   27MOL   H27710209   1.862   0.985   0.887  1.2656 -1.8833 -0.1201
   27MOL   H27810210   1.697   0.821   0.693 -1.7094  1.2166  3.4017
   27MOL   H27910211   1.777   0.971   0.661 -2.4913 -0.1413 -1.2762
   27MOL   H28010212   1.995   0.885   0.722 -0.3214  1.4312 -2.6573
   27MOL   H28110213   1.933   0.722   0.755  1.6459  1.0702  2.6003
   27MOL   H28210214   1.849   0.697   0.541  0.5503  0.4706 -0.6387
   27MOL   H28310215   1.916   0.855   0.484 -3.4926  0.4193  0.4087
   27MOL   H28410216   2.053   0.647   0.413 -1.9882 -2.6357  1.2836
   27MOL   H28510217   2.148   0.748   0.500 -0.6688  1.6354  0.5173
   27MOL   H28610218   2.074   0.607   0.579  1.2369  1.5956  0.8199
   27MOL   C28710219   1.752   0.834   1.093  0.0018  0.3423 -0.6529
   27MOL   C28810220   1.723   0.698   1.160  0.1075 -0.2858 -0.9960
   27MOL   C28910221   1.638   0.601   1.081  0.7336  0.0170  0.4316
   27MOL   C29010222   1.620   0.484   1.171  0.5936  0.9231 -0.0326
   27MOL   C29110223   1.515   0.380   1.125 -0.2115 -0.1332  0.1930
   27MOL   C29210224   1.491   0.278   1.229  0.4096  0.2043 -0.1289
   27MOL   O29310225   1.661   0.714   1.289  0.7830 -0.3143 -0.1116
   27MOL   H29410226   1.651   0.876   1.097  0.0453  0.4522 -0.7067
   27MOL   H29510227   1.830   0.893   1.140 -0.3534 -0.2424  0.6681
   27MOL   H29610228   1.817   0.644   1.174  0.1339  0.2648  1.2807
   27MOL   H29710229   1.544   0.649   1.054  0.8859 -0.2518 -0.5919
   27MOL   H29810230   1.686   0.578   0.986 -2.5595 -2.3429 -0.7762
   27MOL   H29910231   1.717   0.444   1.198 -0.1964 -0.4706  0.8319
   27MOL   H30010232   1.576   0.512   1.266  1.5965  0.2395  0.6401
   27MOL   H30110233   1.550   0.324   1.039  1.2274 -1.1210  1.3822
   27MOL   H30210234   1.418   0.422   1.099 -0.3740 -1.6429 -1.7655
   27MOL   H30310235   1.579   0.215   1.236  0.3134  0.0880  0.0390
   27MOL   H30410236   1.472   0.315   1.330  1.2570  0.9851 -0.2487
   27MOL   H30510237   1.417   0.210   1.189  1.1531 -0.8359  0.2486
   27MOL   C30610238   1.723   0.781   1.396 -0.6523 -0.0246  0.0823
   27MOL   C30710239   1.643   0.800   1.516 -0.2874  0.3826 -1.0670
   27MOL   C30810240   1.708   0.909   1.602  0.1495  0.1770 -0.3452
   27MOL   C30910241   1.625   0.974   1.707 -0.5781  0.8306  0.3640
   27MOL   C31010242   1.703   1.067   1.795 -0.2965  0.4397  0.4192
   27MOL   C31110243   1.607   1.153   1.879  0.4235 -0.5555 -0.4822
   27MOL   O31210244   1.640   0.689   1.606 -0.0024 -0.3176 -0.1285
   27MOL   H31310245   1.818   0.729   1.407 -0.2995  0.8057  1.0119
   27MOL   H31410246   1.740   0.881   1.356 -0.8376 -0.3702 -0.8739
   27MOL   H31510247   1.544   0.838   1.489  0.5968  3.4795 -0.1491
   27MOL   H31610248   1.744   0.988   1.536 -0.7720  1.3017  0.4653
   27MOL   H31710249   1.798   0.867   1.645  0.5670 -1.0050 -2.3124
   27MOL   H31810250   1.541   1.024   1.658 -0.3635  1.0013  0.1693
   27MOL   H31910251   1.586   0.896   1.772 -0.2790 -1.6273 -2.3084
   27MOL   H32010252   1.767   1.134   1.737 -1.7088  0.2995 -1.3421
   27MOL   H32110253   1.776   1.013   1.855  2.0447  1.5581 -1.3711
   27MOL   H32210254   1.661   1.227   1.938  0.4936  1.0724 -2.5528
   27MOL   H32310255   1.545   1.211   1.810  0.6195  0.2292 -0.0118
   27MOL   H32410256   1.541   1.091   1.941 -0.6734  0.7908 -0.2647
   27MOL   C32510257   1.577   0.575   1.550  0.6885 -0.3344  0.0539
   27MOL   C32610258   1.569   0.466   1.653  0.1886  0.0090 -0.1321
   27MOL   C32710259   1.565   0.321   1.590  0.2871 -0.1489  0.1694
   27MOL   C32810260   1.629   0.216   1.685 -0.4438  0.0549 -0.8818
   27MOL   C32910261   1.664   0.086   1.614  0.1497  0.5220 -0.3212
   27MOL   C33010262   1.716   7.762   1.711 -0.0748 -0.9503 -0.1769
   27MOL   O33110263   1.464   0.467   1.749  0.0301  0.2257  0.7212
   27MOL   H33210264   1.639   0.540   1.468  1.6713  1.7914 -0.1132
   27MOL   H33310265   1.477   0.605   1.517  0.4367  1.3520  2.2316
   27MOL   H33410266   1.663   0.473   1.708  0.4130 -3.1041 -0.0643
   27MOL   H33510267   1.465   0.290   1.560  0.4435  0.1587 -0.6836
   27MOL   H33610268   1.615   0.336   1.494  2.4682  0.1243  1.3104
   27MOL   H33710269   1.713   0.243   1.749  0.0083 -2.5181 -0.3328
   27MOL   H33810270   1.551   0.183   1.753  0.8989 -2.5297 -0.4987
   27MOL   H33910271   1.582   0.048   1.554 -0.2620 -0.7171  1.0064
   27MOL   H34010272   1.743   0.107   1.542  0.3786  3.0765  0.6169
   27MOL   H34110273   1.812   0.001   1.757 -0.2574  2.4798 -1.4424
   27MOL   H34210274   1.647   7.741   1.792 -0.4259 -1.1068 -0.5139
   27MOL   H34310275   1.739   7.670   1.657 -2.3843 -0.9956 -1.1567
   27MOL   C34410276   1.445   0.602   1.815 -0.3451  0.1848  0.0698
   27MOL   C34510277   1.326   0.587   1.914  1.4078 -0.2723  0.4650
   27MOL   C34610278   1.322   0.694   2.026 -0.9565 -0.0849 -0.5457
   27MOL   C34710279   1.425   0.672   2.136  0.1183 -0.9297 -0.0603
   27MOL   C34810280   1.454   0.782   2.238 -0.0496  0.5248 -0.2583
   27MOL   C34910281   1.497   0.913   2.181  0.0499  0.9365 -0.1122
   27MOL   O35010282   1.195   0.600   1.855 -0.0664 -0.1612 -0.3757
   27MOL   H35110283   1.425   0.685   1.747 -0.2339 -0.7459 -1.1009
   27MOL   H35210284   1.532   0.636   1.871 -0.0772  2.1265 -1.4795
   27MOL   H35310285   1.330   0.489   1.961 -2.4969 -0.4500  0.6307
   27MOL   H35410286   1.222   0.687   2.070  2.0557 -2.3617  6.6274
   27MOL   H35510287   1.321   0.795   1.986  1.5259 -0.0544 -0.6084
   27MOL   H35610288   1.520   0.645   2.089  0.4781 -0.0986  0.1710
   27MOL   H35710289   1.392   0.588   2.197  0.3724  0.0039  1.3840
   27MOL   H35810290   1.534   0.744   2.300 -0.1676 -2.5616 -1.8915
   27MOL   H35910291   1.363   0.794   2.296 -0.6799 -1.4818 -0.7832
   27MOL   H36010292   1.561   0.890   2.095 -0.0586  1.3865 -0.3109
   27MOL   H36110293   1.551   0.979   2.248  1.9032  0.2052 -0.8419
   27MOL   H36210294   1.407   0.963   2.146  1.2765  1.3169 -2.9161
   27MOL   C36310295   1.153   0.500   1.770 -0.5440  0.1907 -0.3712
   27MOL   C36410296   0.999   0.489   1.766  0.6864 -0.5242  0.2546
   27MOL   C36510297   0.939   0.446   1.891 -0.1302  0.3425 -0.1163
   27MOL   C36610298   0.793   0.373   1.873  0.1228 -0.1547 -0.0061
   27MOL   C36710299   0.736   0.328   2.010 -0.2086  0.4674 -0.4266
   27MOL   C36810300   0.584   0.288   2.004  0.1222 -0.1740 -0.4559
   27MOL   O36910301   0.931   0.602   1.708  0.0840  0.5780 -0.2823
   27MOL   H37010302   1.191   0.407   1.813 -0.5513 -0.0607 -0.9088
   27MOL   H37110303   1.197   0.515   1.672 -1.8690  0.1633 -0.9726
   27MOL   H37210304   0.977   0.416   1.688  1.2442  1.3836 -1.7406
   27MOL   H37310305   1.006   0.378   1.945  0.2469  1.0161  0.2760
   27MOL   H37410306   0.919   0.526   1.962  0.2331  0.4636 -0.1519
   27MOL   H37510307   0.719   0.442   1.833  1.3034  0.2086 -1.6272
   27MOL   H37610308   0.793   0.282   1.813 -2.5079 -0.3625  0.2698
   27MOL   H37710309   0.793   0.244   2.051 -0.5431  1.4675  2.1670
   27MOL   H37810310   0.752   0.403   2.088  0.2523 -2.3120  2.2707
   27MOL   H37910311   0.531   0.369   1.953  1.9024  1.5979  0.4246
   27MOL   H38010312   0.567   0.197   1.947 -0.2952 -0.6439  0.4041
   27MOL   H38110313   0.539   0.277   2.103  0.3218 -0.4286 -0.3934
   27MOL   H38210314   0.967   0.678   1.751  0.5712  0.0414  0.2695
   28MOL     C110315   1.910   3.602   5.350 -0.6737 -0.1827  0.1475
   28MOL     C210316   1.896   3.450   5.344 -0.4513 -0.6580  1.3400
   28MOL     C310317   1.937   3.367   5.464 -0.1842 -0.0327  0.3424
   28MOL     C410318   2.092   3.358   5.475 -0.9789 -0.3688  0.1124
   28MOL     C510319   2.128   3.298   5.612 -0.4514  0.2643  0.2998
   28MOL     C610320   2.276   3.281   5.619  0.2052 -0.5868  0.0145
   28MOL     O710321   1.755   3.447   5.344 -0.2942 -0.0935 -0.4180
   28MOL     H810322   1.857   3.635   5.439 -0.6867  0.4914 -0.1087
   28MOL     H910323   1.877   3.657   5.262 -1.3654 -0.3474  0.3018
   28MOL    H1010324   1.953   3.423   5.255  0.1131  0.9720  1.1816
   28MOL    H1110325   1.897   3.394   5.562 -1.1662 -1.4015  0.3301
   28MOL    H1210326   1.895   3.266   5.469 -0.6667  0.2300  2.2550
   28MOL    H1310327   2.141   3.298   5.399  0.0893 -1.6787  1.8016
   28MOL    H1410328   2.128   3.460   5.463 -0.6423 -0.5940 -0.8733
   28MOL    H1510329   2.095   3.369   5.689  1.2772 -1.0219  2.2713
   28MOL    H1610330   2.070   3.206   5.614  1.8252 -1.2173  0.0470
   28MOL    H1710331   2.314   3.216   5.540  1.6438  0.9721 -0.6059
   28MOL    H1810332   2.323   3.379   5.613  1.3351 -0.7797  4.3038
   28MOL    H1910333   2.295   3.226   5.710 -0.8366  2.1544  1.9721
   28MOL    H2010334   2.017   3.620   5.358 -0.4397 -1.5396  0.1254
   28MOL    C2110335   1.710   3.348   5.252  0.5739  0.1968 -1.1244
   28MOL    C2210336   1.557   3.350   5.238  0.3139 -0.8609  0.1969
   28MOL    C2310337   1.520   3.271   5.105  0.2267  0.3693  0.2068
   28MOL    C2410338   1.362   3.260   5.085 -0.0707  0.1880 -0.1450
   28MOL    C2510339   1.320   3.154   4.985  0.1196 -0.0308 -0.1224
   28MOL    C2610340   1.172   3.129   4.977 -0.1621  0.6203  0.4370
   28MOL    O2710341   1.502   3.284   5.350 -0.1348 -0.2152  0.6424
   28MOL    H2810342   1.752   3.360   5.152  0.3241  0.8760 -1.1565
   28MOL    H2910343   1.749   3.249   5.274  0.2619  0.3311  0.0495
   28MOL    H3010344   1.527   3.454   5.226  0.0611 -0.8439  0.9527
   28MOL    H3110345   1.568   3.174   5.112  2.4933  1.5514  1.5267
   28MOL    H3210346   1.542   3.325   5.014 -1.0870  1.0204  0.2581
   28MOL    H3310347   1.321   3.359   5.070 -0.4332 -0.0892 -1.0245
   28MOL    H3410348   1.321   3.224   5.180  0.9596  2.6674  1.2737
   28MOL    H3510349   1.350   3.186   4.885 -2.9944 -1.4979 -1.5969
   28MOL    H3610350   1.381   3.067   5.010  0.2865 -0.0152 -0.4599
   28MOL    H3710351   1.147   3.212   4.911  2.1650 -0.3238 -1.6584
   28MOL    H3810352   1.118   3.142   5.071  0.4666  0.7107  0.7834
   28MOL    H3910353   1.160   3.035   4.923 -1.9029  2.3632 -2.3475
   28MOL    C4010354   1.505   3.355   5.472 -1.0396  0.0810 -0.3745
   28MOL    C4110355   1.358   3.372   5.515  0.2864  0.0973  0.2307
   28MOL    C4210356   1.285   3.475   5.427  0.1875 -0.8605  0.3884
   28MOL    C4310357   1.149   3.528   5.481  0.0378  0.2429 -0.0189
   28MOL    C4410358   1.061   3.570   5.367 -0.3854  0.0653  0.4864
   28MOL    C4510359   0.922   3.620   5.403  0.2917  0.6743  0.4151
   28MOL    O4610360   1.349   3.420   5.648  0.0464 -0.3422  0.3308
   28MOL    H4710361   1.533   3.460   5.462 -2.6193  0.6815  1.2353
   28MOL    H4810362   1.570   3.306   5.543 -1.1732 -2.1131 -1.7230
   28MOL    H4910363   1.311   3.275   5.495 -0.2449  0.5579 -0.8305
   28MOL    H5010364   1.357   3.554   5.407  0.7895 -2.0859 -2.5758
   28MOL    H5110365   1.268   3.415   5.338 -1.8096  0.2462 -0.0107
   28MOL    H5210366   1.151   3.602   5.561 -1.2640  1.6740 -1.2914
   28MOL    H5310367   1.098   3.443   5.527 -0.6491  1.2497  1.0919
   28MOL    H5410368   1.107   3.653   5.313 -0.2793 -0.2490  0.0952
   28MOL    H5510369   1.044   3.498   5.287 -0.7938  1.7840 -1.0199
   28MOL    H5610370   0.926   3.679   5.495  1.0787 -0.2218  0.9746
   28MOL    H5710371   0.879   3.682   5.326  0.0809  1.5500  1.2342
   28MOL    H5810372   0.850   3.540   5.420  0.7334  0.3316  0.6932
   28MOL    C5910373   1.317   3.313   5.740  0.3886 -0.2287  0.5012
   28MOL    C6010374   1.316   3.370   5.881 -0.1588 -0.0402 -0.4521
   28MOL    C6110375   1.199   3.469   5.903 -0.1078 -0.5293  0.5736
   28MOL    C6210376   1.210   3.545   6.045 -0.3339  0.5162  0.0877
   28MOL    C6310377   1.106   3.652   6.063 -1.0040 -0.1860 -0.3759
   28MOL    C6410378   1.117   3.727   6.194  0.2562 -0.1808  0.0351
   28MOL    O6510379   1.308   3.268   5.983  0.8909 -0.0749 -0.2273
   28MOL    H6610380   1.390   3.234   5.720  0.1931 -0.4459  0.6392
   28MOL    H6710381   1.221   3.272   5.710  0.9453 -1.5436  0.4929
   28MOL    H6810382   1.405   3.429   5.898  0.4487 -1.0451 -0.0729
   28MOL    H6910383   1.103   3.423   5.876 -0.7654  1.6504 -0.9978
   28MOL    H7010384   1.205   3.543   5.823 -1.6332 -1.2009 -0.1996
   28MOL    H7110385   1.309   3.590   6.049  0.5205 -1.4473  2.8824
   28MOL    H7210386   1.205   3.473   6.127  0.5485 -1.3100 -1.4305
   28MOL    H7310387   1.012   3.598   6.049 -1.1689 -0.5590  2.0845
   28MOL    H7410388   1.108   3.725   5.982  0.1736  0.7782  0.5032
   28MOL    H7510389   1.219   3.755   6.218 -0.3120  1.5938  0.4950
   28MOL    H7610390   1.072   3.826   6.180 -1.3791 -1.2325 -2.6258
   28MOL    H7710391   1.071   3.677   6.279  2.8937  1.8859  2.7793
   28MOL    C7810392   1.418   3.182   5.997  0.6224  0.3373  0.7752
   28MOL    C7910393   1.411   3.113   6.126  0.4856 -0.1199  0.7960
   28MOL    C8010394   1.537   3.037   6.155 -0.4739 -0.0334  0.5374
   28MOL    C8110395   1.537   2.961   6.286 -0.1084  0.0086 -0.2967
   28MOL    C8210396   1.664   2.879   6.321 -0.0601 -0.2565 -0.6505
   28MOL    C8310397   1.671   2.745   6.246  0.0845 -0.0136 -0.6859
   28MOL    O8410398   1.306   3.012   6.117  0.2153 -0.3614 -0.6484
   28MOL    H8510399   1.512   3.237   5.988  0.9021 -0.5660 -2.3941
   28MOL    H8610400   1.415   3.117   5.909  1.1317  4.5297 -2.5122
   28MOL    H8710401   1.389   3.184   6.206 -0.1743  0.8233 -0.2020
   28MOL    H8810402   1.554   2.968   6.071 -0.2584  0.4599  0.1749
   28MOL    H8910403   1.620   3.107   6.154 -1.5609  1.2887 -0.8113
   28MOL    H9010404   1.451   2.894   6.286 -0.4592  0.4372 -2.8665
   28MOL    H9110405   1.525   3.036   6.365 -1.7173 -1.5002  0.9199
   28MOL    H9210406   1.762   2.925   6.315 -0.2463  0.7817  3.2180
   28MOL    H9310407   1.649   2.867   6.428  2.3750  1.8711 -0.0246
   28MOL    H9410408   1.687   2.759   6.139  1.0028  2.5927 -0.2480
   28MOL    H9510409   1.571   2.705   6.263  1.5934 -3.7098 -0.1094
   28MOL    H9610410   1.732   2.669   6.295 -2.6224 -0.4145  2.2385
   28MOL    C9710411   1.206   3.033   6.221 -0.6983  0.4005  0.2761
   28MOL    C9810412   1.077   2.961   6.184  0.2836  0.5038  0.3231
   28MOL    C9910413   1.060   2.825   6.256  0.4078 -0.8476 -0.2671
   28MOL   C10010414   0.931   2.752   6.220  0.5189 -0.0714  0.4538
   28MOL   C10110415   0.927   2.617   6.290  0.7463 -0.0764  0.2235
   28MOL   C10210416   1.018   2.516   6.228  0.0556  0.1748 -0.3286
   28MOL   O10310417   0.974   3.045   6.227  0.0410  0.3204 -0.2494
   28MOL   H10410418   1.198   3.142   6.213  0.0571  0.3940 -0.6924
   28MOL   H10510419   1.239   2.995   6.318 -0.5524  0.7284  0.3591
   28MOL   H10610420   1.081   2.941   6.077 -1.2214 -0.6336  0.4812
   28MOL   H10710421   1.068   2.845   6.362 -2.1457 -2.1500  0.2039
   28MOL   H10810422   1.152   2.768   6.241  0.1298 -0.7636 -2.5633
   28MOL   H10910423   0.924   2.753   6.111  0.8091  1.8579  0.4232
   28MOL   H11010424   0.851   2.818   6.254  1.7090  1.1563  0.9044
   28MOL   H11110425   0.829   2.570   6.278 -0.0037  1.7021 -0.9196
   28MOL   H11210426   0.949   2.636   6.395  1.1477  1.2890 -0.0898
   28MOL   H11310427   1.125   2.539   6.227  0.1750 -0.2050  2.0975
   28MOL   H11410428   1.009   2.421   6.280 -2.9120  0.0799 -0.9717
   28MOL   H11510429   0.994   2.498   6.123  0.4557 -0.3951 -0.3243
   28MOL   C11610430   0.937   3.148   6.135 -0.1616 -0.1127  0.0496
   28MOL   C11710431   0.876   3.260   6.219  0.5133 -0.1483 -0.0353
   28MOL   C11810432   0.811   3.353   6.115 -0.7707 -0.6416  0.0446
   28MOL   C11910433   0.725   3.468   6.179  0.0898 -0.1605 -0.0999
   28MOL   C12010434   0.656   3.553   6.074 -0.1915  0.3464  0.4630
   28MOL   C12110435   0.568   3.655   6.143 -0.1351 -0.3589 -0.1873
   28MOL   O12210436   0.972   3.338   6.282 -0.0891  0.0957 -0.3748
   28MOL   H12310437   1.021   3.181   6.074 -1.1446  2.5139  0.0666
   28MOL   H12410438   0.865   3.104   6.066 -0.0725  0.5592 -0.4662
   28MOL   H12510439   0.807   3.218   6.291  0.2629 -0.1170 -0.2576
   28MOL   H12610440   0.890   3.391   6.051 -2.1563  2.0415 -0.1428
   28MOL   H12710441   0.733   3.298   6.063 -0.9645  0.3560 -0.7284
   28MOL   H12810442   0.777   3.538   6.244 -1.5571  1.3177 -0.3310
   28MOL   H12910443   0.660   3.426   6.256 -0.5123  3.7138  1.5973
   28MOL   H13010444   0.728   3.611   6.016 -0.3070  0.2870  0.2558
   28MOL   H13110445   0.587   3.492   6.015  0.1231  1.9428 -1.6393
   28MOL   H13210446   0.504   3.617   6.222  0.0960 -0.8300 -0.2246
   28MOL   H13310447   0.626   3.744   6.164  2.0382 -1.3979 -1.6430
   28MOL   H13410448   0.494   3.701   6.077 -1.3363 -1.2539  0.4989
   28MOL   C13510449   1.012   3.301   6.416 -0.5544 -0.2062 -0.4787
   28MOL   C13610450   1.120   3.395   6.476 -0.3313  0.7130 -0.3855
   28MOL   C13710451   1.259   3.347   6.426 -0.9020  0.6709  0.0089
   28MOL   C13810452   1.374   3.448   6.453  0.4084  0.2266 -0.4680
   28MOL   C13910453   1.510   3.404   6.393 -0.2178  0.5075 -0.6536
   28MOL   C14010454   1.520   3.418   6.239  0.3054 -0.4404  0.3286
   28MOL   O14110455   1.127   3.384   6.613  0.5592  0.4092  0.3808
   28MOL   H14210456   0.921   3.302   6.475  0.1107 -3.2951  0.7064
   28MOL   H14310457   1.052   3.200   6.420  2.5647  0.9380 -1.1905
   28MOL   H14410458   1.103   3.499   6.449 -0.1195  0.7011 -0.5692
   28MOL   H14510459   1.280   3.249   6.467 -0.1981  0.4582 -0.8513
   28MOL   H14610460   1.240   3.337   6.319 -3.7038  1.5437  0.3752
   28MOL   H14710461   1.388   3.467   6.559 -0.5462 -2.6766  0.2233
   28MOL   H14810462   1.353   3.547   6.412  0.8819  0.4140 -0.2645
   28MOL   H14910463   1.531   3.300   6.417 -0.3603  0.5411 -0.3717
   28MOL   H15010464   1.589   3.464   6.439  0.5975 -1.1283  0.0862
   28MOL   H15110465   1.596   3.353   6.196  0.1393 -0.5204  0.1548
   28MOL   H15210466   1.430   3.397   6.181 -0.3662 -0.5266  1.3884
   28MOL   H15310467   1.550   3.520   6.216  0.0897 -0.3067  0.6281
   28MOL   C15410468   1.026   3.445   6.690 -0.0022  0.0764  0.3422
   28MOL   C15510469   1.062   3.591   6.740  0.0282 -0.7162  0.4387
   28MOL   C15610470   1.108   3.685   6.635  0.7257  0.2816 -0.4146
   28MOL   C15710471   1.150   3.822   6.679 -0.7326 -0.4322  0.3517
   28MOL   C15810472   1.217   3.909   6.564  0.1083 -0.1315 -0.9621
   28MOL   C15910473   1.313   4.011   6.619  0.4458 -0.3369  0.7672
   28MOL   O16010474   0.957   3.664   6.800  0.7177  0.0584  0.0028
   28MOL   H16110475   1.007   3.386   6.779 -0.7047  1.1276  0.8880
   28MOL   H16210476   0.925   3.441   6.650  0.3041  1.0898 -0.5685
   28MOL   H16310477   1.143   3.592   6.813  0.6125 -0.5026 -0.2083
   28MOL   H16410478   1.032   3.699   6.558 -0.8885  0.6369  1.2004
   28MOL   H16510479   1.191   3.641   6.580 -1.9384 -2.7920 -2.1207
   28MOL   H16610480   1.204   3.826   6.773 -0.1460  0.9407 -0.0386
   28MOL   H16710481   1.056   3.875   6.697  0.8021  2.5149 -0.0234
   28MOL   H16810482   1.269   3.847   6.491 -2.7132 -1.9457 -1.5135
   28MOL   H16910483   1.134   3.942   6.501 -0.9915  0.3188  0.6780
   28MOL   H17010484   1.330   4.086   6.542  0.1728 -0.8710  0.1900
   28MOL   H17110485   1.411   3.971   6.644  1.1208  1.3255  0.8697
   28MOL   H17210486   1.262   4.057   6.704 -0.0763  0.4017  0.0687
   28MOL   C17310487   0.909   3.621   6.928 -0.1258  0.1235  0.1983
   28MOL   C17410488   0.811   3.721   6.992  0.9649  0.6628  0.2964
   28MOL   C17510489   0.745   3.662   7.119 -0.5204  0.3355 -0.2351
   28MOL   C17610490   0.642   3.745   7.192 -0.4584 -0.6384  0.1451
   28MOL   C17710491   0.549   3.666   7.291  0.4605  0.0261 -0.1547
   28MOL   C17810492   0.625   3.578   7.393  0.1723 -0.6353 -0.4638
   28MOL   O17910493   0.882   3.837   7.051 -0.2658  0.1796  0.0296
   28MOL   H18010494   0.995   3.601   6.991  0.4200 -0.0169 -0.5868
   28MOL   H18110495   0.863   3.526   6.897  0.6025 -0.8054  1.9091
   28MOL   H18210496   0.733   3.754   6.924 -0.3808  0.6565  1.8080
   28MOL   H18310497   0.716   3.563   7.084 -2.6281  0.1414  1.8545
   28MOL   H18410498   0.824   3.647   7.192 -0.5992  0.4177 -0.1320
   28MOL   H18510499   0.694   3.826   7.242  0.5076 -0.3653 -1.2849
   28MOL   H18610500   0.573   3.802   7.129  0.1590  0.7711  0.7222
   28MOL   H18710501   0.471   3.717   7.348  1.3625 -1.3919  2.4193
   28MOL   H18810502   0.497   3.595   7.226 -1.6483  0.7082  0.7359
   28MOL   H18910503   0.699   3.634   7.450 -2.0874  0.8368  1.0628
   28MOL   H19010504   0.690   3.501   7.352  0.0632 -0.7052 -0.5061
   28MOL   H19110505   0.566   3.520   7.463 -0.1114 -0.2951 -0.4181
   28MOL   C19210506   0.914   3.942   6.956 -0.1134 -0.6051 -0.4840
   28MOL   C19310507   1.014   4.050   7.003 -0.4897  1.0196 -0.3555
   28MOL   C19410508   0.991   4.189   6.947 -0.6543 -0.2872 -0.5283
   28MOL   C19510509   1.091   4.288   7.016 -0.2524  0.1507 -0.2599
   28MOL   C19610510   1.075   4.441   6.999 -0.4227 -0.4573  0.3436
   28MOL   C19710511   1.182   4.521   7.072 -0.0088  0.1217 -0.1261
   28MOL   O19810512   1.151   4.013   6.968 -0.3637  0.3197  0.0958
   28MOL   H19910513   0.949   3.898   6.863  1.1330 -0.2961 -0.1698
   28MOL   H20010514   0.822   3.985   6.918 -0.3875 -1.9417 -1.3574
   28MOL   H20110515   0.985   4.055   7.108 -1.1962  0.6126 -0.5281
   28MOL   H20210516   1.010   4.184   6.840 -0.3166  1.5677 -0.5598
   28MOL   H20310517   0.886   4.207   6.970 -0.9471  0.6245 -2.4563
   28MOL   H20410518   1.193   4.271   6.983 -1.4333 -1.7817 -3.1149
   28MOL   H20510519   1.088   4.272   7.124 -0.3570  2.1913  0.0509
   28MOL   H20610520   1.077   4.448   6.891  0.6390 -1.6683  0.2764
   28MOL   H20710521   0.981   4.467   7.047 -0.7509 -1.0390  0.0169
   28MOL   H20810522   1.282   4.493   7.039  0.7362 -1.2529  3.1405
   28MOL   H20910523   1.167   4.626   7.046 -0.9417 -0.0547 -0.3269
   28MOL   H21010524   1.188   4.511   7.180  0.1696  0.3357 -0.1159
   28MOL   C21110525   1.199   3.894   7.035 -0.1774  0.1952 -0.1624
   28MOL   C21210526   1.353   3.897   7.011 -0.3157 -0.1948 -0.1728
   28MOL   C21310527   1.422   3.770   6.959 -0.8134  0.3868 -0.2160
   28MOL   C21410528   1.561   3.799   6.896 -1.1009 -0.1529  0.1357
   28MOL   C21510529   1.628   3.673   6.850 -1.1334  1.0189  0.0123
   28MOL   C21610530   1.556   3.618   6.726  0.2754 -0.3153 -0.9232
   28MOL   O21710531   1.420   3.941   7.126  0.6304  0.0806  0.2757
   28MOL   H21810532   1.152   3.808   6.988 -0.4685  0.4555 -0.3509
   28MOL   H21910533   1.179   3.902   7.142  0.0565 -1.2796 -0.0097
   28MOL   H22010534   1.383   3.967   6.932  0.4413 -0.2235  0.0877
   28MOL   H22110535   1.430   3.692   7.034 -0.7751 -0.5559 -1.1859
   28MOL   H22210536   1.357   3.726   6.882 -1.2335 -0.1281  0.4311
   28MOL   H22310537   1.554   3.874   6.818 -1.1828  0.6260  0.8833
   28MOL   H22410538   1.621   3.849   6.972  0.9403 -1.9604 -0.2502
   28MOL   H22510539   1.729   3.691   6.815 -1.0109 -0.9113 -0.6905
   28MOL   H22610540   1.640   3.586   6.915 -0.4978  0.2284 -1.1537
   28MOL   H22710541   1.560   3.678   6.635  1.1545 -1.9638 -1.9877
   28MOL   H22810542   1.450   3.602   6.743  0.4133 -1.2860 -0.9706
   28MOL   H22910543   1.598   3.523   6.693 -0.4061 -0.7634 -0.5124
   28MOL   C23010544   1.421   4.083   7.149 -0.4210  0.4358 -0.0580
   28MOL   C23110545   1.512   4.106   7.274  0.2904  1.0109  0.0599
   28MOL   C23210546   1.473   4.231   7.360 -0.7812  0.0306 -0.6656
   28MOL   C23310547   1.513   4.219   7.512 -0.0415 -0.0495 -0.0316
   28MOL   C23410548   1.452   4.313   7.614  0.8221  0.5607 -0.0284
   28MOL   C23510549   1.517   4.279   7.741 -0.1502  0.8430  0.7342
   28MOL   O23610550   1.647   4.123   7.234 -0.2843  0.2127  0.4184
   28MOL   H23710551   1.457   4.143   7.065  2.4681  0.5819  1.2262
   28MOL   H23810552   1.317   4.114   7.161 -0.7496 -1.0102  0.9615
   28MOL   H23910553   1.500   4.023   7.344  1.8122  0.5365 -0.2228
   28MOL   H24010554   1.364   4.241   7.361 -0.7217  0.8518  2.0382
   28MOL   H24110555   1.508   4.320   7.308 -0.6555  0.7573  0.6476
   28MOL   H24210556   1.621   4.228   7.496  0.0681 -2.0287 -0.5648
   28MOL   H24310557   1.501   4.120   7.556 -1.3042  0.3441  0.5015
   28MOL   H24410558   1.462   4.421   7.603 -0.1212  0.6039 -0.5767
   28MOL   H24510559   1.345   4.299   7.630  1.0129 -1.3152 -0.2990
   28MOL   H24610560   1.481   4.338   0.039 -1.2612  0.7574  0.3255
   28MOL   H24710561   1.626   4.284   7.736 -0.0134 -1.4331  0.7961
   28MOL   H24810562   1.488   4.178   7.768 -0.7300  1.4834  2.5538
   28MOL   C24910563   1.705   4.010   7.174 -0.4730 -0.0948 -0.4274
   28MOL   C25010564   1.862   4.028   7.190 -0.0423 -0.2762 -0.6227
   28MOL   C25110565   1.949   3.969   7.084 -0.0766 -0.8099  0.5632
   28MOL   C25210566   1.938   3.822   7.059 -0.3325  0.0517  0.2088
   28MOL   C25310567   2.051   3.756   6.973 -0.2304  0.1195 -0.2386
   28MOL   C25410568   2.046   3.604   6.962  0.3162 -0.3477 -0.5257
   28MOL   O25510569   1.909   3.976   7.320 -0.3812  0.1356 -0.4213
   28MOL   H25610570   1.671   3.916   7.218  0.6034 -0.1945  0.2165
   28MOL   H25710571   1.673   4.021   7.071 -1.3877 -0.2692 -0.1699
   28MOL   H25810572   1.892   4.133   7.183 -2.1906  0.4480  0.6281
   28MOL   H25910573   1.935   4.022   6.990  2.6272 -2.1691 -0.6671
   28MOL   H26010574   2.050   3.997   7.115  0.6745 -0.4408 -2.1266
   28MOL   H26110575   1.926   3.764   7.150  0.6430  1.3795  1.2081
   28MOL   H26210576   1.842   3.796   7.015  0.5115 -3.0612  0.1024
   28MOL   H26310577   2.040   3.791   6.870  0.4466 -0.9130 -0.6674
   28MOL   H26410578   2.148   3.794   7.007  0.2537  0.0149 -1.4893
   28MOL   H26510579   2.012   3.549   7.051 -0.9181  1.3087  0.0449
   28MOL   H26610580   2.142   3.559   6.936 -0.8009 -1.7884 -2.2046
   28MOL   H26710581   1.973   3.585   6.884 -1.8643 -0.4552  1.5036
   28MOL   C26810582   1.855   4.036   7.433  0.1259 -1.0785  0.2267
   28MOL   C26910583   1.951   3.997   7.550 -0.0608 -0.3672  0.2458
   28MOL   C27010584   1.899   4.026   7.690 -0.3830  0.0956  0.0567
   28MOL   C27110585   1.816   3.916   7.745  0.9146  0.4828  0.0446
   28MOL   C27210586   1.769   3.948   0.101 -0.7228 -0.0316  0.0796
   28MOL   C27310587   1.704   3.829   0.166  0.2506 -0.1157  0.3037
   28MOL   O27410588   2.072   4.068   7.534  0.6261  0.0414  0.2643
   28MOL   H27510589   1.754   3.996   7.443 -0.8904  1.5073  0.7695
   28MOL   H27610590   1.844   4.144   7.428 -0.4421 -1.1460 -0.0453
   28MOL   H27710591   1.968   3.890   7.544 -1.0234 -0.4844 -0.4480
   28MOL   H27810592   1.988   4.035   7.752  0.3904 -1.1233 -0.8496
   28MOL   H27910593   1.855   4.126   7.698 -1.3106 -0.3713  0.8850
   28MOL   H28010594   1.729   3.894   7.683  1.8867  0.6046 -1.3901
   28MOL   H28110595   1.885   3.833   7.752  1.0251  0.6599  1.1003
   28MOL   H28210596   1.856   3.982   0.156 -2.4960  1.6727  1.9432
   28MOL   H28310597   1.699   4.032   0.096  1.7756  2.0758 -0.6194
   28MOL   H28410598   1.626   3.795   0.098  1.1180  1.0083 -1.3099
   28MOL   H28510599   1.775   3.749   0.185 -1.6446 -2.3909 -1.8784
   28MOL   H28610600   1.662   3.852   0.263 -1.4787  0.6599 -0.6164
   28MOL   C28710601   2.178   3.985   7.489 -0.0527  0.3408 -0.2159
   28MOL   C28810602   2.317   4.061   7.503  0.3497  0.4731  0.6460
   28MOL   C28910603   2.322   4.139   7.631  0.3382 -0.8108  0.5692
   28MOL   C29010604   2.467   4.181   7.664 -0.7312 -0.3894  0.1748
   28MOL   C29110605   2.476   4.269   0.007  0.0097  0.0715  0.2276
   28MOL   C29210606   2.379   4.384   0.019 -0.8117  0.3416 -0.0382
   28MOL   O29310607   2.348   4.136   7.382  0.1318  0.1234  0.1384
   28MOL   H29410608   2.164   3.952   7.386  0.5479 -1.3867  0.2397
   28MOL   H29510609   2.196   3.905   7.561  1.3313  0.8198 -0.0033
   28MOL   H29610610   2.394   3.984   7.514 -0.2837  0.0734  2.6746
   28MOL   H29710611   2.258   4.227   7.624 -0.2493 -1.0572  2.5856
   28MOL   H29810612   2.289   4.067   7.705 -0.1237 -0.1855  0.9681
   28MOL   H29910613   2.526   4.090   7.674 -1.3815 -0.6389  1.9424
   28MOL   H30010614   2.520   4.227   7.581 -0.4084  0.5483  0.8887
   28MOL   H30110615   2.580   4.303   0.002  0.9307 -2.8378 -2.4261
   28MOL   H30210616   2.455   4.206   0.093  1.6619 -0.6231  0.1375
   28MOL   H30310617   2.383   4.440   0.112  0.9756  1.3314 -0.6730
   28MOL   H30410618   2.399   4.461   7.729  1.1871 -0.7745 -0.6933
   28MOL   H30510619   2.276   4.350   0.015 -0.5738 -0.8305  2.8012
   28MOL   C30610620   2.245   4.227   7.337 -0.1156 -0.1988  0.0127
   28MOL   C30710621   2.309   4.290   7.210  0.2565  0.7129 -0.2011
   28MOL   C30810622   2.226   4.398   7.144 -0.1960  0.0191  0.5883
   28MOL   C30910623   2.081   4.353   7.101 -0.8986  0.0979  0.0231
   28MOL   C31010624   2.019   4.438   6.989  0.1500 -0.3387  0.1729
   28MOL   C31110625   1.896   4.362   6.932  0.2041 -0.0547  0.3636
   28MOL   O31210626   2.324   4.184   7.108 -0.6530  0.3002 -0.6622
   28MOL   H31310627   2.153   4.179   7.305  0.5466 -0.4551 -1.5793
   28MOL   H31410628   2.195   4.287   7.413  1.4851  0.2822  0.7078
   28MOL   H31510629   2.413   4.317   7.227  1.0289 -0.8743 -2.1154
   28MOL   H31610630   2.285   4.429   7.058  1.2725  1.9048  2.2219
   28MOL   H31710631   2.218   4.497   7.188 -0.9059  0.3032 -0.1705
   28MOL   H31810632   2.103   4.250   7.071  1.8563  1.2819 -2.2191
   28MOL   H31910633   2.017   4.344   7.189 -0.5756 -1.6045  0.1065
   28MOL   H32010634   2.089   4.466   6.911 -1.1086  2.6077  0.0421
   28MOL   H32110635   1.984   4.532   7.033  1.6596 -0.8291  2.5428
   28MOL   H32210636   1.950   4.274   6.898  2.8078  0.9651  1.7582
   28MOL   H32310637   1.828   4.325   7.009 -0.6841  1.5080  0.3495
   28MOL   H32410638   1.851   4.416   6.849  0.5553 -0.0584  0.1708
   28MOL   C32510639   2.458   4.157   7.074  0.2636 -0.2470  0.5772
   28MOL   C32610640   2.465   4.033   6.981 -0.7586  0.3214  0.4206
   28MOL   C32710641   2.592   3.945   6.991  0.3081 -0.5029  0.1287
   28MOL   C32810642   2.707   4.003   6.911  0.1961  0.1466  0.4671
   28MOL   C32910643   2.842   3.923   6.916 -0.3581 -0.0490  0.7407
   28MOL   C33010644   2.823   3.799   6.816  0.2790 -0.0676 -0.0313
   28MOL   O33110645   2.437   4.070   6.846 -0.5117  0.3263 -0.0117
   28MOL   H33210646   2.513   4.133   7.165  0.1723 -0.9714  0.4504
   28MOL   H33310647   2.496   4.239   7.013 -2.3526 -0.3656 -1.3036
   28MOL   H33410648   2.385   3.964   7.009  0.2572 -1.4712 -0.9153
   28MOL   H33510649   2.607   3.925   7.097  0.3116  0.3389  0.2923
   28MOL   H33610650   2.562   3.846   6.956 -0.3380  0.1989 -1.3729
   28MOL   H33710651   2.676   4.028   6.809 -0.4882  1.6706  1.0415
   28MOL   H33810652   2.726   4.096   6.964  0.3720  1.3011 -1.5855
   28MOL   H33910653   2.917   3.993   6.877  0.7608 -0.7530  1.6163
   28MOL   H34010654   2.876   3.895   7.015  0.3730 -2.1032 -0.0802
   28MOL   H34110655   2.910   3.733   6.817  2.4089  2.5774 -1.7727
   28MOL   H34210656   2.733   3.744   6.844 -1.2314  2.7492  0.8341
   28MOL   H34310657   2.811   3.827   6.712  0.6766 -0.9640 -0.3228
   28MOL   C34410658   2.303   4.115   6.818  0.3817  0.9794 -0.1332
   28MOL   C34510659   2.263   4.126   6.671  0.1312 -0.8796 -0.4651
   28MOL   C34610660   2.112   4.140   6.655 -0.2815  0.1688  0.5286
   28MOL   C34710661   2.063   4.152   6.508 -0.0670  0.2399 -0.8153
   28MOL   C34810662   1.914   4.189   6.497  0.5706 -0.2492 -0.0900
   28MOL   C34910663   1.882   4.337   6.534 -0.3884 -0.1180 -0.0370
   28MOL   O35010664   2.313   4.248   6.610  0.2391  0.3228 -0.2177
   28MOL   H35110665   2.304   4.220   6.848  0.3341  0.9552 -0.0449
   28MOL   H35210666   2.228   4.057   6.872 -0.8066  2.3545 -0.2828
   28MOL   H35310667   2.294   4.034   6.621 -0.2705 -1.7721  0.9170
   28MOL   H35410668   2.080   4.218   6.725 -0.4168  0.8607 -0.2983
   28MOL   H35510669   2.060   4.059   6.707  1.3110 -1.4406 -0.3373
   28MOL   H35610670   2.090   4.057   6.461 -0.0526  0.3456 -1.0172
   28MOL   H35710671   2.132   4.220   6.459  0.9023 -0.6912 -0.7622
   28MOL   H35810672   1.854   4.117   6.554 -1.1804  1.0942 -0.1940
   28MOL   H35910673   1.883   4.175   6.394  1.5885 -1.6042 -0.2247
   28MOL   H36010674   1.899   4.353   6.640  2.8454 -1.4846 -0.2788
   28MOL   H36110675   1.782   4.364   6.499  0.2741 -1.2719 -3.0358
   28MOL   H36210676   1.945   4.407   6.479  0.0952  0.7111  1.5739
   28MOL   C36310677   2.415   4.243   6.506 -0.2035  0.3544 -0.3925
   28MOL   C36410678   2.562   4.262   6.550  0.4374  0.3324  0.0932
   28MOL   C36510679   2.584   4.391   6.643 -0.5685  0.4305  0.7216
   28MOL   C36610680   2.721   4.386   6.720  0.3381 -0.1413 -0.8505
   28MOL   C36710681   2.702   4.475   6.850 -0.5830  0.4883  0.1687
   28MOL   C36810682   2.829   4.497   6.920 -0.6493  0.1371  0.0807
   28MOL   O36910683   2.619   4.145   6.599 -0.0008  0.3207 -0.4778
   28MOL   H37010684   2.395   4.327   6.440  0.4889  1.1631  0.4008
   28MOL   H37110685   2.395   4.161   6.438 -0.0985 -0.7084  0.8388
   28MOL   H37210686   2.618   4.275   6.458 -1.1272 -0.3642 -0.9947
   28MOL   H37310687   2.573   4.476   6.576 -0.6643 -0.0006  0.1848
   28MOL   H37410688   2.502   4.402   6.715 -1.5799  0.9869 -0.5063
   28MOL   H37510689   2.733   4.284   6.757  1.2645  0.0749 -0.5282
   28MOL   H37610690   2.805   4.422   6.660  0.2599 -0.3078 -1.0646
   28MOL   H37710691   2.670   4.576   6.824  2.1335  1.4239  0.3636
   28MOL   H37810692   2.634   4.431   6.924 -0.4912  1.0527  0.5886
   28MOL   H37910693   2.863   4.403   6.964 -0.7315  0.1353  0.1416
   28MOL   H38010694   2.901   4.526   6.844 -2.1624  0.5675 -1.2275
   28MOL   H38110695   2.820   4.567   7.003 -0.7760 -1.4141  1.3837
   28MOL   H38210696   2.590   4.119   6.685  0.7760  1.1998  0.0519
   29MOL     C110697   1.478   4.906   0.074 -0.8320  0.1350  0.1820
   29MOL     C210698   1.534   4.771   0.018 -0.5753 -0.2361  0.3791
   29MOL     C310699   1.564   4.673   0.122  0.2646  0.3422 -0.5414
   29MOL     C410700   1.674   4.562   0.102  0.3096  0.4504  0.0880
   29MOL     C510701   1.683   4.468   0.226  0.9172 -0.5373  0.9165
   29MOL     C610702   1.786   4.358   0.217 -0.4612 -0.0988  0.0955
   29MOL     O710703   1.432   4.718   7.720  0.0654  0.0776 -0.0389
   29MOL     H810704   1.393   4.877   0.135 -1.1204 -2.2503 -1.2872
   29MOL     H910705   1.453   4.965   7.772  0.2062 -0.3145 -0.4371
   29MOL    H1010706   1.629   4.796   7.757 -1.4572  1.2945 -0.6205
   29MOL    H1110707   1.599   4.730   0.208 -2.6624 -1.5251  1.9912
   29MOL    H1210708   1.473   4.618   0.146 -0.1552  1.5550  0.7251
   29MOL    H1310709   1.651   4.500   0.015 -0.5466  1.2881 -0.2860
   29MOL    H1410710   1.775   4.603   0.093  0.9543 -1.1380 -0.2521
   29MOL    H1510711   1.676   4.513   0.325  1.9357  0.9962  0.3060
   29MOL    H1610712   1.583   4.425   0.222  0.8058 -0.3011  1.1567
   29MOL    H1710713   1.885   4.403   0.223 -0.7862  0.5568  0.6172
   29MOL    H1810714   1.767   4.287   0.297  0.3993 -0.6707 -0.2073
   29MOL    H1910715   1.783   4.307   0.120  0.9733 -3.9272  1.9565
   29MOL    H2010716   1.548   4.968   0.130  0.7567 -0.5399 -1.0126
   29MOL    C2110717   1.465   4.691   7.585  0.1845 -0.2042  0.0812
   29MOL    C2210718   1.465   4.813   7.488  0.6633  0.4079 -0.2071
   29MOL    C2310719   1.564   4.799   7.363 -0.1867  0.5762  0.2885
   29MOL    C2410720   1.537   4.681   7.273 -0.1315  0.7784 -0.8580
   29MOL    C2510721   1.643   4.676   7.158  0.2500  0.1909 -0.3978
   29MOL    C2610722   1.591   4.590   7.041  0.6647  0.1030 -0.1898
   29MOL    O2710723   1.339   4.856   7.439 -0.1165  0.1495  0.1511
   29MOL    H2810724   1.566   4.650   7.576 -0.1982 -1.1019 -0.1755
   29MOL    H2910725   1.391   4.623   7.542  0.1499  0.4522 -0.9136
   29MOL    H3010726   1.513   4.895   7.542  0.7281  1.0320 -1.2071
   29MOL    H3110727   1.667   4.792   7.398 -0.7095  0.0482  1.7690
   29MOL    H3210728   1.568   4.891   7.305  0.2655  0.5801  0.3233
   29MOL    H3310729   1.436   4.698   7.236 -1.1698 -0.4491  1.3614
   29MOL    H3410730   1.537   4.591   7.334  0.1064  2.5922  1.8809
   29MOL    H3510731   1.675   4.771   7.117  2.7740  0.4477  2.0188
   29MOL    H3610732   1.738   4.639   7.196  0.6203  3.4999  2.0886
   29MOL    H3710733   1.499   4.632   7.001  0.3933  1.1039  1.4580
   29MOL    H3810734   1.579   4.487   7.074 -0.7795 -0.6435 -2.9051
   29MOL    H3910735   1.670   4.597   6.967  0.4431 -0.0253 -0.4374
   29MOL    C4010736   1.253   4.907   7.539 -0.3918  0.0522  0.6505
   29MOL    C4110737   1.114   4.900   7.460  0.6180  0.2076 -0.4321
   29MOL    C4210738   1.032   5.024   7.483 -0.0278 -0.6632 -0.1781
   29MOL    C4310739   0.988   5.049   7.628  0.4941 -0.2047 -0.2275
   29MOL    C4410740   0.886   5.163   7.636  0.2759 -0.2437  1.2768
   29MOL    C4510741   0.820   5.189   7.768  0.3251  0.2952 -0.1832
   29MOL    O4610742   1.032   4.791   7.507 -0.1541 -0.4358 -0.1633
   29MOL    H4710743   1.298   5.002   7.567  3.5436 -1.7666  0.8545
   29MOL    H4810744   1.268   4.848   7.629 -0.8476 -1.9073 -0.5259
   29MOL    H4910745   1.137   4.886   7.354  0.2655  0.7950 -0.5904
   29MOL    H5010746   1.073   5.116   7.441 -1.0489 -0.8071 -1.5385
   29MOL    H5110747   0.937   5.004   7.434 -0.1134 -1.8204  0.4568
   29MOL    H5210748   1.071   5.046   7.698  2.9053 -2.2265 -3.0486
   29MOL    H5310749   0.934   4.965   7.672  1.7452 -1.3918 -0.9476
   29MOL    H5410750   0.936   5.255   7.604  0.4973  0.1102  2.5915
   29MOL    H5510751   0.808   5.148   7.562  0.9468  1.1067  0.2788
   29MOL    H5610752   0.765   5.105   0.025  0.6318  0.4539  0.5391
   29MOL    H5710753   0.892   5.205   0.063 -1.4006  0.0011  1.4837
   29MOL    H5810754   0.746   5.268   7.775  1.2563  0.9620  3.0309
   29MOL    C5910755   1.084   4.661   7.486  0.0938 -0.7921  0.4329
   29MOL    C6010756   0.967   4.561   7.507  0.3743 -0.0393 -0.6016
   29MOL    C6110757   0.987   4.425   7.444 -0.0340  0.0580  0.3530
   29MOL    C6210758   0.858   4.352   7.414  0.1503  0.2891 -0.9162
   29MOL    C6310759   0.855   4.232   7.318 -1.1375  0.0466 -0.0680
   29MOL    C6410760   0.714   4.163   7.300 -0.3986  0.1154 -0.2242
   29MOL    O6510761   0.948   4.535   7.644  0.0635 -1.2462 -0.4634
   29MOL    H6610762   1.172   4.643   7.547  0.6672  3.7894  1.1391
   29MOL    H6710763   1.117   4.669   7.382  0.9373  0.1569  0.7744
   29MOL    H6810764   0.885   4.619   7.465 -0.1042 -0.3302 -0.0852
   29MOL    H6910765   1.052   4.357   7.499 -1.0812 -2.2005 -1.1220
   29MOL    H7010766   1.021   4.447   7.343 -0.7242  1.8530  0.4959
   29MOL    H7110767   0.800   4.433   7.368  0.9696  1.8053  0.6286
   29MOL    H7210768   0.806   4.318   7.503 -1.5068 -0.3401 -2.0814
   29MOL    H7310769   0.934   4.163   7.348  0.8137  2.5952  0.8607
   29MOL    H7410770   0.885   4.262   7.217  0.5879  0.7131  0.6230
   29MOL    H7510771   0.645   4.241   7.269 -0.7842  0.1060  0.6144
   29MOL    H7610772   0.731   4.082   7.228  0.3181 -0.7756  0.9300
   29MOL    H7710773   0.687   4.129   7.400 -1.1739  1.6924  0.1125
   29MOL    C7810774   0.901   4.653   7.720  1.0393  0.4545 -0.2941
   29MOL    C7910775   0.889   4.622   0.088 -0.4611  0.7033 -0.3568
   29MOL    C8010776   0.744   4.649   0.141  0.4115 -0.0271  0.6805
   29MOL    C8110777   0.720   4.596   0.279  0.4792  0.1573 -0.1428
   29MOL    C8210778   0.580   4.622   0.338  0.0024  0.0366 -0.2857
   29MOL    C8310779   0.598   4.614   0.496 -0.2335  0.9878  0.1939
   29MOL    O8410780   1.000   4.684   0.158 -0.2412 -0.5869 -0.0063
   29MOL    H8510781   0.823   4.712   7.672 -2.3540 -1.4933  2.5352
   29MOL    H8610782   0.987   4.720   7.717  1.2691  0.1111 -1.7925
   29MOL    H8710783   0.912   4.516   0.097  0.8529  1.1706  2.2393
   29MOL    H8810784   0.730   4.757   0.135 -0.4277 -0.1069  1.1628
   29MOL    H8910785   0.672   4.604   0.073 -0.0776  1.4685  0.1974
   29MOL    H9010786   0.797   4.647   0.337 -0.4000  0.8414  0.4306
   29MOL    H9110787   0.738   4.488   0.274  0.7255  0.1546  0.8290
   29MOL    H9210788   0.548   4.725   0.323  0.9107  0.4658  0.6893
   29MOL    H9310789   0.498   4.563   0.295  0.7332 -1.6975  0.6442
   29MOL    H9410790   0.594   4.510   0.530  1.4516  1.1340  0.8830
   29MOL    H9510791   0.509   4.664   0.534 -1.4472 -0.5603 -0.5603
   29MOL    H9610792   0.687   4.666   0.531  0.9688 -0.7980 -0.1636
   29MOL    C9710793   1.128   4.620   0.161  0.0631 -1.0174 -0.6637
   29MOL    C9810794   1.150   4.519   0.274 -0.4819  0.4440 -0.6957
   29MOL    C9910795   1.262   4.409   0.245 -0.1290 -0.5606  1.1481
   29MOL   C10010796   1.276   4.304   0.352  0.7088 -0.1180  0.2612
   29MOL   C10110797   1.392   4.199   0.340 -0.1300  0.5591 -0.0626
   29MOL   C10210798   1.384   4.101   0.458 -0.3804  0.3251 -0.5434
   29MOL   O10310799   1.201   4.584   0.393 -0.7367 -0.5631 -0.6155
   29MOL   H10410800   1.196   4.704   0.173  0.0460 -0.8727 -1.5626
   29MOL   H10510801   1.149   4.573   0.065 -0.7180 -1.6831 -0.5181
   29MOL   H10610802   1.058   4.468   0.301  1.5090 -1.4708  2.9512
   29MOL   H10710803   1.358   4.461   0.252 -1.3393  1.5850  2.3508
   29MOL   H10810804   1.262   4.368   0.144  0.2866 -0.9448  1.3014
   29MOL   H10910805   1.186   4.243   0.356 -0.1583  1.1598  0.3600
   29MOL   H11010806   1.286   4.347   0.452  1.2610  2.5322 -0.9120
   29MOL   H11110807   1.494   4.237   0.331 -0.4191  1.6157  1.0491
   29MOL   H11210808   1.388   4.135   0.252  2.1077  0.5346 -0.1652
   29MOL   H11310809   1.377   4.164   0.546 -0.3693  1.4906 -1.3632
   29MOL   H11410810   1.300   4.032   0.444  0.3026 -0.5864 -0.1358
   29MOL   H11510811   1.474   4.042   0.474 -0.2529  1.0936  1.6825
   29MOL   C11610812   1.103   4.635   0.487 -0.4894  0.2550  0.4314
   29MOL   C11710813   1.173   4.754   0.570 -0.1979  0.1241 -0.2938
   29MOL   C11810814   1.234   4.854   0.474 -0.0728 -0.1968  0.1532
   29MOL   C11910815   1.281   4.983   0.539 -0.1820  0.2428 -0.6029
   29MOL   C12010816   1.327   5.073   0.425  0.5929  0.1963 -0.5440
   29MOL   C12110817   1.440   5.162   0.459  0.0100  0.1622 -0.3774
   29MOL   O12210818   1.275   4.703   0.654  0.1345 -0.3999  0.4864
   29MOL   H12310819   1.036   4.688   0.420  1.3356  0.7823 -1.0236
   29MOL   H12410820   1.054   4.559   0.548 -1.4421 -0.8815 -1.7211
   29MOL   H12510821   1.100   4.800   0.636  2.1280  0.7885  1.8946
   29MOL   H12610822   1.316   4.809   0.418  1.3460  1.9704  0.4377
   29MOL   H12710823   1.156   4.879   0.402 -1.6119 -0.5709  1.6507
   29MOL   H12810824   1.364   4.951   0.603 -1.2548  0.7129  1.0601
   29MOL   H12910825   1.207   5.032   0.602  1.0552 -0.2568  1.2730
   29MOL   H13010826   1.359   5.008   0.343 -0.5162 -1.0566 -0.0045
   29MOL   H13110827   1.248   5.139   0.389 -1.6245 -0.6179  2.6519
   29MOL   H13210828   1.444   5.245   0.390  2.1253 -0.2871 -0.8061
   29MOL   H13310829   1.412   5.209   0.554  1.7767  1.0784 -0.3031
   29MOL   H13410830   1.537   5.113   0.454  0.0511  0.2090 -0.0641
   29MOL   C13510831   1.232   4.618   0.759  0.0059 -0.5678 -0.3441
   29MOL   C13610832   1.332   4.596   0.877  0.7927 -0.1533  0.2969
   29MOL   C13710833   1.328   4.717   0.974 -0.6747  0.1553  0.7163
   29MOL   C13810834   1.435   4.717   1.078 -0.4671 -0.1417 -0.8208
   29MOL   C13910835   1.403   4.659   1.210 -0.6231  0.0292 -0.5643
   29MOL   C14010836   1.521   4.645   1.305  1.2158  0.0081 -0.0733
   29MOL   O14110837   1.456   4.543   0.846  0.1959 -0.7235 -0.0757
   29MOL   H14210838   1.143   4.665   0.801  1.1298  1.8879 -0.5978
   29MOL   H14310839   1.197   4.524   0.716 -0.0886  0.7148 -3.2208
   29MOL   H14410840   1.286   4.521   0.941  0.7775 -0.5062 -0.1285
   29MOL   H14510841   1.344   4.812   0.922 -1.3921  0.2483  0.6661
   29MOL   H14610842   1.226   4.734   1.006 -0.3002  2.2782  0.8976
   29MOL   H14710843   1.459   4.821   1.099  0.3461 -0.5719  0.4217
   29MOL   H14810844   1.527   4.676   1.037  0.1605 -0.3391  0.7238
   29MOL   H14910845   1.359   4.560   1.197 -0.6285  0.3861 -3.6911
   29MOL   H15010846   1.331   4.722   1.263 -0.6117  0.4552 -1.0428
   29MOL   H15110847   1.485   4.618   1.404 -1.0181 -1.2527 -1.1921
   29MOL   H15210848   1.593   4.575   1.262  1.0413 -0.3144  0.1544
   29MOL   H15310849   1.572   4.740   1.322 -1.0208  0.9216  1.7831
   29MOL   C15410850   1.460   4.438   0.751  0.2859 -0.1433  0.4525
   29MOL   C15510851   1.611   4.413   0.714 -0.6916 -0.7272 -0.2146
   29MOL   C15610852   1.630   4.282   0.640  0.0558  0.2240  0.2309
   29MOL   C15710853   1.778   4.258   0.610 -0.6685  0.3321 -0.1377
   29MOL   C15810854   1.814   4.107   0.584  0.3868  0.3065  0.5754
   29MOL   C15910855   1.772   4.062   0.448 -0.3384 -0.0277  0.0030
   29MOL   O16010856   1.658   4.512   0.621  0.3540 -0.4623  0.3126
   29MOL   H16110857   1.404   4.446   0.659  0.4350  2.0554  0.5309
   29MOL   H16210858   1.416   4.347   0.794 -1.2381  1.1441  1.6897
   29MOL   H16310859   1.681   4.407   0.798 -1.4576 -2.1929  0.3402
   29MOL   H16410860   1.579   4.303   0.547  2.3042  0.3922 -0.9912
   29MOL   H16510861   1.596   4.198   0.701  3.0056 -2.4849 -1.6983
   29MOL   H16610862   1.830   4.279   0.703 -1.1378 -2.3838  0.7609
   29MOL   H16710863   1.808   4.325   0.529 -1.3886  2.0024  0.9412
   29MOL   H16810864   1.921   4.085   0.578  0.6013  1.8143 -1.6649
   29MOL   H16910865   1.759   4.054   0.662  1.1813 -2.0295 -0.4162
   29MOL   H17010866   1.675   4.085   0.405 -1.0227 -0.6804  1.1734
   29MOL   H17110867   1.791   3.955   0.450  1.2766  0.2605  2.1954
   29MOL   H17210868   1.840   4.104   0.373 -0.1969 -2.7547 -1.4518
   29MOL   C17310869   1.681   4.647   0.663  0.5603 -1.2743 -0.0132
   29MOL   C17410870   1.769   4.727   0.574 -0.3978 -0.0936 -0.3623
   29MOL   C17510871   1.745   4.872   0.601 -0.8588  0.0440 -0.3307
   29MOL   C17610872   1.814   4.968   0.507 -0.3757 -0.3558 -0.6735
   29MOL   C17710873   1.761   4.944   0.358 -0.1929  0.7698 -0.4534
   29MOL   C17810874   1.812   5.042   0.251  0.9911 -0.0232 -0.0577
   29MOL   O17910875   1.903   4.711   0.609 -0.0330  0.3525 -0.3094
   29MOL   H18010876   1.726   4.662   0.762  1.0408  1.4846 -0.6069
   29MOL   H18110877   1.580   4.688   0.665  1.8698  2.1386 -0.4997
   29MOL   H18210878   1.753   4.716   0.466 -0.1965 -0.6318 -0.3407
   29MOL   H18310879   1.638   4.881   0.584 -0.6647 -2.0330 -2.9885
   29MOL   H18410880   1.771   4.893   0.704 -2.2387 -3.4403  0.7829
   29MOL   H18510881   1.798   5.068   0.546 -0.2730 -0.1760 -1.0830
   29MOL   H18610882   1.922   4.956   0.515 -0.2109 -0.3031 -2.4538
   29MOL   H18710883   1.787   4.844   0.324  0.4885  1.0318 -0.7198
   29MOL   H18810884   1.653   4.948   0.346 -0.1928  0.1724 -0.6355
   29MOL   H18910885   1.753   5.133   0.255 -1.0604 -1.2610 -1.0398
   29MOL   H19010886   1.796   4.997   0.153 -1.4131 -0.3873  0.4650
   29MOL   H19110887   1.913   5.078   0.271  0.7727  0.4534  0.1801
   29MOL   C19210888   1.969   4.596   0.554 -0.0566 -0.5396 -0.0992
   29MOL   C19310889   2.117   4.585   0.578 -0.1147 -0.0618  0.1616
   29MOL   C19410890   2.159   4.620   0.719  0.1644  0.4972 -0.1936
   29MOL   C19510891   2.091   4.534   0.825 -0.0238 -0.2009  0.3686
   29MOL   C19610892   2.111   4.594   0.966 -0.3297 -0.0055 -0.3894
   29MOL   C19710893   2.246   4.552   1.025 -0.4561  0.1952 -0.2479
   29MOL   O19810894   2.208   4.644   0.474 -0.5753  0.2819  0.1561
   29MOL   H19910895   1.926   4.515   0.612  0.5815 -2.2858 -2.0073
   29MOL   H20010896   1.947   4.583   0.448  0.2622 -2.9870  0.1077
   29MOL   H20110897   2.133   4.478   0.562 -3.3007 -0.5745  0.2219
   29MOL   H20210898   2.266   4.626   0.737  0.1864 -0.0114 -0.1416
   29MOL   H20310899   2.113   4.717   0.735  0.5221  0.3818  1.6063
   29MOL   H20410900   2.120   4.429   0.833 -1.1585 -0.4838  1.0065
   29MOL   H20510901   1.984   4.538   0.803  0.2183 -2.2862 -1.3857
   29MOL   H20610902   2.104   4.702   0.974  1.5811 -0.0430  2.8954
   29MOL   H20710903   2.039   4.555   1.038  1.5456 -1.5397  0.7266
   29MOL   H20810904   2.252   4.443   1.023  3.0702  0.3537 -1.4542
   29MOL   H20910905   2.329   4.587   0.963  0.1424 -0.8172 -0.0257
   29MOL   H21010906   2.267   4.590   1.124 -3.5821 -0.0782  0.5638
   29MOL   C21110907   2.203   4.787   0.461  0.0750 -0.6563 -0.1941
   29MOL   C21210908   2.274   4.843   0.326  0.0362 -0.3590 -0.0440
   29MOL   C21310909   2.309   4.995   0.333  0.3735 -1.3785 -0.2479
   29MOL   C21410910   2.364   5.057   0.207  0.3942 -0.0481  0.9182
   29MOL   C21510911   2.409   5.201   0.233  0.6686  0.1342  0.4082
   29MOL   C21610912   2.500   5.265   0.142 -0.4106 -0.0916 -0.0034
   29MOL   O21710913   2.190   4.839   0.213 -0.4256  0.4215  0.1362
   29MOL   H21810914   2.249   4.838   0.546  0.4788 -0.4552 -0.5313
   29MOL   H21910915   2.101   4.825   0.463  0.3579  0.1157 -0.2343
   29MOL   H22010916   2.369   4.791   0.315 -0.0320 -0.7680  1.2258
   29MOL   H22110917   2.220   5.049   0.367  0.8348 -0.6360 -0.2064
   29MOL   H22210918   2.388   5.014   0.405 -1.4498 -0.1183  1.4864
   29MOL   H22310919   2.452   5.002   0.174  0.4436 -0.4340  1.6832
   29MOL   H22410920   2.295   5.039   0.125 -2.0397 -2.2605  3.3226
   29MOL   H22510921   2.319   5.262   0.234  0.6094  0.2363 -3.4431
   29MOL   H22610922   2.458   5.213   0.329  2.2665 -1.8922 -0.1313
   29MOL   H22710923   2.540   5.356   0.187  0.1616  1.3106 -3.2159
   29MOL   H22810924   2.454   5.284   0.045 -0.7332  0.8377  0.3243
   29MOL   H22910925   2.594   5.213   0.128  0.1132  0.5806  0.9365
   29MOL   C23010926   2.155   4.712   0.170  0.5452 -0.4148  0.2384
   29MOL   C23110927   2.113   4.709   0.027  1.2965 -0.0099 -0.0743
   29MOL   C23210928   2.055   4.575   7.766  0.2231  0.1418 -0.3451
   29MOL   C23310929   1.992   4.587   7.631  0.1191 -0.1350  0.1461
   29MOL   C23410930   1.949   4.452   7.571 -0.4889 -0.5010  0.3345
   29MOL   C23510931   1.883   4.453   7.432 -0.2270 -0.1834 -0.6027
   29MOL   O23610932   2.218   4.748   7.724  0.4937  0.2165  0.0165
   29MOL   H23710933   2.245   4.651   0.182  0.2046 -0.4178  3.2637
   29MOL   H23810934   2.076   4.682   0.239  2.0528  0.1100  2.2609
   29MOL   H23910935   2.034   4.784   0.020  2.1572  1.1220  1.9742
   29MOL   H24010936   1.986   4.547   0.061 -0.9993 -3.7621 -2.6129
   29MOL   H24110937   2.139   4.506   7.768  0.6315  0.6493  0.4585
   29MOL   H24210938   2.053   4.642   7.559 -2.5283  3.2642  0.4090
   29MOL   H24310939   1.904   4.650   7.641  0.8249  1.1457 -1.4954
   29MOL   H24410940   2.038   4.390   7.567  0.3197  0.6264  0.5010
   29MOL   H24510941   1.885   4.400   7.642 -0.1608 -0.0002  1.0038
   29MOL   H24610942   1.798   4.521   7.440 -0.1815 -0.3715  1.7976
   29MOL   H24710943   1.835   4.359   7.406 -1.6735 -0.0377  1.4380
   29MOL   H24810944   1.946   4.482   7.347 -1.5636 -0.1232 -1.5858
   29MOL   C24910945   2.191   4.871   7.661 -0.1510 -0.4820  0.6067
   29MOL   C25010946   2.328   4.888   7.592  0.4168 -0.1825 -0.2640
   29MOL   C25110947   2.334   5.033   7.523 -0.2044 -0.0767 -0.1960
   29MOL   C25210948   2.473   5.073   7.482  0.2515 -0.1188  0.3978
   29MOL   C25310949   2.475   5.173   7.363 -0.3201 -0.1829 -0.1617
   29MOL   C25410950   2.488   5.320   7.411  0.0615 -0.1346  0.4306
   29MOL   O25510951   2.347   4.805   7.483 -0.4663 -0.3324  0.5258
   29MOL   H25610952   2.110   4.885   7.590  0.6957  2.4641  0.1381
   29MOL   H25710953   2.176   4.949   7.735  0.1521  0.2096 -0.0479
   29MOL   H25810954   2.412   4.875   7.661 -1.0031 -0.7556  1.3772
   29MOL   H25910955   2.281   5.017   7.430  0.2749 -0.4969 -0.4035
   29MOL   H26010956   2.282   5.103   7.588 -0.4359 -0.1067 -0.3494
   29MOL   H26110957   2.522   5.119   7.569 -1.3162  2.3369  0.0265
   29MOL   H26210958   2.541   4.991   7.459  0.7519  0.5794 -0.6471
   29MOL   H26310959   2.562   5.156   7.299 -1.8100 -1.3846 -1.9264
   29MOL   H26410960   2.391   5.179   7.294  1.7856  1.6020 -2.7153
   29MOL   H26510961   2.399   5.353   7.464 -0.7732 -1.1535 -0.3255
   29MOL   H26610962   2.517   5.386   7.329 -2.9441  1.0014  0.2311
   29MOL   H26710963   2.569   5.331   7.483  0.2793  1.3247 -0.0089
   29MOL   C26810964   2.409   4.678   7.524  0.3968 -0.0626  0.3942
   29MOL   C26910965   2.490   4.622   7.405  0.2420 -0.3149 -0.7254
   29MOL   C27010966   2.538   4.478   7.433 -0.0442  0.6216  0.4799
   29MOL   C27110967   2.651   4.433   7.342  0.1360  0.7041 -0.9028
   29MOL   C27210968   2.709   4.291   7.361 -0.4043 -0.2770 -0.1254
   29MOL   C27310969   2.796   4.251   7.251  0.8842  0.6184  0.0436
   29MOL   O27410970   2.606   4.705   7.379 -0.3024  0.8666 -0.4791
   29MOL   H27510971   2.331   4.607   7.554  1.6076 -2.2996 -1.6296
   29MOL   H27610972   2.477   4.685   7.609  0.3354  1.4608  0.3219
   29MOL   H27710973   2.408   4.608   7.336 -0.5175 -3.2339  0.6787
   29MOL   H27810974   2.565   4.467   7.538  0.3782 -0.3703  0.2731
   29MOL   H27910975   2.454   4.411   7.422  0.1331  0.7639 -1.9170
   29MOL   H28010976   2.622   4.437   7.237 -0.4295 -1.1145 -0.8292
   29MOL   H28110977   2.738   4.500   7.346  0.9343 -0.3265 -0.8405
   29MOL   H28210978   2.768   4.284   7.452  1.1673  1.3076 -1.0042
   29MOL   H28310979   2.618   4.231   7.368 -1.0994  0.8682  1.0039
   29MOL   H28410980   2.875   4.323   7.232 -0.4193  1.6030 -1.8447
   29MOL   H28510981   2.836   4.152   7.272 -0.0664  0.3964  0.8742
   29MOL   H28610982   2.734   4.239   7.162  0.5076 -1.0273  0.5083
   29MOL   C28710983   2.587   4.783   7.266 -0.2052 -0.2122  0.1248
   29MOL   C28810984   2.717   4.863   7.227  0.9187  0.1488  0.3803
   29MOL   C28910985   2.698   4.942   7.097 -0.0987 -0.5452  0.1080
   29MOL   C29010986   2.804   5.047   7.072  0.3856 -0.2796 -0.0844
   29MOL   C29110987   2.766   5.140   6.959  0.3806 -0.2648  0.1900
   29MOL   C29210988   2.869   5.241   6.927  0.0351  0.3713 -0.3618
   29MOL   O29310989   2.822   4.770   7.188 -0.8364 -0.1259  0.1755
   29MOL   H29410990   2.500   4.848   7.276  1.0618  1.3808  0.9409
   29MOL   H29510991   2.565   4.713   7.185 -0.2817 -0.2130  0.1466
   29MOL   H29610992   2.751   4.923   7.311  1.2995  1.9227 -0.9887
   29MOL   H29710993   2.679   4.878   7.011 -2.8639  2.1997 -1.4462
   29MOL   H29810994   2.604   4.996   7.110  0.4462  0.3488  0.4024
   29MOL   H29910995   2.830   5.113   7.155  4.8256  0.1501 -1.6816
   29MOL   H30010996   2.900   4.998   7.056  0.8058  0.6106 -0.3128
   29MOL   H30110997   2.675   5.196   6.981  1.7118  2.8054 -1.8075
   29MOL   H30210998   2.758   5.076   6.871  0.5408 -0.7134  0.4981
   29MOL   H30310999   2.971   5.202   6.926 -0.2023 -0.2463 -0.4084
   29MOL   H30411000   2.862   5.286   6.827  0.3057 -0.4022 -0.7313
   29MOL   H30511001   2.870   5.322   7.000 -1.5483  0.8338 -0.8341
   29MOL   C30611002   2.915   4.724   7.300 -0.5197 -0.0373 -0.2708
   29MOL   C30711003   3.036   4.639   7.247  0.0413  0.0301 -0.7573
   29MOL   C30811004   3.078   4.530   7.351  0.3385 -0.9806  0.4108
   29MOL   C30911005   3.181   4.430   7.309  0.0851 -0.5629 -0.3054
   29MOL   C31011006   3.228   4.323   7.412  0.5947 -0.0850  0.1351
   29MOL   C31111007   3.114   4.240   7.477 -0.2812  0.0686  0.0663
   29MOL   O31211008   3.158   4.712   7.216  0.5154 -0.2289 -0.7794
   29MOL   H31311009   2.948   4.814   7.350  0.1030 -0.1995 -0.3913
   29MOL   H31411010   2.858   4.660   7.367 -1.3414  0.8055 -0.1656
   29MOL   H31511011   3.010   4.594   7.151  0.7941 -0.5534 -0.6885
   29MOL   H31611012   2.994   4.472   7.391 -0.9245  1.5463  1.5325
   29MOL   H31711013   3.123   4.583   7.435  0.2899  1.4218 -1.0229
   29MOL   H31811014   3.146   4.377   7.221 -2.5234  0.5745 -0.0044
   29MOL   H31911015   3.266   4.486   7.270  0.1331 -0.2631  0.2218
   29MOL   H32011016   3.277   4.376   7.494 -0.4221  0.2939  0.5060
   29MOL   H32111017   3.305   4.266   7.361  0.8142  0.2137  0.1358
   29MOL   H32211018   3.043   4.286   7.546 -2.6262 -1.6570 -1.1143
   29MOL   H32311019   3.053   4.205   7.394  0.9072  0.4038 -0.9606
   29MOL   H32411020   3.156   4.163   7.542 -0.8927  0.9479  1.5508
   29MOL   C32511021   3.144   4.802   7.106 -0.2998  0.2661  0.3764
   29MOL   C32611022   3.276   4.895   7.087 -0.1944 -0.9196 -0.4141
   29MOL   C32711023   3.232   5.038   7.031 -0.4680  0.5343  0.6509
   29MOL   C32811024   3.356   5.109   6.992  0.0891 -0.0839  0.0944
   29MOL   C32911025   3.332   5.251   6.940 -0.0608 -0.0222 -0.3789
   29MOL   C33011026   3.275   5.254   6.798 -0.7880  0.1179  0.6209
   29MOL   O33111027   3.373   4.830   7.004  0.0250 -0.0696  0.2847
   29MOL   H33211028   3.065   4.876   7.121 -2.8050 -1.7140 -2.4849
   29MOL   H33311029   3.115   4.744   7.018  0.4360 -0.1908  0.4308
   29MOL   H33411030   3.325   4.919   7.181  0.4351  1.7945 -1.3955
   29MOL   H33511031   3.173   5.013   6.944 -0.9090  1.6472  0.6180
   29MOL   H33611032   3.171   5.089   7.106 -1.0316 -1.0707  1.3006
   29MOL   H33711033   3.413   5.122   7.084  0.4554  0.6005 -0.2304
   29MOL   H33811034   3.414   5.057   6.915 -2.6844  2.5239 -3.9959
   29MOL   H33911035   3.268   5.306   7.010 -0.6476 -0.1754 -0.7932
   29MOL   H34011036   3.418   5.317   6.935 -0.8721  1.1869  1.0988
   29MOL   H34111037   3.354   5.231   6.727  2.7058  2.2964  3.6141
   29MOL   H34211038   3.183   5.197   6.789 -1.7290  1.7761 -0.4641
   29MOL   H34311039   3.247   5.356   6.775  1.8372  1.0677  1.4296
   29MOL   C34411040   3.439   4.722   7.073 -0.1016  0.0020 -0.7897
   29MOL   C34511041   3.436   4.602   6.982  0.3867 -0.7454 -0.3933
   29MOL   C34611042   3.297   4.558   6.922 -0.5745 -0.1465 -0.1610
   29MOL   C34711043   3.293   4.423   6.850  0.9224 -0.1239  0.9466
   29MOL   C34811044   3.153   4.367   6.815 -0.2262 -0.1232 -0.0563
   29MOL   C34911045   3.145   4.219   6.775 -0.4554 -0.6070  0.0049
   29MOL   O35011046   3.540   4.610   6.879  0.4244 -0.2582 -0.3092
   29MOL   H35111047   3.397   4.690   7.169 -1.2061  1.6336 -0.7151
   29MOL   H35211048   3.546   4.734   7.093 -0.1177 -0.6928 -0.2666
   29MOL   H35311049   3.472   4.518   7.042  0.3878  1.7252  3.1734
   29MOL   H35411050   3.236   4.634   6.871 -2.0858 -0.6063  0.9198
   29MOL   H35511051   3.229   4.536   7.004  0.6694 -1.0185  0.6439
   29MOL   H35611052   3.345   4.346   6.906 -2.3359 -2.9861  0.2463
   29MOL   H35711053   3.359   4.433   6.764 -0.0984  1.0352  0.2791
   29MOL   H35811054   3.115   4.425   6.731 -0.9826 -2.3188 -1.2646
   29MOL   H35911055   3.085   4.388   6.897 -1.6663 -0.2385 -1.2119
   29MOL   H36011056   3.042   4.195   6.750 -0.3136  0.1750 -1.3424
   29MOL   H36111057   3.181   4.148   6.850  0.8878  0.1927  0.1393
   29MOL   H36211058   3.205   4.205   6.685 -0.5660 -0.4059 -0.1007
   29MOL   C36311059   3.517   4.697   6.772 -0.2646  0.4520 -0.2228
   29MOL   C36411060   3.624   4.675   6.662  1.0751 -0.6212  0.1826
   29MOL   C36511061   3.599   4.756   6.538  0.4940 -0.3073  0.1102
   29MOL   C36611062   3.718   4.755   6.443  0.2005 -1.3686  0.0931
   29MOL   C36711063   3.677   4.830   6.312 -0.6330  0.2188 -0.5973
   29MOL   C36811064   3.798   4.873   6.221 -0.0865  0.4313 -0.0004
   29MOL   O36911065   3.750   4.707   6.722 -0.1446  0.1500  0.1146
   29MOL   H37011066   3.519   4.800   6.806 -0.0676 -0.1258  1.5977
   29MOL   H37111067   3.420   4.686   6.724  0.2468  0.5742 -1.2998
   29MOL   H37211068   3.633   4.574   6.623  1.9558 -0.3599 -0.3186
   29MOL   H37311069   3.520   4.708   6.480  0.5236 -0.8590  0.5209
   29MOL   H37411070   3.584   4.859   6.569 -2.1298  0.3475 -3.1215
   29MOL   H37511071   3.804   4.801   6.491 -0.7157  0.7063 -0.1976
   29MOL   H37611072   3.736   4.651   6.416 -2.1174 -2.2122  1.5909
   29MOL   H37711073   3.610   4.759   6.264 -1.4175  0.3679  0.2642
   29MOL   H37811074   3.625   4.921   6.342  1.3349  1.2845 -0.3011
   29MOL   H37911075   3.770   4.936   6.137  0.2673  1.8970  0.9653
   29MOL   H38011076   3.857   4.931   6.291  0.1185 -0.9821  1.0229
   29MOL   H38111077   3.864   4.793   6.185 -0.6100 -0.0817  0.1739
   29MOL   H38211078   3.763   4.642   6.789  3.3043  1.4456  0.7828
   30MOL     C111079   7.427   3.806   3.312  0.6710 -0.7496  0.6163
   30MOL     C211080   7.340   3.763   3.428  0.6385 -0.2087  0.4006
   30MOL     C311081   7.208   3.703   3.378  0.0323 -0.2906  0.3479
   30MOL     C411082   7.123   3.665   3.492  0.0228 -0.5515  0.0780
   30MOL     C511083   7.004   3.580   3.456  0.1681 -0.5018  0.3063
   30MOL     C611084   6.890   3.656   3.390  0.0279  0.1321  0.0754
   30MOL     O711085   7.410   3.667   3.507  0.0651  0.4575 -0.2663
   30MOL     H811086   7.469   3.724   3.255 -0.1122 -1.1037  0.5443
   30MOL     H911087   7.504   3.877   3.344 -1.2714  0.7372  2.1513
   30MOL    H1011088   7.312   3.849   3.489 -2.3156 -0.7165 -0.1795
   30MOL    H1111089   7.152   3.771   3.314  1.6895  1.3695  0.6206
   30MOL    H1211090   7.244   3.617   3.322  0.3238  0.3627 -0.4892
   30MOL    H1311091   7.186   3.604   3.557  0.6627 -0.0071 -0.0193
   30MOL    H1411092   7.087   3.753   3.546 -0.1900 -0.5842 -0.0115
   30MOL    H1511093   7.042   3.501   3.391 -3.0853 -0.3069 -1.9146
   30MOL    H1611094   6.968   3.533   3.548  1.4139 -0.9869  0.5676
   30MOL    H1711095   6.799   3.597   3.390  0.8883 -1.2499 -2.6811
   30MOL    H1811096   6.871   3.745   3.450  1.3177 -0.5063  1.4828
   30MOL    H1911097   6.919   3.679   3.288 -0.7697  0.8299  0.0049
   30MOL    H2011098   7.372   3.865   3.238 -0.5142 -0.4297  1.7243
   30MOL    C2111099   7.413   3.699   3.647  0.0808  0.6865  0.0212
   30MOL    C2211100   7.500   3.603   3.729 -0.4601 -0.1126 -0.7886
   30MOL    C2311101   7.473   3.447   3.717 -0.2040 -0.9147  0.6479
   30MOL    C2411102   7.540   3.370   3.834  0.5742 -0.2069  1.2142
   30MOL    C2511103   7.503   3.217   3.818  0.4755 -0.7459  0.3107
   30MOL    C2611104   7.577   3.142   3.704 -0.5651 -0.1692 -0.1078
   30MOL    O2711105   7.638   3.620   3.688 -0.3045 -0.6637  0.3803
   30MOL    H2811106   7.459   3.798   3.650 -0.1932  0.8121  0.1326
   30MOL    H2911107   7.315   3.699   3.696 -0.5074  2.6208 -1.0960
   30MOL    H3011108   7.486   3.629   3.834  1.2088 -1.5275 -0.1794
   30MOL    H3111109   7.521   3.416   3.625  0.4248 -0.1807  0.7209
   30MOL    H3211110   7.367   3.421   3.728 -0.2489 -0.0652  2.4034
   30MOL    H3311111   7.509   3.417   3.927  0.8457  1.8976  0.2637
   30MOL    H3411112   7.649   3.372   3.835  0.6305  0.0823 -1.6899
   30MOL    H3511113   7.530   3.168   3.911  2.5357 -1.7007 -0.7432
   30MOL    H3611114   7.396   3.195   3.813  0.0588  1.0988  0.9161
   30MOL    H3711115   7.532   3.045   3.686  1.3987 -1.2168  0.5512
   30MOL    H3811116   7.683   3.161   3.719 -0.3832  1.0070 -2.6688
   30MOL    H3911117   7.546   3.193   3.613  1.5774  1.2410 -0.0869
   30MOL    C4011118   7.712   3.722   3.754 -0.6295  0.0801 -0.2607
   30MOL    C4111119   0.060   3.721   3.690 -0.3680  0.1575  0.3306
   30MOL    C4211120   0.184   3.745   3.788 -0.4085  0.2618  0.4191
   30MOL    C4311121   0.322   3.745   3.724  0.1875 -0.2319  0.1358
   30MOL    C4411122   0.432   3.786   3.821  0.0176 -0.0339 -0.1584
   30MOL    C4511123   0.460   3.675   3.925 -0.0028 -0.4625 -0.5849
   30MOL    O4611124   0.074   3.826   3.587  0.1016 -0.0901 -0.0557
   30MOL    H4711125   7.719   3.698   3.860  1.0195 -0.9863 -0.5864
   30MOL    H4811126   7.667   3.821   3.746 -1.0628 -0.0440  0.6838
   30MOL    H4911127   0.089   3.622   3.654  1.7887  0.0337  2.2975
   30MOL    H5011128   0.165   3.835   3.846 -3.3618 -0.9220  1.3571
   30MOL    H5111129   0.174   3.665   3.862 -3.1407  1.5815  1.5384
   30MOL    H5211130   0.317   3.820   3.646 -1.5827  0.2163  0.6509
   30MOL    H5311131   0.320   3.643   3.686  0.1035 -1.0547  2.2781
   30MOL    H5411132   0.518   3.793   3.756  0.9826  0.7645  1.1851
   30MOL    H5511133   0.424   3.879   3.877 -3.4197 -0.8592  0.8919
   30MOL    H5611134   0.555   3.680   3.977  0.0968  1.0271 -0.9030
   30MOL    H5711135   0.379   3.676   3.998  0.2602 -1.0694 -0.2851
   30MOL    H5811136   0.460   3.576   3.878  0.8687 -0.9554  0.4257
   30MOL    C5911137   0.014   3.784   3.459 -0.0138  0.1467  0.3430
   30MOL    C6011138   0.068   3.883   3.358 -0.1955 -0.2729 -0.2701
   30MOL    C6111139   0.091   3.815   3.221 -0.0516 -0.2372 -1.0193
   30MOL    C6211140   0.168   3.913   3.132 -0.0114 -0.0381  0.1527
   30MOL    C6311141   0.198   3.862   2.988 -0.9444 -0.0367  0.5024
   30MOL    C6411142   0.274   3.961   2.896  0.6934  0.5087  0.0741
   30MOL    O6511143   7.747   3.976   3.340  0.0008  0.1925  0.1511
   30MOL    H6611144   7.691   3.774   3.454  0.0296 -0.5604  0.8441
   30MOL    H6711145   0.066   3.697   3.421  1.2854  1.4868 -1.0356
   30MOL    H6811146   0.162   3.917   3.403 -0.0773  0.3354 -0.9745
   30MOL    H6911147   0.001   3.781   3.171 -0.4328 -2.1047  0.8642
   30MOL    H7011148   0.149   3.723   3.223 -0.0186 -0.1948  1.4197
   30MOL    H7111149   0.264   3.943   3.174  1.2023 -1.2646 -1.6713
   30MOL    H7211150   0.110   4.005   3.142 -1.4790 -0.8478 -0.7309
   30MOL    H7311151   0.104   3.826   2.945  0.2890 -2.7669  0.0190
   30MOL    H7411152   0.253   3.770   3.008 -2.8476 -0.7786  2.4420
   30MOL    H7511153   0.199   4.033   2.863 -1.2423 -1.1015  0.7870
   30MOL    H7611154   0.360   4.013   2.936  0.8518 -0.1742  0.6424
   30MOL    H7711155   0.305   3.902   2.810 -3.5180 -0.2702 -1.0277
   30MOL    C7811156   7.763   4.093   3.417  0.1414  0.1861 -0.3190
   30MOL    C7911157   7.666   4.208   3.378  0.5054 -0.9186  0.6372
   30MOL    C8011158   7.715   4.346   3.419 -0.5609 -0.1026 -0.0436
   30MOL    C8111159   7.760   4.356   3.567  0.3210 -0.5900 -0.7279
   30MOL    C8211160   0.014   4.501   3.620 -0.5006  0.2252 -0.4117
   30MOL    C8311161   0.041   4.517   3.766 -0.4656  0.0804 -0.1802
   30MOL    O8411162   7.545   4.189   3.446  0.1124 -0.0912 -0.4206
   30MOL    H8511163   0.084   4.117   3.412 -0.3850  2.6436 -0.1014
   30MOL    H8611164   7.756   4.067   3.523  3.9364  0.6941  0.1326
   30MOL    H8711165   7.661   4.203   3.269  2.2052 -3.9589  0.6319
   30MOL    H8811166   0.021   4.372   3.365 -0.5361 -0.4043 -0.1469
   30MOL    H8911167   7.649   4.427   3.386  0.4649  0.6972 -0.1819
   30MOL    H9011168   0.063   4.296   3.589 -0.6256 -1.7382  0.0590
   30MOL    H9111169   7.680   4.333   3.638 -0.0215 -0.9225 -1.2261
   30MOL    H9211170   0.099   4.550   3.572  2.0931 -2.7482  0.9542
   30MOL    H9311171   7.716   4.568   3.604 -0.0102  1.6227  2.5827
   30MOL    H9411172   0.096   4.609   3.786 -0.4694  0.5730 -2.3575
   30MOL    H9511173   0.109   4.440   3.801 -1.0093 -0.3991 -0.1817
   30MOL    H9611174   7.748   4.519   3.841 -0.0009  3.2385  0.2825
   30MOL    C9711175   7.420   4.208   3.377 -0.0571  0.0479  0.5520
   30MOL    C9811176   7.300   4.195   3.474  0.3322  0.1992 -0.4544
   30MOL    C9911177   7.308   4.306   3.573 -0.1511  0.2864  0.0339
   30MOL   C10011178   7.303   4.454   3.516  0.2027 -0.3641  0.7821
   30MOL   C10111179   7.273   4.562   3.622 -0.7185 -0.1082 -0.3419
   30MOL   C10211180   7.278   4.702   3.561 -0.0604 -0.7003 -0.2774
   30MOL   O10311181   7.174   4.218   3.411  0.0117  0.2133  0.6101
   30MOL   H10411182   7.409   4.136   3.296  0.5105  1.1900 -0.5540
   30MOL   H10511183   7.428   4.309   3.336  0.3673 -0.3462 -0.3592
   30MOL   H10611184   7.312   4.100   3.526  0.6520  0.7034  0.4074
   30MOL   H10711185   7.389   4.293   3.645  1.3044 -0.9596 -1.7952
   30MOL   H10811186   7.218   4.295   3.635 -0.1954  0.1166 -0.0591
   30MOL   H10911187   7.245   4.463   3.425  0.1646  1.0148  0.9275
   30MOL   H11011188   7.404   4.475   3.480  1.0841 -1.7266  2.3428
   30MOL   H11111189   7.337   4.550   3.709 -0.6224 -1.2996 -0.5579
   30MOL   H11211190   7.174   4.551   3.666 -0.1079  0.4835  1.1727
   30MOL   H11311191   7.206   4.702   3.479 -0.5960 -0.7995  0.1917
   30MOL   H11411192   7.242   4.779   3.629  2.0911  0.8825 -0.8765
   30MOL   H11511193   7.384   4.724   3.548 -0.1595 -0.0720 -0.0267
   30MOL   C11611194   7.124   4.092   3.362 -0.4363 -0.8187  0.0942
   30MOL   C11711195   6.984   4.115   3.300  0.0854 -0.4302  0.0085
   30MOL   C11811196   6.913   3.987   3.256  0.5133 -0.2989  0.1661
   30MOL   C11911197   6.782   4.005   3.170 -0.0391 -0.9105  0.7415
   30MOL   C12011198   6.729   3.870   3.119  1.0050 -0.9750  0.4842
   30MOL   C12111199   6.594   3.880   3.051  0.5572  0.2821  0.5210
   30MOL   O12211200   6.996   4.201   3.183  0.1154  0.3776 -0.9293
   30MOL   H12311201   7.185   4.040   3.289 -0.5299 -0.2120 -0.4205
   30MOL   H12411202   7.109   4.026   3.448 -3.2453 -1.7321 -1.0347
   30MOL   H12511203   6.918   4.160   3.374 -0.5070  0.0195 -0.7861
   30MOL   H12611204   6.969   3.928   3.184 -2.4142 -1.1905 -1.4785
   30MOL   H12711205   6.907   3.920   3.342 -0.2604 -1.1186 -0.5111
   30MOL   H12811206   6.798   4.061   3.078  0.5505 -2.1014  0.1160
   30MOL   H12911207   6.721   4.067   3.236  0.5457 -0.2199  0.6332
   30MOL   H13011208   6.806   3.825   3.056  2.7397  1.3427  0.9102
   30MOL   H13111209   6.715   3.803   3.204 -1.2798 -1.6093 -0.3636
   30MOL   H13211210   6.514   3.868   3.123  0.0177 -0.9800 -0.2852
   30MOL   H13311211   6.572   3.978   3.007 -2.4606  0.5848  2.6345
   30MOL   H13411212   6.593   3.806   2.971 -0.9755 -0.0890  0.8736
   30MOL   C13511213   6.994   4.341   3.203  0.1203  0.2509 -1.0658
   30MOL   C13611214   7.107   4.423   3.143  0.2414  0.3913 -0.1409
   30MOL   C13711215   7.085   4.565   3.183 -0.1446  0.0430  0.4298
   30MOL   C13811216   7.148   4.663   3.084 -0.7690 -0.1534  0.3051
   30MOL   C13911217   7.132   4.806   3.131 -0.4612 -0.2412 -0.1797
   30MOL   C14011218   7.141   4.917   3.028 -0.8130 -0.2002  0.1657
   30MOL   O14111219   7.078   4.413   3.007  0.0029  0.0166  0.0580
   30MOL   H14211220   6.896   4.381   3.178  1.2640  3.8057 -0.0757
   30MOL   H14311221   7.006   4.363   3.310 -1.1810 -2.5973 -0.2811
   30MOL   H14411222   7.201   4.389   3.184 -0.2335  0.3774  0.9546
   30MOL   H14511223   6.980   4.591   3.193 -0.5607 -1.8613  1.1504
   30MOL   H14611224   7.119   4.583   3.284 -1.1995 -0.2465  0.8435
   30MOL   H14711225   7.099   4.658   2.986  1.2897 -1.0637 -0.7098
   30MOL   H14811226   7.249   4.623   3.078 -0.7329 -0.0281  0.0789
   30MOL   H14911227   7.210   4.824   3.205  0.0023 -0.0159 -0.7136
   30MOL   H15011228   7.037   4.816   3.183 -1.4150  1.1101 -2.1271
   30MOL   H15111229   7.237   4.936   2.980  1.2853 -1.7535  3.5240
   30MOL   H15211230   7.077   4.892   2.944 -1.1030 -0.9909  0.6260
   30MOL   H15311231   7.122   5.010   3.082 -0.2657 -0.1622  0.3006
   30MOL   C15411232   7.185   4.371   2.925  0.3041 -0.3405  0.6500
   30MOL   C15511233   7.191   4.218   2.922  0.2242 -0.2051  0.0328
   30MOL   C15611234   7.064   4.154   2.854  0.6157 -0.5744  0.7385
   30MOL   C15711235   7.059   3.996   2.854  0.0583 -0.4249  0.3610
   30MOL   C15811236   6.932   3.947   2.777 -0.3191  0.3468  0.1953
   30MOL   C15911237   6.939   3.797   2.749  0.7255  0.0096 -0.1666
   30MOL   O16011238   7.307   4.170   2.864 -0.6210 -0.4021  0.1307
   30MOL   H16111239   7.278   4.414   2.963  0.3572  0.5552 -0.4810
   30MOL   H16211240   7.168   4.398   2.820 -1.7507 -0.0152  1.0357
   30MOL   H16311241   7.188   4.184   3.025  0.0352 -1.5094 -0.3949
   30MOL   H16411242   7.065   4.191   2.751  2.3590 -1.1523  0.5441
   30MOL   H16511243   6.986   4.195   2.918  1.1265 -1.1570  1.7440
   30MOL   H16611244   7.071   3.948   2.951 -2.7346  2.0040  1.9805
   30MOL   H16711245   7.147   3.971   2.794  1.8075  1.4681  2.0740
   30MOL   H16811246   6.835   3.972   2.820 -1.3589 -2.1462 -0.5981
   30MOL   H16911247   6.927   3.990   2.677  0.2630 -1.1990 -0.5142
   30MOL   H17011248   7.040   3.778   2.714  1.8528  1.7564  1.9873
   30MOL   H17111249   6.864   3.753   2.683  0.7257 -1.5379  0.8410
   30MOL   H17211250   6.946   3.741   2.843  0.1245  1.6963  0.9178
   30MOL   C17311251   7.421   4.163   2.954  0.2882 -0.3403 -0.3830
   30MOL   C17411252   7.532   4.080   2.890 -0.2236 -0.5866  0.0431
   30MOL   C17511253   7.672   4.116   2.943  0.0093 -0.2872 -0.1470
   30MOL   C17611254   7.732   4.252   2.900 -1.1349  0.2742 -0.2212
   30MOL   C17711255   0.064   4.294   2.990 -0.0323 -0.5761  0.6281
   30MOL   C17811256   0.119   4.432   2.963 -0.4842 -0.5206 -0.1659
   30MOL   O17911257   7.508   3.948   2.931  0.3948 -0.2129  0.2814
   30MOL   H18011258   7.403   4.139   3.058 -0.0621 -0.0379 -0.3715
   30MOL   H18111259   7.458   4.265   2.968 -2.5193  0.8729 -1.3793
   30MOL   H18211260   7.527   4.089   2.781  0.5597 -0.8857 -0.0229
   30MOL   H18311261   7.689   4.115   3.051  0.1532  1.3644 -0.1407
   30MOL   H18411262   7.726   4.041   2.885 -0.8788  0.2105 -1.6431
   30MOL   H18511263   7.762   4.245   2.796 -0.6605 -0.2814 -0.0424
   30MOL   H18611264   7.651   4.326   2.896 -0.8268  0.7397  1.6975
   30MOL   H18711265   0.027   4.296   3.092 -2.7285  3.5573 -0.2777
   30MOL   H18811266   0.138   4.215   2.976  0.3832 -0.1350  0.3062
   30MOL   H18911267   0.204   4.454   3.028 -2.0127  2.2399  1.0119
   30MOL   H19011268   0.040   4.508   2.965  0.0575  0.0438 -0.1560
   30MOL   H19111269   0.159   4.430   2.862  0.6716  2.5863  0.1637
   30MOL   C19211270   7.474   3.858   2.823 -0.3261  0.6695  0.7738
   30MOL   C19311271   7.456   3.710   2.872 -0.2145 -0.4730  0.2419
   30MOL   C19411272   7.324   3.688   2.953  0.2532  0.3819  1.4707
   30MOL   C19511273   7.284   3.540   2.982 -0.5044 -0.0568 -0.4608
   30MOL   C19611274   7.141   3.521   3.032  0.9882  0.1239 -0.1071
   30MOL   C19711275   7.095   3.388   3.088  0.6453  0.1228 -0.6519
   30MOL   O19811276   7.555   3.654   2.952  0.6749  0.4586  0.4293
   30MOL   H19911277   7.379   3.886   2.779  0.3708  2.5790  0.4465
   30MOL   H20011278   7.552   3.858   2.747 -1.6872 -2.7507 -0.7115
   30MOL   H20111279   7.449   3.652   2.780  1.2392 -1.0188  0.4684
   30MOL   H20211280   7.331   3.736   3.050  0.8306  0.0340  1.6056
   30MOL   H20311281   7.242   3.735   2.899  0.3254 -1.0289  0.0926
   30MOL   H20411282   7.361   3.502   3.048 -0.7215  3.6097  2.0377
   30MOL   H20511283   7.289   3.478   2.893  0.2970 -1.3046  0.4519
   30MOL   H20611284   7.122   3.598   3.108 -1.0197  0.3503 -0.7860
   30MOL   H20711285   7.077   3.551   2.949  0.1714  0.9873  0.8138
   30MOL   H20811286   6.992   3.365   3.061  0.8916  0.4647 -1.9344
   30MOL   H20911287   7.161   3.308   3.053  0.3216 -1.6738  2.6819
   30MOL   H21011288   7.102   3.399   3.196 -0.9769 -2.4590 -0.2549
   30MOL   C21111289   7.655   3.569   2.887 -0.0440  0.3635 -0.0452
   30MOL   C21211290   7.732   3.487   2.998  0.0244 -0.5600 -0.3114
   30MOL   C21311291   0.076   3.437   2.942 -0.5429  0.1815  0.5504
   30MOL   C21411292   0.178   3.396   3.048 -0.2283 -0.4241  0.0549
   30MOL   C21511293   0.279   3.286   2.998 -0.1163  0.5182 -0.1110
   30MOL   C21611294   0.373   3.225   3.105  0.3905  0.5565 -0.0436
   30MOL   O21711295   7.660   3.374   3.043  0.4405 -0.3507  0.0201
   30MOL   H21811296   7.731   3.629   2.837 -0.0744  0.5281  0.1034
   30MOL   H21911297   7.594   3.506   2.823 -0.6002 -0.1982  1.0399
   30MOL   H22011298   7.744   3.562   3.076 -1.8618  0.1799 -0.6980
   30MOL   H22111299   0.050   3.357   2.873 -1.2187  0.2390  0.7375
   30MOL   H22211300   0.128   3.510   2.881 -0.3645  1.3532  2.0733
   30MOL   H22311301   0.231   3.488   3.071  0.4634 -0.5073 -1.1963
   30MOL   H22411302   0.130   3.359   3.139  0.0534 -1.1808 -0.1071
   30MOL   H22511303   0.219   3.206   2.955  0.4822  1.1482 -2.1759
   30MOL   H22611304   0.342   3.330   2.920  0.5536  2.3210  1.4158
   30MOL   H22711305   0.402   3.124   3.077 -0.3639  0.1190  0.7541
   30MOL   H22811306   0.315   3.229   3.197  0.8473  1.1555  0.2206
   30MOL   H22911307   0.460   3.288   3.125 -0.6434  2.1156 -0.3030
   30MOL   C23011308   7.600   3.388   3.171 -0.2363  0.8542  0.6245
   30MOL   C23111309   7.525   3.263   3.220 -0.1244 -0.8718 -0.3219
   30MOL   C23211310   7.421   3.306   3.324  0.1126  0.5608  0.8770
   30MOL   C23311311   7.327   3.198   3.377  0.7256 -0.2142 -0.7208
   30MOL   C23411312   7.240   3.228   3.494 -0.1974 -0.2188  0.4799
   30MOL   C23511313   7.148   3.107   3.522  0.5260 -0.7930  0.1376
   30MOL   O23611314   7.620   3.172   3.273  0.1650 -0.1939  0.1699
   30MOL   H23711315   7.674   3.402   3.251  1.2201 -1.0498 -0.3611
   30MOL   H23811316   7.525   3.467   3.177 -0.3469  0.9868 -2.1089
   30MOL   H23911317   7.474   3.217   3.136  0.4123 -0.6315 -0.7817
   30MOL   H24011318   7.365   3.390   3.284  1.6973  1.9327  1.4916
   30MOL   H24111319   7.483   3.336   3.409  0.1892  1.7673  0.4032
   30MOL   H24211320   7.379   3.108   3.410 -2.5912 -1.4451  1.3656
   30MOL   H24311321   7.263   3.172   3.292 -2.1291 -1.3359  1.7053
   30MOL   H24411322   7.304   3.244   3.581  2.5952 -1.6366 -1.2346
   30MOL   H24511323   7.190   3.323   3.473  0.9263 -0.1700 -2.1370
   30MOL   H24611324   7.204   3.014   3.512 -0.8898 -1.3621 -3.4295
   30MOL   H24711325   7.066   3.104   3.450 -0.0926  1.4876  0.7041
   30MOL   H24811326   7.112   3.116   3.624 -0.4302  1.4868 -0.3715
   30MOL   C24911327   7.679   3.078   3.178  0.3654 -0.3669 -0.1622
   30MOL   C25011328   0.011   3.011   3.257  0.7835  0.2202  0.6429
   30MOL   C25111329   0.116   2.958   3.152 -0.5524 -0.1423  0.0880
   30MOL   C25211330   0.242   2.895   3.201 -0.1415  0.2642  0.6220
   30MOL   C25311331   0.336   2.833   3.090 -0.4382 -0.2258 -0.0451
   30MOL   C25411332   0.469   2.771   3.137 -0.1386 -0.5695  0.1170
   30MOL   O25511333   7.742   2.901   3.334  0.3972  0.5099  0.1649
   30MOL   H25611334   7.603   3.008   3.143 -0.0669 -0.3103  0.6413
   30MOL   H25711335   7.723   3.114   3.085  2.3821  1.2701  1.3795
   30MOL   H25811336   0.062   3.086   3.318 -1.7596  2.9034 -0.3923
   30MOL   H25911337   0.063   2.885   3.091  1.3820  0.0669 -1.8910
   30MOL   H26011338   0.138   3.042   3.087 -2.6628  0.6897  0.4025
   30MOL   H26111339   0.300   2.974   3.249 -1.4882  0.4514  1.9985
   30MOL   H26211340   0.208   2.822   3.275  0.8666 -0.8478 -0.0140
   30MOL   H26311341   0.274   2.764   3.033 -0.5078  0.1059 -0.3751
   30MOL   H26411342   0.352   2.918   3.024 -2.4525  1.1639  1.2135
   30MOL   H26511343   0.549   2.843   3.156 -0.7571  0.2372 -0.3268
   30MOL   H26611344   0.505   2.709   3.055 -1.0012 -2.1313  0.8998
   30MOL   H26711345   0.456   2.703   3.222  0.6777 -2.3175 -1.1307
   30MOL   C26811346   7.757   2.928   3.468 -0.4085  0.4837 -0.6481
   30MOL   C26911347   7.724   2.799   3.552 -0.2207  0.0440 -0.0266
   30MOL   C27011348   7.754   2.819   3.706  0.4206  0.2868  0.6328
   30MOL   C27111349   7.745   2.692   3.801 -0.2306 -0.1337 -0.6474
   30MOL   C27211350   7.759   2.724   3.953  0.4336 -0.4968 -0.5699
   30MOL   C27311351   7.624   2.776   4.005 -0.4542 -0.2121 -0.2699
   30MOL   O27411352   0.038   2.699   3.516 -0.1782  0.5304  0.3131
   30MOL   H27511353   7.698   3.014   3.501 -0.2264  0.0917  0.7451
   30MOL   H27611354   0.077   2.942   3.494 -1.1817  1.0309  2.4908
   30MOL   H27711355   7.620   2.765   3.545 -0.7414  1.5838 -0.0258
   30MOL   H27811356   0.069   2.860   3.718  0.2811  0.3471  1.6601
   30MOL   H27911357   7.690   2.901   3.739 -0.1658  0.6085 -1.2523
   30MOL   H28011358   7.648   2.647   3.777 -1.7346  2.8281 -0.4334
   30MOL   H28111359   0.043   2.624   3.785 -0.0914 -0.2009  0.3495
   30MOL   H28211360   0.008   2.640   4.013  0.7346  0.2164  0.2770
   30MOL   H28311361   0.053   2.797   3.967  0.2268 -0.7687  2.4146
   30MOL   H28411362   7.639   2.801   4.110  3.1990 -1.1895 -0.5036
   30MOL   H28511363   7.593   2.865   3.950  1.1444  1.3594  1.3040
   30MOL   H28611364   7.545   2.701   3.995 -1.4530  0.8212 -0.1998
   30MOL   C28711365   0.003   2.608   3.417  0.5693  0.0457  0.2858
   30MOL   C28811366   0.135   2.543   3.367  0.1422  0.2028  0.5519
   30MOL   C28911367   0.122   2.496   3.217 -0.5527  0.6899  0.2224
   30MOL   C29011368   0.255   2.437   3.163 -0.2914  0.1694 -0.1952
   30MOL   C29111369   0.285   2.451   3.009 -0.0121 -0.0482  0.1510
   30MOL   C29211370   0.392   2.358   2.949 -0.7174  0.0815  0.3275
   30MOL   O29311371   0.164   2.424   3.440 -0.2318 -0.0155 -0.5055
   30MOL   H29411372   7.723   2.653   3.342 -2.7542 -1.8856  1.9090
   30MOL   H29511373   7.738   2.529   3.472 -0.3632 -1.6964 -2.9584
   30MOL   H29611374   0.221   2.610   3.374  1.5381 -1.3623 -0.9724
   30MOL   H29711375   0.038   2.430   3.193 -0.9142  1.2348 -0.0187
   30MOL   H29811376   0.100   2.578   3.149 -0.7057  0.1047 -0.4438
   30MOL   H29911377   0.342   2.487   3.206 -1.0289  1.1333  0.1947
   30MOL   H30011378   0.253   2.332   3.190 -1.8720 -0.0810 -1.2599
   30MOL   H30111379   0.321   2.551   2.987  0.9378 -0.1234  1.3031
   30MOL   H30211380   0.190   2.443   2.957  0.1860  0.3357 -0.2747
   30MOL   H30311381   0.379   2.253   2.975  0.8964 -0.3379 -0.4704
   30MOL   H30411382   0.390   2.355   2.840 -0.0858  0.9538  0.2859
   30MOL   H30511383   0.489   2.398   2.980 -0.7038  0.1763  0.1618
   30MOL   C30611384   0.206   2.443   3.570  0.0271 -0.7375 -1.0779
   30MOL   C30711385   0.231   2.305   3.637  0.4956  0.4025  0.0998
   30MOL   C30811386   0.239   2.329   3.792 -0.3006  0.2868 -0.8061
   30MOL   C30911387   0.252   2.198   3.875  0.2566 -0.2197 -0.6738
   30MOL   C31011388   0.245   2.215   4.026  0.6891  0.1726  0.4223
   30MOL   C31111389   0.105   2.253   4.073 -0.3478  0.0371  0.1010
   30MOL   O31211390   0.348   2.244   3.584 -0.6914 -0.2849  0.2293
   30MOL   H31311391   0.285   2.517   3.584 -1.8530  0.9700  0.8282
   30MOL   H31411392   0.125   2.488   3.627  1.7738  0.5892  0.3764
   30MOL   H31511393   0.156   2.226   3.628  3.0531 -2.0000 -0.7233
   30MOL   H31611394   0.149   2.377   3.830 -0.3069  1.0202 -1.7385
   30MOL   H31711395   0.316   2.401   3.818 -1.0885  0.1619  1.9781
   30MOL   H31811396   0.175   2.125   3.852  0.8231 -1.6855  1.9316
   30MOL   H31911397   0.346   2.154   3.842  0.9279  2.3642 -2.3801
   30MOL   H32011398   0.314   2.290   4.065  0.2008  0.4491  0.7675
   30MOL   H32111399   0.263   2.111   4.051 -1.2598 -0.7210 -1.6049
   30MOL   H32211400   0.028   2.187   4.033  1.0016 -0.7583 -1.2623
   30MOL   H32311401   0.093   2.236   4.180 -0.6840 -2.7931 -0.3580
   30MOL   H32411402   0.095   2.358   4.044  0.9855 -0.3607 -1.8686
   30MOL   C32511403   0.335   2.181   3.460  0.7352  0.5218  0.7565
   30MOL   C32611404   0.454   2.087   3.436 -0.2072  0.1074  0.0759
   30MOL   C32711405   0.473   2.065   3.282 -0.6486 -0.1129  0.3674
   30MOL   C32811406   0.596   1.978   3.234  0.0334 -0.7609 -0.0218
   30MOL   C32911407   0.736   2.030   3.289 -0.0232  0.4653  0.5353
   30MOL   C33011408   0.859   1.996   3.200  0.1492 -0.5800 -0.9370
   30MOL   O33111409   0.442   1.968   3.506  0.3073  0.4677  0.3536
   30MOL   H33211410   0.348   2.270   3.399 -0.8437 -0.3097 -0.8124
   30MOL   H33311411   0.236   2.140   3.443  2.6025 -2.7952 -3.1828
   30MOL   H33411412   0.540   2.147   3.468 -0.3493 -0.3203  1.2785
   30MOL   H33511413   0.385   2.015   3.242 -2.0125  1.1812  1.6836
   30MOL   H33611414   0.458   2.163   3.236  0.6318 -0.2966 -0.4541
   30MOL   H33711415   0.592   1.871   3.254  0.9761 -0.8621 -0.3088
   30MOL   H33811416   0.592   1.970   3.125  0.7675  0.0717 -0.1159
   30MOL   H33911417   0.723   2.139   3.292  3.5418  1.1063 -2.9222
   30MOL   H34011418   0.749   1.988   3.388  1.5074  2.1606  1.0776
   30MOL   H34111419   0.946   2.054   3.233  1.6946 -3.2723 -0.0523
   30MOL   H34211420   0.884   1.890   3.194  0.4058 -0.6474  0.8882
   30MOL   H34311421   0.830   2.023   3.099 -3.2336 -2.8545 -0.6634
   30MOL   C34411422   0.505   1.977   3.635 -0.7436  0.4392  0.3454
   30MOL   C34511423   0.466   1.853   3.720  0.1374  0.7791  0.5011
   30MOL   C34611424   0.542   1.849   3.857  0.2515 -0.7116  0.3951
   30MOL   C34711425   0.519   1.714   3.929 -0.2014  0.1227  0.0181
   30MOL   C34811426   0.595   1.690   4.060 -0.2461 -0.2548  0.2706
   30MOL   C34911427   0.566   1.554   4.123 -0.4908  0.0536  0.2644
   30MOL   O35011428   0.328   1.850   3.755  0.0928 -0.0854 -0.5425
   30MOL   H35111429   0.480   2.063   3.696  0.8474 -0.0337  1.6934
   30MOL   H35211430   0.611   1.969   3.611 -1.3262  1.7044 -2.9493
   30MOL   H35311431   0.489   1.765   3.659  2.3405  0.5682  1.5442
   30MOL   H35411432   0.518   1.945   3.903 -2.2042 -0.5348 -1.1846
   30MOL   H35511433   0.651   1.853   3.845  0.5985 -4.2082  1.8210
   30MOL   H35611434   0.553   1.639   3.859  0.0349  1.1750 -1.0083
   30MOL   H35711435   0.416   1.689   3.954 -0.6051  3.4017  2.0025
   30MOL   H35811436   0.572   1.773   4.127  0.8121 -1.4809  2.2002
   30MOL   H35911437   0.702   1.700   4.047  0.1466 -2.9058  1.1234
   30MOL   H36011438   0.638   1.543   4.204  1.7878 -1.4081 -1.8888
   30MOL   H36111439   0.582   1.474   4.050 -1.0768  0.0566  0.1274
   30MOL   H36211440   0.463   1.545   4.157  0.0951 -0.7872  1.8694
   30MOL   C36311441   0.238   1.817   3.651  0.3078  0.9808 -0.7533
   30MOL   C36411442   0.094   1.818   3.712 -0.5921  0.9346 -0.8499
   30MOL   C36511443   7.764   1.810   3.609 -1.1556 -0.4395  0.5219
   30MOL   C36611444   7.771   1.927   3.508 -0.2697  0.7346 -0.8537
   30MOL   C36711445   7.661   1.960   3.410 -0.4356  0.1447  0.2818
   30MOL   C36811446   7.646   1.840   3.313  0.7377 -0.2435 -0.6073
   30MOL   O36911447   0.082   1.714   3.803  0.5316  0.7180 -0.0196
   30MOL   H37011448   0.258   1.714   3.620  0.7349  0.6359  0.6237
   30MOL   H37111449   0.241   1.886   3.567  1.2967  0.8893 -0.7979
   30MOL   H37211450   0.081   1.913   3.763  1.5398  1.0880 -0.5230
   30MOL   H37311451   7.767   1.711   3.563 -0.3133 -0.8400  1.4256
   30MOL   H37411452   7.668   1.809   3.660 -0.9859 -2.3080  0.8305
   30MOL   H37511453   7.769   2.022   3.561  0.6580  0.5606 -0.4868
   30MOL   H37611454   0.082   1.933   3.456 -0.5553  1.5640 -1.2984
   30MOL   H37711455   7.567   1.975   3.462 -1.1051  0.1066 -0.8909
   30MOL   H37811456   7.694   2.050   3.358  1.4405 -0.9067 -0.4213
   30MOL   H37911457   7.738   1.809   3.264  1.1899  1.8461 -1.1021
   30MOL   H38011458   7.601   1.754   3.363  1.0228 -0.9110 -1.4887
   30MOL   H38111459   7.576   1.874   3.236  2.5395 -1.3577 -2.8008
   30MOL   H38211460   0.158   1.716   3.859  1.7964  1.6647 -1.7077
   31MOL     C111461   1.526   3.281   2.055  0.1904 -0.8007  0.2476
   31MOL     C211462   1.646   3.189   2.092  0.2677 -0.4049  0.2713
   31MOL     C311463   1.775   3.274   2.108  0.0143  0.1585 -0.0845
   31MOL     C411464   1.879   3.205   2.198  0.2744 -0.0662  0.1448
   31MOL     C511465   2.000   3.286   2.223 -0.1033 -1.4983 -0.9997
   31MOL     C611466   2.073   3.308   2.087  0.1878  0.3873 -0.0060
   31MOL     O711467   1.595   3.138   2.217 -0.9030 -0.4959  0.0400
   31MOL     H811468   1.513   3.375   2.108 -2.2494 -0.8558 -0.1892
   31MOL     H911469   1.432   3.228   2.066 -0.2793  0.1365  0.7676
   31MOL    H1011470   1.658   3.121   2.007 -0.0028  2.9637 -2.5890
   31MOL    H1111471   1.812   3.310   2.012  3.3127  0.3258  1.2050
   31MOL    H1211472   1.744   3.363   2.162  0.3910  1.4941 -2.0163
   31MOL    H1311473   1.831   3.180   2.292 -0.8601  2.0875  0.1730
   31MOL    H1411474   1.911   3.113   2.148  2.3862  1.1906 -0.8829
   31MOL    H1511475   1.971   3.381   2.266 -1.8120 -2.5967  0.3422
   31MOL    H1611476   2.057   3.243   2.306 -0.8532  0.6525  0.6818
   31MOL    H1711477   2.017   3.346   2.002  0.1933 -1.5172 -0.8691
   31MOL    H1811478   2.144   3.390   2.095  1.7955 -1.1056  1.5092
   31MOL    H1911479   2.133   3.219   2.070 -1.6107 -0.3719 -2.5622
   31MOL    H2011480   1.539   3.313   1.951  0.5870  1.2497  0.9111
   31MOL    C2111481   1.560   3.004   2.216 -0.1596  0.7603 -0.2406
   31MOL    C2211482   1.523   2.950   2.361  0.3422  0.7773 -0.7443
   31MOL    C2311483   1.393   2.878   2.362  0.3486 -0.3186 -0.2690
   31MOL    C2411484   1.338   2.857   2.506 -0.1127  0.0355 -0.6419
   31MOL    C2511485   1.183   2.852   2.502 -0.7537  0.5307  0.1673
   31MOL    C2611486   1.127   2.726   2.431  0.2454  0.2725 -0.6163
   31MOL    O2711487   1.623   2.849   2.397 -0.1366 -0.2358 -0.0055
   31MOL    H2811488   1.472   2.986   2.155  1.1115  0.8734 -2.1578
   31MOL    H2911489   1.640   2.944   2.172  0.9114  0.2609  2.2939
   31MOL    H3011490   1.524   3.040   2.422 -1.4377  3.1412 -4.0295
   31MOL    H3111491   1.400   2.783   2.309  3.1934 -0.0480 -0.4562
   31MOL    H3211492   1.319   2.934   2.306 -0.7710 -0.6420  0.8520
   31MOL    H3311493   1.364   2.941   2.571  0.2287  0.0041 -0.7400
   31MOL    H3411494   1.381   2.770   2.556 -0.6944 -1.0906 -2.0650
   31MOL    H3511495   1.153   2.837   2.605 -0.5245 -2.1059 -0.1277
   31MOL    H3611496   1.138   2.948   2.478 -0.1249  0.9248  0.5406
   31MOL    H3711497   1.162   2.741   2.329  3.4429  0.8681  0.5116
   31MOL    H3811498   1.019   2.710   2.440  0.5482 -1.3620  0.4194
   31MOL    H3911499   1.178   2.634   2.461 -0.8563 -0.4828 -1.0166
   31MOL    C4011500   1.747   2.898   2.443  0.7493  0.1795 -0.8534
   31MOL    C4111501   1.852   2.787   2.442 -0.8875  0.6535 -0.0992
   31MOL    C4211502   1.817   2.660   2.509 -0.3359 -0.7328 -0.3967
   31MOL    C4311503   1.918   2.545   2.509  0.6308 -0.0267  0.6447
   31MOL    C4411504   1.869   2.406   2.542 -0.4356 -0.1668 -0.8815
   31MOL    C4511505   1.971   2.296   2.544 -0.1419  0.2367 -0.3338
   31MOL    O4611506   1.984   2.831   2.481  0.4299  0.1351  0.2509
   31MOL    H4711507   1.738   2.933   2.545 -0.5426 -0.0082 -0.8986
   31MOL    H4811508   1.774   2.982   2.379 -0.7370  0.4629 -1.1215
   31MOL    H4911509   1.855   2.757   2.337  1.9358  2.4670 -0.5962
   31MOL    H5011510   1.782   2.675   2.612  0.1298  0.3663 -0.3870
   31MOL    H5111511   1.727   2.620   2.463 -0.0174 -1.5136 -0.3420
   31MOL    H5211512   2.003   2.580   2.567  0.7449  2.5719 -1.0253
   31MOL    H5311513   1.963   2.540   2.409 -0.7644  0.8287 -0.0393
   31MOL    H5411514   1.794   2.405   2.622  1.1235  2.0279  0.6502
   31MOL    H5511515   1.794   2.385   2.465 -1.0300 -0.1804 -0.3087
   31MOL    H5611516   1.982   2.231   2.631 -0.0074 -0.1043 -0.6083
   31MOL    H5711517   1.958   2.239   2.452 -1.8642 -0.8838  0.5765
   31MOL    H5811518   2.074   2.332   2.547  0.9487 -2.6652 -0.8728
   31MOL    C5911519   2.047   2.905   2.383 -0.1206 -0.0954 -0.1101
   31MOL    C6011520   2.173   2.979   2.423  0.0073  0.1169 -0.2391
   31MOL    C6111521   2.257   3.022   2.295 -0.1071  0.1191 -0.1942
   31MOL    C6211522   2.386   3.095   2.331  0.2690  0.0995 -0.6095
   31MOL    C6311523   2.469   3.144   2.212  0.4839 -0.5726 -0.6932
   31MOL    C6411524   2.613   3.188   2.264 -1.0491  0.2408 -0.1966
   31MOL    O6511525   2.130   3.093   2.490 -0.5123 -0.7258  0.3288
   31MOL    H6611526   1.977   2.967   2.327 -1.1866 -2.0691 -1.0448
   31MOL    H6711527   2.086   2.836   2.308  1.9774  1.3767 -0.3934
   31MOL    H6811528   2.239   2.915   2.482 -0.8257  0.4152  1.0380
   31MOL    H6911529   2.198   3.084   2.228 -1.2109 -0.5055  0.1812
   31MOL    H7011530   2.266   2.930   2.237  1.3677  1.0318 -1.4409
   31MOL    H7111531   2.442   3.021   2.388  0.7887 -0.0604 -1.3135
   31MOL    H7211532   2.365   3.180   2.394 -2.4378 -0.8455 -0.1622
   31MOL    H7311533   2.414   3.224   2.163  1.2721 -0.0632 -0.7604
   31MOL    H7411534   2.490   3.065   2.139  1.9667  0.0229 -0.9383
   31MOL    H7511535   2.605   3.281   2.320  1.5677 -0.6875  1.8281
   31MOL    H7611536   2.667   3.110   2.317 -0.8171 -0.8971 -2.0575
   31MOL    H7711537   2.677   3.213   2.180 -0.8047 -0.8988 -0.3596
   31MOL    C7811538   2.140   3.082   2.635  0.9879  0.7230 -0.2066
   31MOL    C7911539   2.116   3.213   2.704  0.8388  0.6494  0.0027
   31MOL    C8011540   2.170   3.219   2.847  1.0561 -0.1554  0.4151
   31MOL    C8111541   2.162   3.357   2.911 -0.8181 -0.9040  0.3259
   31MOL    C8211542   2.204   3.363   3.052  0.4141  0.0341 -0.4634
   31MOL    C8311543   2.189   3.497   3.123 -0.0390  0.2756  0.0865
   31MOL    O8411544   1.977   3.234   2.726  0.2592 -0.1103 -0.6032
   31MOL    H8511545   2.246   3.064   2.652  0.2765 -1.9910  1.8154
   31MOL    H8611546   2.092   3.000   2.688  0.9550 -0.9991 -2.8042
   31MOL    H8711547   2.163   3.294   2.650  0.1376  1.2455  0.2790
   31MOL    H8811548   2.108   3.152   2.908 -2.2925  1.5468 -0.9694
   31MOL    H8911549   2.274   3.189   2.845  1.6916  2.0724 -0.2397
   31MOL    H9011550   2.059   3.391   2.913 -1.2222 -2.1291  1.1345
   31MOL    H9111551   2.223   3.431   2.860 -1.9310  1.1019  1.8536
   31MOL    H9211552   2.139   3.290   3.100 -2.4057  2.7778  0.0738
   31MOL    H9311553   2.309   3.337   3.062  0.3149  0.5713  2.3752
   31MOL    H9411554   2.091   3.507   3.170 -0.6469  3.0151 -1.6664
   31MOL    H9511555   2.183   3.579   3.052 -2.3023 -0.9544 -1.1940
   31MOL    H9611556   2.254   3.516   3.209 -1.0248  0.3183  0.8273
   31MOL    C9711557   1.900   3.224   2.604 -0.9105  0.8839 -0.0506
   31MOL    C9811558   1.750   3.267   2.632  0.2602 -0.0954  0.4548
   31MOL    C9911559   1.710   3.198   2.766  0.2539 -0.1422  0.3830
   31MOL   C10011560   1.560   3.166   2.783  0.1110  0.3843  0.2496
   31MOL   C10111561   1.538   3.111   2.919  0.6753 -1.2664  1.2045
   31MOL   C10211562   1.390   3.083   2.950  0.6220  0.0842  0.2063
   31MOL   O10311563   1.736   3.407   2.647 -0.1108 -0.3055 -0.1118
   31MOL   H10411564   1.885   3.123   2.566 -0.6898  0.8962 -0.1760
   31MOL   H10511565   1.948   3.288   2.530  0.4549  0.7608  0.7020
   31MOL   H10611566   1.683   3.240   2.551  1.2274 -1.9680  0.2484
   31MOL   H10711567   1.736   3.261   2.851 -0.6188  2.0211 -0.9128
   31MOL   H10811568   1.774   3.112   2.785 -0.8271 -0.9928  0.2594
   31MOL   H10911569   1.519   3.089   2.719 -1.9730  0.5148  1.3812
   31MOL   H11011570   1.496   3.255   2.781 -0.7286 -0.0576  3.5538
   31MOL   H11111571   1.577   3.177   2.996 -1.4580  1.5285 -0.0288
   31MOL   H11211572   1.588   3.014   2.921  2.3239 -0.5241 -1.0219
   31MOL   H11311573   1.338   3.032   2.869  1.8296 -1.0703  0.1331
   31MOL   H11411574   1.373   3.025   3.041  0.4507  0.3408  0.3384
   31MOL   H11511575   1.333   3.175   2.965 -1.2450 -0.5764 -2.5798
   31MOL   C11611576   1.766   3.483   2.526 -0.3314 -0.3480 -0.0316
   31MOL   C11711577   1.716   3.624   2.551 -0.2926  0.5374 -0.5732
   31MOL   C11811578   1.709   3.699   2.413  0.1068  0.2844  0.3407
   31MOL   C11911579   1.686   3.853   2.431 -0.0897 -0.7055  0.0049
   31MOL   C12011580   1.719   3.937   2.304 -0.1331  0.4491 -0.2454
   31MOL   C12111581   1.646   3.902   2.175 -0.3414  0.4425 -0.5528
   31MOL   O12211582   1.801   3.707   2.629  0.0921  1.0281  0.3316
   31MOL   H12311583   1.875   3.489   2.521 -0.2894 -0.7505  0.3688
   31MOL   H12411584   1.735   3.429   2.436  0.2679  0.9413 -1.0266
   31MOL   H12511585   1.616   3.628   2.593  0.6606  2.5762  1.5653
   31MOL   H12611586   1.803   3.678   2.362 -0.4421 -1.2257 -0.0681
   31MOL   H12711587   1.622   3.667   2.356  0.2764  1.9048 -0.8443
   31MOL   H12811588   1.757   3.887   2.506  0.4557 -3.9744  1.0627
   31MOL   H12911589   1.585   3.880   2.464 -0.2042  1.4594 -1.9940
   31MOL   H13011590   1.718   4.042   2.335  0.2506  0.0043  1.2988
   31MOL   H13111591   1.826   3.927   2.286 -0.2986 -1.7060 -0.0623
   31MOL   H13211592   1.642   3.796   2.150  2.1832  0.4648 -1.1217
   31MOL   H13311593   1.544   3.937   2.194 -0.2824  1.3915 -1.8761
   31MOL   H13411594   1.675   3.966   2.091  0.2988  0.3320 -0.4183
   31MOL   C13511595   1.805   3.672   2.766  0.3900  0.1923 -0.2462
   31MOL   C13611596   1.886   3.769   2.852 -0.5135  0.3714  0.1810
   31MOL   C13711597   2.039   3.751   2.828  0.5095  0.5243 -1.1754
   31MOL   C13811598   2.116   3.862   2.901 -0.2737 -0.5017  0.2753
   31MOL   C13911599   2.253   3.898   2.832 -0.4199  0.4075  0.1038
   31MOL   C14011600   2.317   4.026   2.877  0.5431  0.0359 -0.8661
   31MOL   O14111601   1.876   3.749   2.991 -0.3370  0.1728 -0.4479
   31MOL   H14211602   1.698   3.670   2.788  0.4619  1.7372  0.3009
   31MOL   H14311603   1.840   3.570   2.778  0.0695  0.1109 -0.0022
   31MOL   H14411604   1.856   3.866   2.812  0.7762  1.5468  2.0286
   31MOL   H14511605   2.076   3.650   2.847 -1.9299  0.0811  1.4685
   31MOL   H14611606   2.046   3.769   2.720 -0.4600  2.7308 -0.8980
   31MOL   H14711607   2.130   3.822   3.002  1.9536  2.0199  1.0469
   31MOL   H14811608   2.062   3.955   2.918  1.1112  0.3943 -0.0600
   31MOL   H14911609   2.234   3.922   2.728  1.6208 -0.2819 -0.4613
   31MOL   H15011610   2.319   3.812   2.842 -0.7023  0.1513 -0.2521
   31MOL   H15111611   2.358   4.015   2.977  0.0250 -0.9642 -0.7528
   31MOL   H15211612   2.395   4.059   2.809 -0.0068 -1.8461 -2.4549
   31MOL   H15311613   2.250   4.112   2.869 -0.6702 -1.0347 -2.5477
   31MOL   C15411614   1.739   3.764   3.037 -0.0779  0.1613 -0.8766
   31MOL   C15511615   1.722   3.758   3.194  0.3225 -0.1647  0.2415
   31MOL   C15611616   1.607   3.840   3.255  0.4063  0.5429  0.2666
   31MOL   C15711617   1.639   3.875   3.399  0.3343  0.7694 -0.1431
   31MOL   C15811618   1.526   3.934   3.477  0.2943  0.2400 -0.1725
   31MOL   C15911619   1.575   4.035   3.577 -0.1707  0.2688  1.0590
   31MOL   O16011620   1.689   3.625   3.233  0.1723 -0.1001  0.0141
   31MOL   H16111621   1.676   3.682   3.004 -1.6682  0.5255  1.1489
   31MOL   H16211622   1.710   3.863   3.004 -0.3817 -0.7524 -3.4315
   31MOL   H16311623   1.811   3.771   3.256 -0.3316 -1.7039  1.5392
   31MOL   H16411624   1.516   3.781   3.261  0.1513  0.5959 -2.3408
   31MOL   H16511625   1.583   3.931   3.199 -3.2075  0.3793  1.4316
   31MOL   H16611626   1.711   3.956   3.403 -0.5483  1.5345  0.5396
   31MOL   H16711627   1.677   3.780   3.439  0.6986  0.5616 -0.9838
   31MOL   H16811628   1.455   3.998   3.425 -0.2959 -0.2601  0.0189
   31MOL   H16911629   1.466   3.860   3.530 -1.7311  0.7380 -1.7415
   31MOL   H17011630   1.648   3.988   3.643  0.3631  0.5167  0.6563
   31MOL   H17111631   1.490   4.071   3.635  0.0323  1.0334  0.8814
   31MOL   H17211632   1.635   4.118   3.539 -0.8075 -0.1430 -0.8635
   31MOL   C17311633   1.796   3.528   3.202  0.0762 -0.9175  0.1483
   31MOL   C17411634   1.751   3.384   3.242 -0.1465 -0.4687  0.2525
   31MOL   C17511635   1.823   3.284   3.157 -0.0994 -0.6185 -0.1595
   31MOL   C17611636   1.809   3.141   3.199  0.6998 -0.2287 -0.1341
   31MOL   C17711637   1.885   3.064   3.098  0.0821  0.4390  0.3073
   31MOL   C17811638   1.864   2.911   3.100  0.4509  0.2782  0.0163
   31MOL   O17911639   1.779   3.355   3.378  0.2931 -0.5983 -0.5614
   31MOL   H18011640   1.886   3.559   3.257  0.3736  0.9685 -1.3489
   31MOL   H18111641   1.823   3.538   3.097  0.4075  2.2070  0.4720
   31MOL   H18211642   1.648   3.373   3.207  0.4369  1.1050 -2.1246
   31MOL   H18311643   1.784   3.303   3.057 -0.3601  0.0726  0.0650
   31MOL   H18411644   1.927   3.316   3.143 -0.1551 -0.7075 -0.7909
   31MOL   H18511645   1.849   3.127   3.300 -1.8777  0.3082  1.0132
   31MOL   H18611646   1.709   3.098   3.208  0.9437 -0.4570  1.7961
   31MOL   H18711647   1.851   3.087   2.997  2.0462  0.6614 -0.3266
   31MOL   H18811648   1.993   3.082   3.106  0.1440 -0.6580  2.1445
   31MOL   H18911649   1.895   2.871   3.197 -3.0063 -1.3288  0.5166
   31MOL   H19011650   1.917   2.852   3.025 -1.0799  0.4316 -1.2164
   31MOL   H19111651   1.758   2.890   3.092  0.2531 -0.3542  3.5930
   31MOL   C19211652   1.679   3.407   3.467  0.1543 -0.3308 -0.0898
   31MOL   C19311653   1.717   3.385   3.613  0.6656  0.6207 -0.3326
   31MOL   C19411654   1.732   3.231   3.634 -0.1468  0.1791 -0.5287
   31MOL   C19511655   1.769   3.179   3.773 -0.0998  0.2347 -0.2459
   31MOL   C19611656   1.794   3.031   3.794 -0.7381 -0.2212  0.0530
   31MOL   C19711657   1.820   2.979   3.943 -0.3470 -0.0750 -0.5499
   31MOL   O19811658   1.625   3.434   3.708 -0.3509 -1.1613  0.1268
   31MOL   H19911659   1.677   3.516   3.458 -1.6431 -0.4369 -1.2604
   31MOL   H20011660   1.578   3.376   3.440  0.2198 -1.6795  1.1905
   31MOL   H20111661   1.804   3.446   3.639 -1.7242  3.4887  1.1712
   31MOL   H20211662   1.637   3.180   3.618 -0.1698 -0.9326  2.7568
   31MOL   H20311663   1.807   3.197   3.563  0.2326 -3.0253  1.3176
   31MOL   H20411664   1.687   3.206   3.840  0.7403  0.9431  0.5033
   31MOL   H20511665   1.856   3.231   3.811  0.9627  0.3329 -2.7618
   31MOL   H20611666   1.715   2.973   3.746 -1.7301  1.3266 -0.1992
   31MOL   H20711667   1.883   3.009   3.735 -0.0917  2.4810 -0.0176
   31MOL   H20811668   1.885   3.048   3.997  0.6437 -0.5156 -1.1621
   31MOL   H20911669   1.724   2.988   3.992 -0.6930 -2.8963 -0.6237
   31MOL   H21011670   1.870   2.883   3.953 -0.9447 -0.2005  1.2933
   31MOL   C21111671   1.622   3.574   3.729  0.0829 -0.1251  0.4161
   31MOL   C21211672   1.512   3.605   3.829  0.1507 -0.3210 -0.1416
   31MOL   C21311673   1.448   3.744   3.804 -0.4117 -0.0575  0.6404
   31MOL   C21411674   1.317   3.770   3.882  0.9597  0.1555  0.4848
   31MOL   C21511675   1.285   3.923   3.886  0.2389 -0.2562  0.4198
   31MOL   C21611676   1.227   3.971   3.751 -0.2501  0.0198 -0.2047
   31MOL   O21711677   1.572   3.594   3.959  0.6241  0.5779 -0.2571
   31MOL   H21811678   1.606   3.630   3.637  0.5565 -1.8287 -0.7424
   31MOL   H21911679   1.721   3.599   3.767  1.4122 -3.1153 -0.8957
   31MOL   H22011680   1.436   3.528   3.813  1.4636 -1.5283 -0.7892
   31MOL   H22111681   1.524   3.822   3.813 -0.8097  0.6180 -1.4035
   31MOL   H22211682   1.422   3.744   3.698 -0.1471  0.2338  0.5749
   31MOL   H22311683   1.230   3.711   3.854  1.1835  0.2569 -0.4331
   31MOL   H22411684   1.337   3.743   3.986 -0.9147  0.0831  0.8469
   31MOL   H22511685   1.208   3.939   3.961  1.9833 -1.3775  2.5061
   31MOL   H22611686   1.371   3.981   3.919  0.6403 -0.7679  0.2869
   31MOL   H22711687   1.187   4.072   3.757  1.2415  0.5554  1.2116
   31MOL   H22811688   1.139   3.911   3.727  1.6491 -2.2390 -1.7210
   31MOL   H22911689   1.299   3.971   3.669  0.3478  0.3434  0.3135
   31MOL   C23011690   1.643   3.475   3.993  0.5649 -0.3464  0.1237
   31MOL   C23111691   1.678   3.467   4.142  0.4521  0.1023  0.5091
   31MOL   C23211692   1.823   3.491   4.164 -0.0031 -0.0850  0.6541
   31MOL   C23311693   1.866   3.483   4.300 -0.1906  0.0792 -0.4179
   31MOL   C23411694   2.016   3.507   4.321  0.1069 -0.0603  0.7758
   31MOL   C23511695   2.040   3.467   4.463  0.1376 -0.0900  0.4637
   31MOL   O23611696   1.653   3.334   4.175  0.1012 -0.2824  0.4640
   31MOL   H23711697   1.566   3.404   3.962  0.1121  0.1071  0.2074
   31MOL   H23811698   1.732   3.467   3.931  1.3916  4.1142  0.5773
   31MOL   H23911699   1.609   3.537   4.191  0.4494  0.2885  0.2350
   31MOL   H24011700   1.840   3.595   4.136  1.8538 -0.2153  1.2610
   31MOL   H24111701   1.891   3.438   4.098  1.7483  2.3492  0.4284
   31MOL   H24211702   1.848   3.381   4.331 -1.4414  0.0960 -1.0721
   31MOL   H24311703   1.806   3.548   4.363 -1.4441 -0.0238 -1.5029
   31MOL   H24411704   2.072   3.434   4.263  0.6394  1.7975 -1.0980
   31MOL   H24511705   2.059   3.602   4.288 -1.5814 -0.3987 -2.5954
   31MOL   H24611706   1.976   3.516   4.537  0.2268  0.9662 -0.1553
   31MOL   H24711707   2.142   3.490   4.494  0.3869  0.1180 -0.5216
   31MOL   H24811708   2.020   3.359   4.460  1.4610 -0.4112  2.2485
   31MOL   C24911709   1.529   3.296   4.226  0.3678 -0.1658 -0.3514
   31MOL   C25011710   1.522   3.143   4.239  0.0291  0.0693 -0.5177
   31MOL   C25111711   1.416   3.081   4.153 -0.4444 -0.5123 -0.1803
   31MOL   C25211712   1.433   2.926   4.153  0.1869  0.6572  0.5442
   31MOL   C25311713   1.346   2.865   4.050  0.2656  0.3818 -0.1148
   31MOL   C25411714   1.397   2.871   3.898  0.0357  0.5419  0.3236
   31MOL   O25511715   1.489   3.121   4.375 -0.3282 -0.0838  0.1852
   31MOL   H25611716   1.502   3.338   4.323  0.4992  0.8361 -0.7516
   31MOL   H25711717   1.449   3.333   4.162  0.6496  2.5028  0.7720
   31MOL   H25811718   1.615   3.095   4.208  0.3095 -0.5225  1.1718
   31MOL   H25911719   1.313   3.103   4.182 -0.3857 -0.8068  0.2740
   31MOL   H26011720   1.423   3.117   4.051 -1.8829 -0.2784 -0.2069
   31MOL   H26111721   1.535   2.896   4.129 -0.2181 -0.5768  0.3348
   31MOL   H26211722   1.396   2.887   4.248  1.1035  0.9080  1.0131
   31MOL   H26311723   1.348   2.757   4.068 -2.9301  0.4360  0.9028
   31MOL   H26411724   1.244   2.901   4.063  0.3169  0.2368  0.6935
   31MOL   H26511725   1.323   2.838   3.826  0.9718  0.7342 -0.7340
   31MOL   H26611726   1.488   2.815   3.879 -0.1268  0.3818  0.0120
   31MOL   H26711727   1.427   2.975   3.888  1.6979  0.5962  4.6573
   31MOL   C26811728   1.606   3.103   4.449 -1.0118 -0.1429  0.6099
   31MOL   C26911729   1.583   3.061   4.596  0.1441 -0.6150  0.1075
   31MOL   C27011730   1.717   3.019   4.655  0.5283  0.2388  0.9257
   31MOL   C27111731   1.826   3.129   4.662  1.5960  0.3337 -0.2795
   31MOL   C27211732   1.968   3.093   4.714 -0.5306  0.4605  0.0104
   31MOL   C27311733   2.064   3.207   4.736 -0.2578 -0.6451 -1.2444
   31MOL   O27411734   1.515   2.944   4.618  0.2747  0.5225  0.1196
   31MOL   H27511735   1.671   3.190   4.438 -0.7994 -0.3358  0.3361
   31MOL   H27611736   1.661   3.024   4.397 -0.8016  1.3258 -1.4597
   31MOL   H27711737   1.547   3.149   4.650 -0.6156 -0.7772 -0.1299
   31MOL   H27811738   1.705   2.970   4.752  1.4420 -1.6492  0.1107
   31MOL   H27911739   1.763   2.935   4.603 -0.8365 -1.2484  2.0650
   31MOL   H28011740   1.834   3.180   4.566  1.6268  0.0441 -0.4309
   31MOL   H28111741   1.799   3.216   4.722  0.9617  1.9013 -2.7470
   31MOL   H28211742   1.953   3.041   4.809  0.5584  1.6485  0.8610
   31MOL   H28311743   2.011   3.012   4.656  1.1816  0.6782  0.9350
   31MOL   H28411744   2.157   3.176   4.784 -1.2914 -1.8449  0.0465
   31MOL   H28511745   2.095   3.260   4.647  0.5400  0.9352 -0.0520
   31MOL   H28611746   2.019   3.281   4.803 -0.6948 -1.4897 -0.5847
   31MOL   C28711747   1.376   2.943   4.596  0.0830  1.1699 -0.2262
   31MOL   C28811748   1.325   2.802   4.645 -0.8335 -0.0314  0.1740
   31MOL   C28911749   1.210   2.743   4.560  0.3116  0.6552 -0.6208
   31MOL   C29011750   1.200   2.584   4.569  0.9520  0.5563  0.5328
   31MOL   C29111751   1.080   2.531   4.483  0.2953  0.7342  0.5054
   31MOL   C29211752   0.946   2.562   4.542  0.3602  0.0493  0.0606
   31MOL   O29311753   1.299   2.809   4.782  0.1415  0.1520  0.3592
   31MOL   H29411754   1.356   2.955   4.490 -0.7839 -1.1638 -0.3597
   31MOL   H29511755   1.334   3.030   4.646 -0.7202  0.8260 -0.2940
   31MOL   H29611756   1.412   2.738   4.628  1.6797  1.8962  4.8333
   31MOL   H29711757   1.117   2.791   4.589 -0.2912 -1.1025  0.4669
   31MOL   H29811758   1.232   2.773   4.457 -0.3260  0.8251 -0.7088
   31MOL   H29911759   1.295   2.545   4.533 -0.3444 -0.9851 -1.3936
   31MOL   H30011760   1.192   2.556   4.674  2.2616  2.9796  1.3185
   31MOL   H30111761   1.088   2.423   4.465 -0.9439  0.8603 -0.8919
   31MOL   H30211762   1.077   2.574   4.383  0.4115  1.0448  0.6366
   31MOL   H30311763   0.865   2.545   4.471 -0.9070  2.5291  0.8516
   31MOL   H30411764   0.929   2.491   4.623  0.3573 -0.6666 -0.5614
   31MOL   H30511765   0.944   2.667   4.571 -0.7744  0.5677 -1.8162
   31MOL   C30611766   1.393   2.738   4.865  0.0828 -0.5058 -0.8197
   31MOL   C30711767   1.332   2.724   5.004  1.1359  0.1145 -0.0227
   31MOL   C30811768   1.419   2.639   5.098 -0.0652 -0.1813  0.3278
   31MOL   C30911769   1.345   2.604   5.231 -0.3507  0.2622 -0.2071
   31MOL   C31011770   1.428   2.507   5.317 -0.5570 -0.0748  0.2437
   31MOL   C31111771   1.539   2.577   5.394 -0.2704 -0.5195 -0.4874
   31MOL   O31211772   1.215   2.639   4.976  0.2426  0.1663  0.1211
   31MOL   H31311773   1.404   2.634   4.835  1.5055 -0.9991  1.2857
   31MOL   H31411774   1.486   2.795   4.873 -0.1956 -0.3114  1.2730
   31MOL   H31511775   1.311   2.821   5.048 -0.9864  0.2169 -1.1997
   31MOL   H31611776   1.513   2.690   5.119 -0.5686  0.2543  1.5640
   31MOL   H31711777   1.447   2.545   5.052 -0.2351  0.7583 -1.7771
   31MOL   H31811778   1.324   2.696   5.286  0.3712 -0.0687  0.6377
   31MOL   H31911779   1.249   2.558   5.210 -0.4889 -0.6938  2.2682
   31MOL   H32011780   1.475   2.431   5.253 -1.7554 -0.6117 -0.0268
   31MOL   H32111781   1.350   2.458   5.376 -0.2363  1.4979  2.0254
   31MOL   H32211782   1.563   2.680   5.368 -0.9454  0.2372  1.7630
   31MOL   H32311783   1.503   2.581   5.497  1.0312  2.1032 -0.1091
   31MOL   H32411784   1.638   2.532   5.384  0.1332  0.2007  0.2816
   31MOL   C32511785   1.095   2.702   5.006  0.8710  0.0113 -0.9759
   31MOL   C32611786   0.979   2.640   4.922  0.5917  0.4578  0.7136
   31MOL   C32711787   0.867   2.732   4.879  0.1388 -0.4072  0.1950
   31MOL   C32811788   0.797   2.803   4.998  0.7447 -0.5298  0.1264
   31MOL   C32911789   0.700   2.917   4.957  0.9050  0.4761 -0.4590
   31MOL   C33011790   0.657   2.999   5.081 -0.0770  0.3629 -1.0853
   31MOL   O33111791   0.918   2.524   4.983  0.5052 -0.6148  0.5587
   31MOL   H33211792   1.101   2.808   4.981 -2.6263  0.7048  0.7859
   31MOL   H33311793   1.077   2.699   5.114 -1.9839  1.2094 -1.3777
   31MOL   H33411794   1.032   2.616   4.831 -0.5208  0.3591  0.0845
   31MOL   H33511795   0.906   2.814   4.818 -0.6542  0.0356  0.2822
   31MOL   H33611796   0.798   2.680   4.814 -1.3297 -1.6968  2.7068
   31MOL   H33711797   0.743   2.732   5.060 -1.4960  0.2280 -0.9122
   31MOL   H33811798   0.868   2.843   5.070  2.3892 -3.1283 -0.0121
   31MOL   H33911799   0.740   2.988   4.884  0.4849  1.0845 -0.0904
   31MOL   H34011800   0.608   2.877   4.913  0.2004  0.0547  1.3738
   31MOL   H34111801   0.608   2.935   5.154 -0.0426  0.0525 -1.3351
   31MOL   H34211802   0.736   3.045   5.141 -1.6705  1.1511  0.4515
   31MOL   H34311803   0.592   3.085   5.063 -0.5360 -0.0454 -1.3693
   31MOL   C34411804   1.009   2.420   5.015  0.3863  0.3036  0.2589
   31MOL   C34511805   1.065   2.341   4.897  1.1665 -0.0007 -0.6307
   31MOL   C34611806   1.208   2.298   4.920  0.0540  0.3077 -0.8084
   31MOL   C34711807   1.264   2.239   4.788  0.5017 -0.0697  0.8661
   31MOL   C34811808   1.410   2.197   4.791  0.1599 -0.0845  0.3236
   31MOL   C34911809   1.513   2.306   4.814 -0.1847  0.2263 -0.5661
   31MOL   O35011810   0.989   2.221   4.878 -0.4008 -0.0743 -0.6312
   31MOL   H35111811   0.957   2.353   5.084 -1.1521  0.1502 -1.0372
   31MOL   H35211812   1.085   2.448   5.089  2.2554 -2.6969 -0.4475
   31MOL   H35311813   1.066   2.393   4.802 -0.7432  0.1312 -0.6053
   31MOL   H35411814   1.206   2.221   4.998 -0.8796  0.8183 -0.3200
   31MOL   H35511815   1.263   2.389   4.941 -1.1047  0.4895  1.6070
   31MOL   H35611816   1.251   2.315   4.711  1.1434 -0.5599  0.2697
   31MOL   H35711817   1.199   2.164   4.744  1.8691 -0.0732 -1.2406
   31MOL   H35811818   1.439   2.141   4.702  1.8272  1.0198  0.1566
   31MOL   H35911819   1.421   2.126   4.873  2.1478  1.2641  1.2497
   31MOL   H36011820   1.613   2.263   4.811  0.1886  0.9529  0.7011
   31MOL   H36111821   1.508   2.352   4.913 -1.3876 -1.5236  0.2024
   31MOL   H36211822   1.502   2.389   4.745  1.7604 -0.0627 -1.2426
   31MOL   C36311823   0.881   2.231   4.794 -0.5531  0.2217 -0.7250
   31MOL   C36411824   0.796   2.106   4.818  0.5515 -0.2432 -0.0281
   31MOL   C36511825   0.646   2.112   4.774 -0.1473  0.0587 -0.6694
   31MOL   C36611826   0.555   1.983   4.793 -0.4063  0.4916  0.6161
   31MOL   C36711827   0.421   1.990   4.714  1.1352 -0.0834 -0.5226
   31MOL   C36811828   0.347   1.858   4.724  0.4297 -0.4355  0.2819
   31MOL   O36911829   0.853   1.999   4.747  0.1449 -0.0539  0.5268
   31MOL   H37011830   0.921   2.238   4.693  0.2962 -0.9728 -0.4711
   31MOL   H37111831   0.820   2.319   4.815 -0.1120  0.7742 -1.7075
   31MOL   H37211832   0.793   2.098   4.926  2.0610  2.4314  0.2541
   31MOL   H37311833   0.585   2.191   4.818 -1.6721 -1.7713  0.5733
   31MOL   H37411834   0.656   2.136   4.668  2.2163  0.8236 -0.3037
   31MOL   H37511835   0.608   1.889   4.776 -0.2506  0.7588 -0.4038
   31MOL   H37611836   0.524   1.982   4.897  1.4329  0.1582  1.1772
   31MOL   H37711837   0.356   2.072   4.745 -0.9605 -1.1526 -1.9524
   31MOL   H37811838   0.455   1.995   4.610  0.6246  1.1742 -0.6334
   31MOL   H37911839   0.426   1.786   4.749 -0.5066 -2.6913 -2.9278
   31MOL   H38011840   0.273   1.847   4.803 -0.3779 -0.1708 -0.4365
   31MOL   H38111841   0.312   1.816   4.630  0.6551 -1.3062  0.5781
   31MOL   H38211842   0.940   1.989   4.782  0.6938  0.2338 -0.7501
   32MOL     C111843   2.759   6.780   1.406  0.2770 -0.1774  0.0010
   32MOL     C211844   2.864   6.854   1.330  0.1043  0.4852  0.1007
   32MOL     C311845   3.005   6.843   1.389  0.7105 -0.1394 -0.2670
   32MOL     C411846   3.065   6.695   1.396 -0.2673  0.1052  0.2803
   32MOL     C511847   3.190   6.683   1.485  0.0766 -0.0423 -0.1887
   32MOL     C611848   3.246   6.543   1.517 -0.6138  0.0452 -0.1393
   32MOL     O711849   2.849   6.825   1.196 -0.4396  0.4211 -0.0039
   32MOL     H811850   2.774   6.797   1.512  0.8138  0.9137 -0.2373
   32MOL     H911851   2.754   6.675   1.379 -2.4022 -0.6043  1.9852
   32MOL    H1011852   2.838   6.959   1.334 -0.6507  0.2656  1.2003
   32MOL    H1111853   3.078   6.897   1.328 -0.0834  1.8537  0.5219
   32MOL    H1211854   3.003   6.885   1.490  0.4001  0.4129 -0.5044
   32MOL    H1311855   2.992   6.624   1.434 -0.4554 -0.1378 -0.5266
   32MOL    H1411856   3.099   6.655   1.301  1.5033  0.2404  0.8496
   32MOL    H1511857   3.267   6.749   1.444 -1.2813  0.8136 -1.3761
   32MOL    H1611858   3.171   6.717   1.587  1.7699  0.3260  0.0187
   32MOL    H1711859   3.335   6.544   1.579 -0.2663  2.6878 -0.5962
   32MOL    H1811860   3.169   6.480   1.563 -2.0218 -1.2814 -4.0689
   32MOL    H1911861   3.284   6.487   1.431 -3.0700 -1.4298 -0.3011
   32MOL    H2011862   2.658   6.819   1.392  0.2063 -0.2259  0.3843
   32MOL    C2111863   2.934   6.902   1.108 -0.5695  0.1819 -0.3118
   32MOL    C2211864   2.867   6.904   0.971  0.6774  0.2395  0.0696
   32MOL    C2311865   2.911   7.012   0.867 -0.0241 -0.7608  0.1633
   32MOL    C2411866   2.806   7.015   0.754 -0.2660  0.4530  0.4438
   32MOL    C2511867   2.849   7.085   0.617 -0.0700  0.0099  0.3983
   32MOL    C2611868   2.725   7.122   0.533 -0.4098  0.1229  0.0450
   32MOL    O2711869   2.899   6.779   0.903  0.0894 -0.2415 -0.2020
   32MOL    H2811870   2.943   7.001   1.153  0.8308 -0.2631  0.4124
   32MOL    H2911871   3.034   6.858   1.109 -1.1342 -1.1033  2.1137
   32MOL    H3011872   2.761   6.927   0.980  0.1949 -1.3260 -1.2757
   32MOL    H3111873   3.010   6.989   0.829  0.4533  0.6200  0.5357
   32MOL    H3211874   2.894   7.110   0.913 -5.2320 -0.5480 -1.8202
   32MOL    H3311875   2.721   7.073   0.792 -0.3724 -0.0718  1.0168
   32MOL    H3411876   2.778   6.914   0.724  1.6068 -0.5133  1.8516
   32MOL    H3511877   2.915   7.170   0.631 -1.6657  1.1187  1.3997
   32MOL    H3611878   2.905   7.010   0.562 -1.1675 -0.2516 -0.3864
   32MOL    H3711879   2.669   7.199   0.585  0.0136  0.4393  0.0313
   32MOL    H3811880   2.659   7.037   0.513  0.2824 -1.0904  2.6477
   32MOL    H3911881   2.747   7.165   0.436  1.0296  1.9889  1.1656
   32MOL    C4011882   2.798   6.680   0.912  0.6948 -0.2598 -0.0412
   32MOL    C4111883   2.831   6.559   0.997 -0.1491  0.5151 -0.1633
   32MOL    C4211884   2.969   6.507   0.959 -0.3613 -0.4225 -0.2625
   32MOL    C4311885   3.037   6.415   1.057 -0.1584  0.5364  0.1598
   32MOL    C4411886   3.183   6.384   1.019  0.6681  0.9350 -0.2765
   32MOL    C4511887   3.279   6.351   1.132 -0.5732 -0.1160  0.1596
   32MOL    O4611888   2.726   6.464   0.986 -0.2371 -0.1606  0.5120
   32MOL    H4711889   2.768   6.656   0.810 -2.7338  1.1927  0.5506
   32MOL    H4811890   2.704   6.726   0.943  1.2799  0.7478  0.2881
   32MOL    H4911891   2.849   6.583   1.102  1.2310 -0.1660 -0.2257
   32MOL    H5011892   2.961   6.465   0.858  1.2985  0.8638 -0.9530
   32MOL    H5111893   3.028   6.598   0.955  1.3371 -1.5405 -2.1441
   32MOL    H5211894   2.989   6.320   1.082 -0.6496  0.9716  0.9041
   32MOL    H5311895   3.030   6.462   1.155 -0.6034 -0.2672  0.5266
   32MOL    H5411896   3.165   6.302   0.951 -0.2292  1.6171 -0.8790
   32MOL    H5511897   3.216   6.464   0.953  2.3426 -1.8210 -2.8358
   32MOL    H5611898   3.229   6.283   1.200 -0.8186  1.0960  1.2148
   32MOL    H5711899   3.362   6.293   1.093 -0.8042  1.4480 -2.8286
   32MOL    H5811900   3.308   6.440   1.188  2.3524 -0.5431 -0.5536
   32MOL    C5911901   2.616   6.485   1.082 -0.4697  0.1949  0.8559
   32MOL    C6011902   2.639   6.402   1.220  0.1002  0.0446  0.2062
   32MOL    C6111903   2.549   6.435   1.336  0.6277 -1.0496 -0.1953
   32MOL    C6211904   2.586   6.385   1.476  0.4067 -0.2050 -0.1964
   32MOL    C6311905   2.477   6.401   1.587 -0.3325 -0.4363  0.6299
   32MOL    C6411906   2.472   6.550   1.642  0.8925  0.2276  0.1103
   32MOL    O6511907   2.613   6.266   1.193 -0.6778 -0.1704 -0.7738
   32MOL    H6611908   2.531   6.446   1.024  1.6277 -1.3783 -1.2561
   32MOL    H6711909   2.603   6.592   1.094  2.8861  0.9841 -1.8378
   32MOL    H6811910   2.745   6.409   1.245  0.3883 -0.9524 -0.7098
   32MOL    H6911911   2.451   6.390   1.319 -0.6272  0.4833  2.6657
   32MOL    H7011912   2.541   6.543   1.352  2.3730 -0.7451 -1.2488
   32MOL    H7111913   2.683   6.420   1.512 -0.8324  1.8874  1.2252
   32MOL    H7211914   2.600   6.278   1.463  1.2440 -0.2299  0.8780
   32MOL    H7311915   2.505   6.331   1.665  1.4205 -0.7305 -0.2373
   32MOL    H7411916   2.379   6.368   1.551  0.1697 -0.8466 -0.3862
   32MOL    H7511917   2.567   6.603   1.645  0.2805  1.2747  1.0781
   32MOL    H7611918   2.416   6.609   1.569  1.2273 -0.8541 -1.0498
   32MOL    H7711919   2.417   6.560   1.735 -2.3371 -0.8774 -1.6078
   32MOL    C7811920   2.694   6.182   1.111  0.7740  0.2645 -0.1901
   32MOL    C7911921   2.608   6.061   1.077 -0.4145 -0.0487  0.1852
   32MOL    C8011922   2.695   5.932   1.100  0.3829  0.0452  0.2666
   32MOL    C8111923   2.695   5.892   1.248  0.2329 -0.4284 -0.3484
   32MOL    C8211924   2.778   5.764   1.264 -0.0437 -1.0440  0.4757
   32MOL    C8311925   2.783   5.705   1.401  0.2438  0.2014  0.3601
   32MOL    O8411926   2.561   6.083   0.948  0.1063  0.8308  0.4010
   32MOL    H8511927   2.774   6.163   1.182  0.2046  3.7981  1.5152
   32MOL    H8611928   2.739   6.229   1.023 -0.0378 -0.3231 -0.9273
   32MOL    H8711929   2.526   6.048   1.147 -0.1617  2.6658  1.0415
   32MOL    H8811930   2.649   5.853   1.042  0.6561 -1.2167  1.7512
   32MOL    H8911931   2.797   5.949   1.068  1.2026 -0.1167  2.6697
   32MOL    H9011932   2.590   5.876   1.273  0.4531 -1.0217  0.1946
   32MOL    H9111933   2.726   5.966   1.321 -2.3084  0.1812  0.1644
   32MOL    H9211934   2.732   5.701   1.187 -2.0187 -0.6357  1.2972
   32MOL    H9311935   2.882   5.773   1.232 -1.0432  0.4168 -2.6387
   32MOL    H9411936   2.690   5.685   1.455 -1.5482 -1.6732 -3.2025
   32MOL    H9511937   2.836   5.779   1.462  1.3388 -0.2420 -0.0455
   32MOL    H9611938   2.849   5.618   1.399  0.2625  0.2176  0.2406
   32MOL    C9711939   2.453   6.167   0.921 -0.0041 -0.0261 -0.0834
   32MOL    C9811940   2.409   6.152   0.781 -0.0212 -0.6499 -0.4193
   32MOL    C9911941   2.323   6.024   0.753  0.5906 -0.7440  0.6129
   32MOL   C10011942   2.313   6.009   0.597  0.0570 -0.0726 -0.3441
   32MOL   C10111943   2.177   5.936   0.558 -0.2503 -0.1270 -0.3930
   32MOL   C10211944   2.175   5.794   0.623  0.6152 -0.3458 -0.4638
   32MOL   O10311945   2.347   6.277   0.750 -0.3345 -0.5428 -0.6539
   32MOL   H10411946   2.475   6.265   0.963  0.2535  0.0210 -0.3287
   32MOL   H10511947   2.367   6.136   0.982 -0.6033 -3.5455 -2.5471
   32MOL   H10611948   2.494   6.140   0.714 -1.4761  0.7349 -2.6350
   32MOL   H10711949   2.222   6.044   0.788 -0.0121  1.2093 -2.0679
   32MOL   H10811950   2.347   5.937   0.813  0.8024 -1.2877 -0.2463
   32MOL   H10911951   2.395   5.949   0.558  0.0481 -1.1345  1.2288
   32MOL   H11011952   2.308   6.105   0.546  1.8995 -1.0125 -2.3582
   32MOL   H11111953   2.140   5.936   0.455 -0.7266  3.9472 -0.2971
   32MOL   H11211954   2.095   5.991   0.605  1.5161 -0.0902  2.7203
   32MOL   H11311955   2.086   5.736   0.605  0.7347 -0.4350 -0.7622
   32MOL   H11411956   2.245   5.722   0.582 -2.1893 -4.9655  2.4412
   32MOL   H11511957   2.191   5.780   0.730 -0.9470 -2.5284 -0.5034
   32MOL   C11611958   2.434   6.389   0.723 -0.5915 -0.5622  0.6829
   32MOL   C11711959   2.355   6.517   0.744  0.8624 -0.4618 -0.1390
   32MOL   C11811960   2.445   6.643   0.726  0.5575 -0.9080  0.1439
   32MOL   C11911961   2.364   6.773   0.720  0.3095 -0.1514 -0.6612
   32MOL   C12011962   2.446   6.891   0.758  0.5353 -0.3054 -0.1609
   32MOL   C12111963   2.393   7.022   0.708  0.7637 -0.5351  0.1740
   32MOL   O12211964   2.321   6.515   0.879 -0.5490  1.2359 -0.3327
   32MOL   H12311965   2.518   6.400   0.792  0.1607 -2.9766  0.1867
   32MOL   H12411966   2.471   6.378   0.621 -3.2182 -1.4729 -0.1963
   32MOL   H12511967   2.267   6.517   0.680  0.9426 -0.6280 -0.2489
   32MOL   H12611968   2.517   6.651   0.807 -0.4946  0.2795  0.9833
   32MOL   H12711969   2.499   6.635   0.632  1.6729 -0.8181  0.7620
   32MOL   H12811970   2.278   6.771   0.787  0.2453 -1.9540 -0.7855
   32MOL   H12911971   2.332   6.771   0.615 -1.2305  0.3031 -0.2112
   32MOL   H13011972   2.452   6.895   0.867  2.7943 -2.9605 -0.1464
   32MOL   H13111973   2.546   6.877   0.719  0.4565 -0.8547 -0.1669
   32MOL   H13211974   2.386   7.031   0.599  3.4603  2.4316  0.1733
   32MOL   H13311975   2.297   7.041   0.755  0.5932 -1.0790  0.0563
   32MOL   H13411976   2.461   7.102   0.736 -0.4845  0.0473  1.5804
   32MOL   C13511977   2.200   6.466   0.922  0.2895  0.2001  0.6078
   32MOL   C13611978   2.194   6.481   1.075  0.1509 -0.5350 -0.4108
   32MOL   C13711979   2.091   6.386   1.144 -0.6509  0.2300  0.1194
   32MOL   C13811980   2.103   6.388   1.295 -0.3474 -0.5275 -0.0966
   32MOL   C13911981   2.014   6.291   1.382  0.4166 -0.2503 -0.2786
   32MOL   C14011982   2.071   6.283   1.532  0.4496 -0.1709  0.1309
   32MOL   O14111983   2.142   6.612   1.110 -0.0028  0.4465 -0.3005
   32MOL   H14211984   2.122   6.521   0.870  1.6962  1.0474 -0.6510
   32MOL   H14311985   2.197   6.363   0.886 -1.2089 -0.3593  2.2760
   32MOL   H14411986   2.290   6.473   1.126 -1.1204  0.4850  2.2453
   32MOL   H14511987   1.991   6.403   1.105 -0.3329  1.5527 -0.1748
   32MOL   H14611988   2.112   6.283   1.115 -0.0296  0.2110  0.6158
   32MOL   H14711989   2.110   6.490   1.332  2.9947 -0.3182 -1.1030
   32MOL   H14811990   2.202   6.348   1.318 -0.6202 -1.4443 -0.4924
   32MOL   H14911991   2.011   6.193   1.335  0.6230  0.5970 -2.1104
   32MOL   H15011992   1.910   6.323   1.373  0.5651 -0.0466 -1.3308
   32MOL   H15111993   1.998   6.235   1.596 -0.7185  3.5340  1.7554
   32MOL   H15211994   2.166   6.229   1.537  0.2957 -0.3632  1.0013
   32MOL   H15311995   2.086   6.380   1.580  1.8137  0.5144 -1.6183
   32MOL   C15411996   2.241   6.714   1.105  0.8715 -0.0116 -1.0001
   32MOL   C15511997   2.180   6.856   1.106 -0.3279 -0.5145 -0.3603
   32MOL   C15611998   2.278   6.969   1.124  0.0571 -0.4869  0.4975
   32MOL   C15711999   2.380   6.949   1.239  0.4715  0.4834 -0.8531
   32MOL   C15812000   2.468   7.071   1.258 -0.0522 -0.6230  0.1132
   32MOL   C15912001   2.548   7.125   1.144 -0.1199 -0.3947  0.3709
   32MOL   O16012002   2.116   6.879   0.976 -0.1152  0.5221 -0.3006
   32MOL   H16112003   2.299   6.709   1.013 -2.1577 -0.1272 -2.9489
   32MOL   H16212004   2.307   6.699   1.190 -1.0229 -3.9910 -0.1338
   32MOL   H16312005   2.105   6.872   1.183  0.0247  2.4738 -0.5622
   32MOL   H16412006   2.220   7.061   1.127 -0.4512 -0.7279 -1.3047
   32MOL   H16512007   2.345   6.982   1.038  0.7687  1.5096  1.3324
   32MOL   H16612008   2.447   6.865   1.221  0.5306  0.6306 -1.3219
   32MOL   H16712009   2.323   6.926   1.329  2.9934 -0.4495  0.5633
   32MOL   H16812010   2.405   7.156   1.282 -0.3184 -0.2956 -1.7419
   32MOL   H16912011   2.530   7.047   1.345 -0.0703 -0.5287  0.1517
   32MOL   H17012012   2.589   7.223   1.171 -2.3678  1.3827 -2.3971
   32MOL   H17112013   2.491   7.126   1.052  2.6825 -1.6257 -1.4367
   32MOL   H17212014   2.632   7.061   1.117  0.9359  1.5346 -1.0561
   32MOL   C17312015   1.979   6.842   0.985 -0.3477 -0.4251  0.1490
   32MOL   C17412016   1.942   6.768   0.855 -0.1619 -0.6057  0.5861
   32MOL   C17512017   1.830   6.666   0.867 -0.3919 -0.6371  1.1311
   32MOL   C17612018   1.818   6.585   0.740  0.0462 -0.0637  0.1094
   32MOL   C17712019   1.691   6.509   0.727  0.0375  0.6114 -0.2518
   32MOL   C17812020   1.700   6.418   0.600  0.1883  1.4437 -0.1146
   32MOL   O17912021   1.893   6.861   0.757 -0.3748  0.2516  0.3591
   32MOL   H18012022   1.922   6.935   0.988 -0.2121 -0.3780  1.3998
   32MOL   H18112023   1.955   6.773   1.066  0.4772  1.3353  1.9167
   32MOL   H18212024   2.037   6.729   0.817  0.9343 -0.6126  3.2081
   32MOL   H18312025   1.850   6.604   0.955 -0.9228 -1.2461  0.8262
   32MOL   H18412026   1.736   6.715   0.891 -1.4859 -1.7012 -0.8531
   32MOL   H18512027   1.836   6.647   0.653 -1.0726  0.6392  0.3646
   32MOL   H18612028   1.905   6.520   0.742  1.0025  1.2344  2.3056
   32MOL   H18712029   1.677   6.454   0.821  0.6082  0.5064 -0.2253
   32MOL   H18812030   1.607   6.577   0.716 -1.1226 -0.8052 -0.3041
   32MOL   H18912031   1.725   6.465   0.505  0.0479  0.2506 -0.7405
   32MOL   H19012032   1.606   6.365   0.588 -0.2144  1.7915  1.3308
   32MOL   H19112033   1.767   6.334   0.617 -2.7478 -0.5860  1.8184
   32MOL   C19212034   2.001   6.935   0.695  0.3358 -0.7824  0.9533
   32MOL   C19312035   1.940   7.072   0.648 -0.2092 -0.8365 -0.0648
   32MOL   C19412036   1.892   7.147   0.764 -0.3224  0.1266  0.1957
   32MOL   C19512037   1.988   7.260   0.807  0.2467  0.0256  0.1572
   32MOL   C19612038   1.959   7.317   0.951  0.0769  0.8225 -0.2300
   32MOL   C19712039   2.048   7.439   0.972  0.1295 -0.1031  0.4428
   32MOL   O19812040   1.822   7.058   0.562  0.0051 -0.2057 -0.6576
   32MOL   H19912041   2.088   6.959   0.756  0.9795  0.4917 -0.4493
   32MOL   H20012042   2.037   6.878   0.609 -0.9851  1.6340 -1.2652
   32MOL   H20112043   2.020   7.123   0.593 -1.6519  2.3192  0.6077
   32MOL   H20212044   1.799   7.200   0.746 -0.4291 -0.2060 -0.2254
   32MOL   H20312045   1.857   7.082   0.845  1.7846 -1.6794 -0.2915
   32MOL   H20412046   1.965   7.337   0.734  0.5324 -1.1470 -1.1907
   32MOL   H20512047   2.095   7.242   0.794  0.2668 -0.4904  0.9653
   32MOL   H20612048   1.858   7.359   0.946 -0.1240  0.1341 -2.5190
   32MOL   H20712049   1.960   7.250   1.037  3.2115  1.8202  0.5554
   32MOL   H20812050   2.012   7.503   1.053 -1.7844 -1.2517  0.5175
   32MOL   H20912051   2.149   7.404   0.995 -0.4217 -0.9950  1.5329
   32MOL   H21012052   2.051   7.499   0.881 -2.1643 -1.6342 -0.6628
   32MOL   C21112053   1.847   7.020   0.430 -0.7809  0.1548 -0.8639
   32MOL   C21212054   1.774   7.110   0.334 -0.2005 -0.1377  0.1457
   32MOL   C21312055   1.755   7.057   0.188  0.0241 -0.2890 -0.3416
   32MOL   C21412056   1.679   7.161   0.098 -0.2903  0.2858  1.0353
   32MOL   C21512057   1.702   7.125   7.739  0.5503  0.0176  0.1398
   32MOL   C21612058   1.616   7.209   7.638 -0.0726  0.7037 -0.6887
   32MOL   O21712059   1.843   7.232   0.305  0.4137 -0.6096 -0.3980
   32MOL   H21812060   1.802   6.922   0.419  0.3268 -0.4243 -0.3217
   32MOL   H21912061   1.953   7.015   0.403  0.6596  1.3905  3.9243
   32MOL   H22012062   1.674   7.133   0.371 -0.3536 -0.2490 -0.1957
   32MOL   H22112063   1.850   7.030   0.142 -0.8753 -0.3540 -2.2358
   32MOL   H22212064   1.702   6.961   0.193 -0.2577 -0.1864 -1.2001
   32MOL   H22312065   1.573   7.151   0.119 -0.1918  0.6966  1.7399
   32MOL   H22412066   1.719   7.261   0.110  0.6254 -0.0823  1.0772
   32MOL   H22512067   1.808   7.137   7.715 -0.1787 -0.2870 -3.4287
   32MOL   H22612068   1.681   7.020   7.720  1.6682  0.1011 -1.6620
   32MOL   H22712069   1.625   7.316   7.659  1.3367 -0.0132  2.7068
   32MOL   H22812070   1.512   7.179   7.623  0.3698 -2.6690  2.2344
   32MOL   H22912071   1.648   7.197   7.535  1.7701 -1.1672  0.0744
   32MOL   C23012072   1.865   7.322   0.408  0.4686 -0.5216 -0.5776
   32MOL   C23112073   1.940   7.441   0.350  0.6209  0.0345  0.3159
   32MOL   C23212074   2.088   7.426   0.296  0.3756 -0.2098  0.1178
   32MOL   C23312075   2.186   7.385   0.411 -0.8852  0.0185  0.3833
   32MOL   C23412076   2.336   7.427   0.374  0.6489  0.2721 -0.4260
   32MOL   C23512077   2.367   7.576   0.402 -0.3037  0.0778 -0.0347
   32MOL   O23612078   1.945   7.541   0.448 -1.1796 -0.0214 -0.3311
   32MOL   H23712079   1.770   7.360   0.445 -0.5066 -0.6018 -2.9129
   32MOL   H23812080   1.909   7.280   0.498  2.5286  2.1127 -0.3000
   32MOL   H23912081   1.881   7.470   0.264 -1.0239 -1.4475  0.9147
   32MOL   H24012082   2.128   7.522   0.262 -0.1437  0.4479  1.3091
   32MOL   H24112083   2.085   7.352   0.217 -0.9990  0.8873 -0.8938
   32MOL   H24212084   2.190   7.280   0.439  1.8967  0.4718  1.8879
   32MOL   H24312085   2.153   7.436   0.502  0.6422  0.3178  0.7947
   32MOL   H24412086   2.399   7.369   0.441 -1.2278 -2.3712 -0.8839
   32MOL   H24512087   2.368   7.405   0.272  2.6051 -0.8016  0.3778
   32MOL   H24612088   2.351   7.604   0.506 -1.5216  0.8373 -0.4128
   32MOL   H24712089   2.294   7.641   0.355 -0.0123 -0.7439 -1.6521
   32MOL   H24812090   2.465   7.607   0.367 -0.6576  0.6440 -0.5338
   32MOL   C24912091   1.903   7.671   0.416  0.1742  0.5408  0.1585
   32MOL   C25012092   1.774   7.699   0.481  0.5081 -0.1416  0.3976
   32MOL   C25112093   1.793   7.686   0.635 -0.1889 -0.5608 -1.0717
   32MOL   C25212094   1.661   7.729   0.706 -0.2594  0.1424 -0.5371
   32MOL   C25312095   1.673   7.740   0.859 -0.7716 -0.5568  0.6340
   32MOL   C25412096   1.546   0.004   0.935  0.0763 -0.0057  0.7436
   32MOL   O25512097   1.674   7.613   0.432 -0.1454 -0.4069 -0.1291
   32MOL   H25612098   1.977   7.744   0.450  0.2327  1.3293 -1.6205
   32MOL   H25712099   1.898   7.691   0.309  0.4664 -1.2749 -0.2007
   32MOL   H25812100   1.736   0.016   0.481 -2.3621 -1.1347  2.1725
   32MOL   H25912101   1.819   7.581   0.654 -0.9286 -0.6164 -0.3573
   32MOL   H26012102   1.867   7.755   0.676 -0.1520 -1.1964 -0.0561
   32MOL   H26112103   1.636   0.046   0.677 -0.1986  0.6121  1.0489
   32MOL   H26212104   1.573   7.668   0.685  0.8288 -2.1925  1.4524
   32MOL   H26312105   1.703   7.637   0.881  1.3462  0.0855  0.8845
   32MOL   H26412106   1.758   0.022   0.870 -1.1008 -0.2510  1.3648
   32MOL   H26512107   1.456   7.737   0.903  1.3084 -3.0429  2.0903
   32MOL   H26612108   1.536   0.112   0.925 -3.1293 -0.3977 -1.0129
   32MOL   H26712109   1.548   7.760   1.040  0.8402 -1.4033  0.3513
   32MOL   C26812110   1.634   7.644   0.293  0.1624 -0.0898  0.2134
   32MOL   C26912111   1.538   7.534   0.241  0.5247  0.1338  0.3872
   32MOL   C27012112   1.502   7.575   0.095  0.4153  0.0233  0.0227
   32MOL   C27112113   1.388   7.482   0.029  0.3435  0.3090  0.3404
   32MOL   C27212114   1.362   7.506   7.664 -0.1790  0.1594  0.1652
   32MOL   C27312115   1.236   7.429   7.617 -0.2220  0.0715  0.6124
   32MOL   O27412116   1.424   7.548   0.309 -0.2795 -0.4538  0.2979
   32MOL   H27512117   1.715   7.635   0.220  0.5803  1.5516  0.4574
   32MOL   H27612118   1.598   7.747   0.283 -0.4020 -0.3419 -0.4116
   32MOL   H27712119   1.591   7.439   0.245  3.1877  1.5883  0.7963
   32MOL   H27812120   1.470   7.677   0.077  1.2585  0.2394 -0.2823
   32MOL   H27912121   1.592   7.575   0.033  0.4427 -1.2556  0.0313
   32MOL   H28012122   1.414   7.377   0.040  1.5194  0.7177  1.6269
   32MOL   H28112123   1.304   7.510   0.093 -0.2881  1.5257 -0.9824
   32MOL   H28212124   1.334   7.611   7.655  0.3699  0.2974  0.0432
   32MOL   H28312125   1.449   7.494   7.599  1.4402 -1.3743  2.5339
   32MOL   H28412126   1.148   7.444   7.680 -1.2666 -0.2210 -0.7646
   32MOL   H28512127   1.198   7.484   7.531 -2.9568 -4.9984 -1.5662
   32MOL   H28612128   1.250   7.321   7.613  1.7916  0.3459 -0.3421
   32MOL   C28712129   1.411   7.464   0.412  0.3093 -0.2014 -0.4932
   32MOL   C28812130   1.265   7.471   0.465 -0.7288  0.1701 -0.3272
   32MOL   C28912131   1.266   7.483   0.619 -0.3114  0.0531  0.3197
   32MOL   C29012132   1.125   7.523   0.674  0.0566  0.4271 -0.3762
   32MOL   C29112133   1.139   7.533   0.827  0.0970  0.4089 -0.6920
   32MOL   C29212134   1.031   7.611   0.903 -0.2491 -0.5083 -0.2256
   32MOL   O29312135   1.194   7.358   0.435  0.2645 -0.3519 -0.6618
   32MOL   H29412136   1.490   7.467   0.487  0.1053 -0.8097 -0.2492
   32MOL   H29512137   1.419   7.357   0.394 -0.6638 -0.2161 -0.8725
   32MOL   H29612138   1.215   7.559   0.425 -2.7609  0.1410  2.0098
   32MOL   H29712139   1.294   7.387   0.661 -1.5125 -1.6714 -2.6674
   32MOL   H29812140   1.346   7.551   0.648 -0.1775  0.9639 -2.0994
   32MOL   H29912141   1.100   7.617   0.625  1.9557  0.4928 -1.2512
   32MOL   H30012142   1.056   7.447   0.638  1.0794 -0.9714  0.5250
   32MOL   H30112143   1.240   7.567   0.849  0.6960 -1.4971 -0.4238
   32MOL   H30212144   1.150   7.433   0.869  0.3870  0.8956  0.3949
   32MOL   H30312145   1.016   7.707   0.855  1.6733 -0.0732 -0.0287
   32MOL   H30412146   0.938   7.555   0.898 -1.1496  0.9791 -0.5525
   32MOL   H30512147   1.066   7.643   1.001  2.9737 -0.1362 -1.4136
   32MOL   C30612148   1.125   7.351   0.312 -0.3412 -0.1892  0.3607
   32MOL   C30712149   1.082   7.211   0.259 -0.0375  0.1910 -0.3941
   32MOL   C30812150   1.023   7.224   0.116 -0.6297  0.5229 -0.1141
   32MOL   C30912151   0.974   7.093   0.053 -0.1277  0.3640  0.0153
   32MOL   C31012152   0.900   7.108   7.702  0.0793  0.8689 -0.5675
   32MOL   C31112153   0.991   7.141   7.594  0.6280  0.2503 -0.0119
   32MOL   O31212154   0.974   7.172   0.345 -0.9537 -0.1566 -0.1608
   32MOL   H31312155   1.036   7.412   0.327 -0.1784 -0.3827  2.2631
   32MOL   H31412156   1.178   7.407   0.236 -3.5429  2.3680 -0.0832
   32MOL   H31512157   1.174   7.153   0.259 -0.3551 -0.3284  0.5883
   32MOL   H31612158   1.112   7.257   0.061 -1.1330  1.1409 -0.5563
   32MOL   H31712159   0.951   7.306   0.115 -0.4473  0.6936  0.4331
   32MOL   H31812160   1.065   7.032   0.049 -0.7500 -0.5134 -1.3874
   32MOL   H31912161   0.912   7.037   0.122  1.9115 -1.6279  0.3057
   32MOL   H32012162   0.823   7.183   7.717 -1.5958 -0.7505 -0.8821
   32MOL   H32112163   0.849   7.016   7.673 -0.5651  1.9606 -3.0402
   32MOL   H32212164   1.041   7.235   7.618  2.4364 -0.3900 -1.1302
   32MOL   H32312165   1.068   7.063   7.591  0.9229  0.5076  0.7893
   32MOL   H32412166   0.941   7.143   7.497  0.6815 -0.8669 -0.0696
   32MOL   C32512167   1.022   7.128   0.478  0.4069 -0.7461  0.2274
   32MOL   C32612168   0.920   7.029   0.539  1.2336  0.7028  0.5925
   32MOL   C32712169   0.951   7.002   0.688  0.1679 -0.1536 -0.2247
   32MOL   C32812170   0.846   6.906   0.754 -0.2305 -0.5458  0.3146
   32MOL   C32912171   0.888   6.867   0.898 -0.0606  0.7797 -0.0388
   32MOL   C33012172   0.791   6.768   0.958  0.0683  0.3002  0.0631
   32MOL   O33112173   0.929   6.904   0.472 -0.2641  0.6996  0.6198
   32MOL   H33212174   1.041   7.215   0.541 -0.2300 -0.1557 -0.3937
   32MOL   H33312175   1.124   7.091   0.479  1.3487  1.7445  2.2948
   32MOL   H33412176   0.824   7.079   0.529  0.7028 -0.6708 -1.6160
   32MOL   H33512177   1.049   6.955   0.697  0.3522 -0.0933 -1.9142
   32MOL   H33612178   0.965   7.091   0.750 -3.3003  0.5050 -0.2755
   32MOL   H33712179   0.753   6.963   0.752  1.3625  2.1917  2.5994
   32MOL   H33812180   0.830   6.818   0.690  0.3882 -0.1443 -0.3958
   32MOL   H33912181   0.989   6.826   0.895 -0.8173 -1.0436 -1.0283
   32MOL   H34012182   0.901   6.960   0.954  2.2383 -0.6342  1.8710
   32MOL   H34112183   0.759   6.682   0.899 -2.1182  1.1765 -0.0957
   32MOL   H34212184   0.837   6.713   1.039 -0.1484 -0.5856 -0.4101
   32MOL   H34312185   0.704   6.824   0.993  0.4331  0.1208  1.2750
   32MOL   C34412186   0.823   6.883   0.377  0.4035 -0.3503  0.0808
   32MOL   C34512187   0.844   6.752   0.305 -0.2841  0.1832  0.2955
   32MOL   C34612188   0.714   6.699   0.243 -0.3497 -0.4138 -0.6925
   32MOL   C34712189   0.723   6.557   0.196  0.1529  0.4567 -0.5664
   32MOL   C34812190   0.732   6.443   0.304  0.5865  0.4438  0.0799
   32MOL   C34912191   0.843   6.349   0.259  0.2878 -0.2434  0.3424
   32MOL   O35012192   0.935   6.760   0.190 -0.3946 -0.0563 -0.2267
   32MOL   H35112193   0.818   6.965   0.304 -0.4626 -0.7136 -0.2738
   32MOL   H35212194   0.730   6.889   0.432 -0.0725 -0.6934 -0.6843
   32MOL   H35312195   0.882   6.684   0.382  0.6985  0.4693  0.0651
   32MOL   H35412196   0.675   6.761   0.162  0.3876  2.8423  1.3441
   32MOL   H35512197   0.644   6.701   0.326 -0.9921  0.8169 -1.2453
   32MOL   H35612198   0.813   6.540   0.137  1.0424 -0.6835  1.0959
   32MOL   H35712199   0.642   6.520   0.133  0.3651 -1.8439  0.4677
   32MOL   H35812200   0.632   6.400   0.305  1.0206 -0.5836  1.6612
   32MOL   H35912201   0.749   6.479   0.406 -0.1878 -0.4587  0.5389
   32MOL   H36012202   0.847   6.254   0.312  0.9091 -0.1960  0.3825
   32MOL   H36112203   0.941   6.395   0.272  0.2854  0.3156 -1.5476
   32MOL   H36212204   0.823   6.331   0.154  1.8474 -1.6443  0.2623
   32MOL   C36312205   1.067   6.789   0.228  0.2329 -0.2061  0.7377
   32MOL   C36412206   1.174   6.760   0.127 -0.0884  0.5232  0.0475
   32MOL   C36512207   1.304   6.836   0.136  0.3247 -0.3742 -0.0619
   32MOL   C36612208   1.392   6.827   0.011  0.2677  0.0331 -0.1414
   32MOL   C36712209   1.340   6.909   7.679  0.5073 -0.0827 -0.3306
   32MOL   C36812210   1.433   6.906   7.556 -0.2605  0.1221 -0.3974
   32MOL   O36912211   1.194   6.617   0.123 -0.0804  0.4903 -0.2668
   32MOL   H37012212   1.084   6.717   0.309 -1.3309  0.6694  1.8808
   32MOL   H37112213   1.079   6.892   0.263  0.8825 -0.0919  0.1767
   32MOL   H37212214   1.118   6.780   0.036  0.3010  0.2584 -0.2546
   32MOL   H37312215   1.279   6.942   0.146 -0.2983 -0.2862 -2.3596
   32MOL   H37412216   1.361   6.808   0.225 -1.0789 -0.3429  0.8539
   32MOL   H37512217   1.494   6.856   0.038 -0.6866  3.5167 -0.1555
   32MOL   H37612218   1.398   6.728   7.752 -0.4438  0.5949 -1.5164
   32MOL   H37712219   1.249   6.863   7.641 -0.4276  0.2438  1.4620
   32MOL   H37812220   1.332   7.015   7.700 -0.9977  0.1878 -2.1189
   32MOL   H37912221   1.387   6.963   7.475 -1.8724 -1.2812 -0.5028
   32MOL   H38012222   1.531   6.948   7.577 -0.3022 -0.1866  0.4189
   32MOL   H38112223   1.451   6.802   7.530 -0.4637 -0.2272  0.8184
   32MOL   H38212224   1.124   6.589   0.066  0.5834  1.2898 -1.4908
   33MOL     C112225   0.763   1.712   6.272 -0.1650  0.6384  0.1470
   33MOL     C212226   0.742   1.636   6.410 -0.9237 -0.3014  0.1307
   33MOL     C312227   0.702   1.738   6.521 -0.0492 -0.4887  0.1055
   33MOL     C412228   0.695   1.693   6.673 -0.4958 -0.5547 -0.2799
   33MOL     C512229   0.630   1.793   6.764 -0.3830 -0.2844  0.6437
   33MOL     C612230   0.478   1.807   6.736 -0.0400 -0.7373 -0.2268
   33MOL     O712231   0.648   1.528   6.403  0.3192 -0.3189 -1.4109
   33MOL     H812232   0.814   1.808   6.273 -0.1322  0.6265 -0.2533
   33MOL     H912233   0.665   1.728   6.226 -0.3003 -0.6260 -0.0375
   33MOL    H1012234   0.840   1.602   6.444 -0.8909 -1.9206 -1.5069
   33MOL    H1112235   0.772   1.819   6.502 -0.0867 -0.6788 -0.9058
   33MOL    H1212236   0.604   1.777   6.493 -1.1264 -2.2147  1.3753
   33MOL    H1312237   0.643   1.599   6.688  2.8222 -2.2232  1.2979
   33MOL    H1412238   0.799   1.670   6.697  0.2899 -1.1297 -3.8776
   33MOL    H1512239   0.653   1.795   6.871 -2.9833 -0.6642  1.2572
   33MOL    H1612240   0.676   1.887   6.732  0.2004 -0.2834  1.4551
   33MOL    H1712241   0.460   1.914   6.748  1.5144 -0.3052 -1.5735
   33MOL    H1812242   0.461   1.772   6.634 -0.4321  0.2151 -0.4927
   33MOL    H1912243   0.426   1.743   6.807 -2.6715  1.3974 -0.1349
   33MOL    H2012244   0.811   1.638   6.208  1.2471  0.5088  1.3302
   33MOL    C2112245   0.679   1.419   6.318 -0.1447 -0.0080  0.0153
   33MOL    C2212246   0.594   1.288   6.348  0.2900 -0.2695  0.2833
   33MOL    C2312247   0.545   1.211   6.222 -0.6159 -0.7120 -0.7282
   33MOL    C2412248   0.661   1.175   6.126  0.0850  0.4837  0.3136
   33MOL    C2512249   0.595   1.097   6.004 -0.1831  0.3295  0.6221
   33MOL    C2612250   0.707   1.059   5.902 -0.1763 -0.5092  0.5372
   33MOL    O2712251   0.663   1.200   6.437 -0.1324  0.0159  0.1362
   33MOL    H2812252   0.660   1.453   6.216 -1.4899 -0.5425  0.0814
   33MOL    H2912253   0.783   1.388   6.307 -0.7424 -1.5380 -1.6144
   33MOL    H3012254   0.500   1.317   6.395  0.3107  0.5734 -0.1985
   33MOL    H3112255   0.450   1.252   6.187 -0.5035 -0.3378 -0.5993
   33MOL    H3212256   0.503   1.119   6.261 -3.2237  0.9691  0.6202
   33MOL    H3312257   0.738   1.121   6.180  0.3424 -0.3748 -0.8939
   33MOL    H3412258   0.713   1.261   6.084 -0.1223  0.5848  0.2662
   33MOL    H3512259   0.555   1.003   6.044  0.3482  0.8075  2.3089
   33MOL    H3612260   0.510   1.142   5.953  0.7407  3.0203  1.3770
   33MOL    H3712261   0.801   1.020   5.942  0.8534  2.6749  1.3430
   33MOL    H3812262   0.729   1.154   5.854 -1.9401 -0.6500 -0.5913
   33MOL    H3912263   0.675   0.982   5.831  1.4255  0.1226 -0.9063
   33MOL    C4012264   0.665   1.243   6.568  0.1877  0.3899  0.2966
   33MOL    C4112265   0.753   1.146   6.647 -0.1284 -0.7367  0.2145
   33MOL    C4212266   0.712   1.143   6.793 -0.3018  0.0708  0.0019
   33MOL    C4312267   0.721   1.282   6.859  0.4076  0.0585  0.2758
   33MOL    C4412268   0.690   1.273   7.010 -0.5969  0.2836  0.1267
   33MOL    C4512269   0.690   1.406   7.084 -0.5528 -0.3691 -0.0437
   33MOL    O4612270   0.892   1.184   6.652 -0.4744 -0.3665  0.5822
   33MOL    H4712271   0.562   1.235   6.602 -0.0325  0.9255 -0.2459
   33MOL    H4812272   0.707   1.343   6.581  0.8016  0.3731 -1.5179
   33MOL    H4912273   0.738   1.042   6.618  0.2738 -0.5363 -0.7528
   33MOL    H5012274   0.613   1.100   6.808 -0.7935 -0.1609 -3.5118
   33MOL    H5112275   0.780   1.069   6.833  0.6085  1.3580  0.8880
   33MOL    H5212276   0.648   1.345   6.807  1.3160 -0.0277 -1.1344
   33MOL    H5312277   0.819   1.327   6.842  0.3160  0.2187  0.1713
   33MOL    H5412278   0.585   1.244   7.016 -1.5715  2.8532 -3.2229
   33MOL    H5512279   0.758   1.196   7.047 -2.1106 -1.4926 -0.7052
   33MOL    H5612280   0.629   1.484   7.040  0.7664  0.7897  0.1518
   33MOL    H5712281   0.643   1.399   7.182 -0.4357  2.3908  0.2354
   33MOL    H5812282   0.791   1.447   7.090 -0.8750  0.3602  0.4130
   33MOL    C5912283   0.962   1.139   6.538 -0.3251 -0.4534 -0.1177
   33MOL    C6012284   1.116   1.175   6.539  0.9115  0.3223  0.3694
   33MOL    C6112285   1.191   1.083   6.438 -0.4250  0.0215  0.1053
   33MOL    C6212286   1.139   1.086   6.293 -0.0387 -0.1604 -0.0064
   33MOL    C6312287   1.203   0.975   6.205  0.3292 -0.4518  0.3820
   33MOL    C6412288   1.124   0.955   6.077  0.8678  0.4186  0.5586
   33MOL    O6512289   1.128   1.313   6.497 -0.4138  0.0148  0.0792
   33MOL    H6612290   0.913   1.179   6.449  1.6632 -0.6784 -1.3589
   33MOL    H6712291   0.946   1.034   6.513 -1.3558 -0.7075  1.5175
   33MOL    H6812292   1.159   1.155   6.637  1.0030 -1.5533 -0.0275
   33MOL    H6912293   1.191   0.987   6.490 -0.1397  0.2336  0.4974
   33MOL    H7012294   1.296   1.110   6.444 -0.0312 -1.6353  1.1801
   33MOL    H7112295   1.151   1.185   6.249  0.2312  0.2954  1.0593
   33MOL    H7212296   1.031   1.071   6.291 -0.1297  0.3522  0.6118
   33MOL    H7312297   1.231   0.882   6.256 -1.8742 -0.4545  1.6402
   33MOL    H7412298   1.304   1.008   6.183 -0.9479  1.9277 -2.1306
   33MOL    H7512299   1.163   0.869   6.022 -3.1478 -1.2809  0.1569
   33MOL    H7612300   1.019   0.926   6.087  0.9533 -0.0023  0.2569
   33MOL    H7712301   1.128   1.041   6.010 -0.2780  0.1783  0.1562
   33MOL    C7812302   1.120   1.416   6.593  0.0801 -0.3856  0.0273
   33MOL    C7912303   1.243   1.416   6.694 -0.6385  0.4850  0.0364
   33MOL    C8012304   1.372   1.385   6.618  0.5120 -1.4137  0.1466
   33MOL    C8112305   1.511   1.408   6.704 -0.6445  0.6572  0.3089
   33MOL    C8212306   1.622   1.443   6.609  0.3933  0.5871 -0.0484
   33MOL    C8312307   1.757   1.435   6.676  0.4235  0.5247  0.3882
   33MOL    O8412308   1.235   1.322   6.798  0.5955 -0.5200 -0.3155
   33MOL    H8512309   1.020   1.421   6.636 -1.7683 -1.5774 -3.8656
   33MOL    H8612310   1.139   1.512   6.545  0.3440 -0.5886 -0.2770
   33MOL    H8712311   1.250   1.519   6.728 -0.9733  1.3084 -2.3708
   33MOL    H8812312   1.368   1.281   6.585  1.1964 -1.6136  0.6671
   33MOL    H8912313   1.369   1.446   6.528  0.0914 -0.1811  0.9876
   33MOL    H9012314   1.544   1.321   6.761 -1.7114  0.7951  1.1413
   33MOL    H9112315   1.478   1.482   6.777  0.0099  2.3060 -1.0336
   33MOL    H9212316   1.625   1.364   6.533 -0.8525  2.4749 -2.0911
   33MOL    H9312317   1.602   1.535   6.555 -1.7342  0.3557  0.3103
   33MOL    H9412318   1.753   1.504   6.760 -2.3514  0.5160  0.3107
   33MOL    H9512319   1.830   1.464   6.600 -1.7891  1.2260 -1.5364
   33MOL    H9612320   1.782   1.336   6.713  1.0555  0.2422 -0.7796
   33MOL    C9712321   1.123   1.339   6.890 -0.5748 -0.2199  0.1470
   33MOL    C9812322   1.159   1.258   7.016  0.7713 -0.4392 -0.2446
   33MOL    C9912323   1.120   1.340   7.141 -0.1567 -0.1659 -0.8180
   33MOL   C10012324   1.176   1.272   7.275 -0.5217 -0.5924  0.1182
   33MOL   C10112325   1.123   1.325   7.408  0.0275 -0.4984 -0.2848
   33MOL   C10212326   1.145   1.229   7.525  0.6735  0.1463  0.0952
   33MOL   O10312327   1.057   1.157   7.023  0.4501 -0.2289  0.1406
   33MOL   H10412328   1.025   1.306   6.856 -0.9914  2.1632 -1.0360
   33MOL   H10512329   1.114   1.446   6.912 -1.0684 -0.1106 -0.5843
   33MOL   H10612330   1.265   1.231   7.018  0.9131  0.1629  0.6098
   33MOL   H10712331   1.017   1.377   7.148 -0.1727 -0.1251 -1.2481
   33MOL   H10812332   1.168   1.437   7.146 -1.1597  0.3663 -1.3140
   33MOL   H10912333   1.282   1.249   7.284 -0.4005  0.8704  3.5256
   33MOL   H11012334   1.131   1.173   7.268  0.8716 -1.2572  0.3687
   33MOL   H11112335   1.017   1.352   7.406 -0.6030 -2.8195  0.3863
   33MOL   H11212336   1.162   1.420   7.445 -0.3372 -0.6121  0.4078
   33MOL   H11312337   1.121   1.277   7.619  0.6294  2.0921 -0.8896
   33MOL   H11412338   1.093   1.133   7.519 -0.2262  0.5805  1.0530
   33MOL   H11512339   1.250   1.199   7.529  0.8651  0.4299 -1.9237
   33MOL   C11612340   1.109   1.022   7.028 -0.3406 -1.0678  0.6337
   33MOL   C11712341   0.990   0.926   7.053  0.2966 -0.4952  0.2114
   33MOL   C11812342   0.959   0.926   7.201  0.4281  0.1380 -0.6263
   33MOL   C11912343   0.855   0.823   7.256 -0.5429 -0.4285 -0.4472
   33MOL   C12012344   0.821   0.842   7.405  0.0875  0.2732  0.9217
   33MOL   C12112345   0.740   0.718   7.448  0.1818  0.3654 -0.2836
   33MOL   O12212346   1.010   0.796   6.999 -0.2733 -0.3089  0.2962
   33MOL   H12312347   1.161   1.024   6.932  1.4430 -0.3412  1.5830
   33MOL   H12412348   1.180   1.018   7.111  0.8711  0.7622 -0.2902
   33MOL   H12512349   0.912   0.972   6.992 -2.3926 -1.4535  2.8524
   33MOL   H12612350   1.048   0.906   7.259 -0.2609 -2.3012 -0.3608
   33MOL   H12712351   0.931   1.028   7.230 -1.0882 -0.7648  1.2069
   33MOL   H12812352   0.903   0.725   7.251  2.2020  0.8622 -0.7663
   33MOL   H12912353   0.769   0.816   7.190 -0.5623 -1.1639 -0.3455
   33MOL   H13012354   0.910   0.837   7.468 -0.1966 -2.7959  1.1428
   33MOL   H13112355   0.759   0.930   7.425 -0.1777 -0.2597  2.4571
   33MOL   H13212356   0.807   0.634   7.467  0.1663  0.3389 -0.3444
   33MOL   H13312357   0.684   0.718   7.542 -1.5918 -1.4895 -1.2916
   33MOL   H13412358   0.674   0.678   7.371  1.0041 -1.2187 -0.2062
   33MOL   C13512359   0.987   0.778   6.865  0.2790  0.0256  0.5343
   33MOL   C13612360   1.028   0.633   6.831 -0.3831  0.6366  0.7190
   33MOL   C13712361   1.052   0.616   6.676 -0.6109  0.3328 -0.7725
   33MOL   C13812362   1.194   0.665   6.634  0.6247  0.6238  0.3258
   33MOL   C13912363   1.222   0.627   6.487  0.7434  0.1785 -0.0793
   33MOL   C14012364   1.360   0.654   6.443  0.5140 -0.2122  0.4737
   33MOL   O14112365   0.928   0.541   6.848  0.0941 -0.3278 -0.1826
   33MOL   H14212366   0.885   0.795   6.829  0.1598 -0.4549  0.6453
   33MOL   H14312367   1.053   0.852   6.820 -0.7833  0.9032  0.3860
   33MOL   H14412368   1.117   0.611   6.889 -0.4573  0.4030  0.7415
   33MOL   H14512369   1.055   0.507   6.667 -1.3477  0.1876  0.5883
   33MOL   H14612370   0.973   0.651   6.610 -1.2406  0.8542  0.2406
   33MOL   H14712371   1.267   0.611   6.694  2.0532 -0.5991 -2.4132
   33MOL   H14812372   1.211   0.769   6.660  2.1188  0.3150  0.6274
   33MOL   H14912373   1.149   0.673   6.420 -0.0739  0.9076  1.3048
   33MOL   H15012374   1.199   0.522   6.470  1.9435 -0.2554  0.8988
   33MOL   H15112375   1.430   0.589   6.496 -0.3828  0.7210  2.8668
   33MOL   H15212376   1.363   0.636   6.336 -0.8587  1.0135  0.2143
   33MOL   H15312377   1.374   0.756   6.477  0.5067 -0.4513  1.2099
   33MOL   C15412378   0.880   0.525   6.977 -0.7216 -0.4780  0.5513
   33MOL   C15512379   0.787   0.402   6.992  0.2696  0.4367  0.2346
   33MOL   C15612380   0.753   0.360   7.135  0.7657  0.2894  1.0752
   33MOL   C15712381   0.679   0.229   7.158 -0.0298 -0.4835 -0.2650
   33MOL   C15812382   0.644   0.209   7.307  0.7757  0.0897  0.2826
   33MOL   C15912383   0.586   0.077   7.340 -0.3458 -0.2353  0.7148
   33MOL   O16012384   0.666   0.440   6.935  0.6656  0.3915  0.4041
   33MOL   H16112385   0.822   0.613   7.008  0.4229 -0.0749  1.5858
   33MOL   H16212386   0.961   0.522   7.050 -1.3580  1.8510  1.4057
   33MOL   H16312387   0.822   0.314   6.938  0.0554  0.1009  0.6364
   33MOL   H16412388   0.690   0.438   7.179 -3.0313 -1.5944 -0.7612
   33MOL   H16512389   0.848   0.347   7.186  0.9402 -1.4796  0.3346
   33MOL   H16612390   0.738   0.139   7.139  0.5803 -0.3761  1.0411
   33MOL   H16712391   0.586   0.236   7.102  0.6383 -1.3644 -1.5330
   33MOL   H16812392   0.725   0.232   7.375  0.4521 -1.2542  1.1415
   33MOL   H16912393   0.573   0.289   7.327  0.6485 -0.1874  0.9404
   33MOL   H17012394   0.565   0.080   7.447 -1.0648 -0.0978  0.5735
   33MOL   H17112395   0.656   7.785   7.309  1.0431  1.4753 -0.5438
   33MOL   H17212396   0.492   0.066   7.286  0.4719 -2.0601 -0.3859
   33MOL   C17312397   0.658   0.436   6.788  0.0909 -0.1098  0.2090
   33MOL   C17412398   0.635   0.572   6.731 -0.1187 -0.1888 -0.0115
   33MOL   C17512399   0.651   0.576   6.576 -0.3075  0.0834 -0.4335
   33MOL   C17612400   0.649   0.721   6.528  0.9355 -0.2657  0.5608
   33MOL   C17712401   0.688   0.725   6.377  0.9384 -0.6143 -0.7028
   33MOL   C17812402   0.716   0.868   6.325 -0.2890  0.2904  0.0691
   33MOL   O17912403   0.503   0.626   6.758  0.0833 -0.2079  0.6571
   33MOL   H18012404   0.580   0.368   6.756 -0.7949  0.9164  0.1633
   33MOL   H18112405   0.746   0.387   6.747  0.2843  0.8093 -0.4866
   33MOL   H18212406   0.710   0.642   6.769  0.7366 -0.7967 -0.5775
   33MOL   H18312407   0.745   0.529   6.547 -1.4965 -1.9610 -1.0981
   33MOL   H18412408   0.568   0.521   6.531  0.3465 -0.4065 -1.0495
   33MOL   H18512409   0.553   0.774   6.534  1.6913  1.3424 -1.1389
   33MOL   H18612410   0.720   0.787   6.578 -1.1468  1.2610  1.6169
   33MOL   H18712411   0.776   0.662   6.365  1.3866 -0.4044  1.2422
   33MOL   H18812412   0.602   0.686   6.324  0.1683  0.5458 -0.3417
   33MOL   H18912413   0.700   0.871   6.218  0.0959  2.2414  0.0482
   33MOL   H19012414   0.812   0.905   6.359 -1.7026  1.0911  3.4348
   33MOL   H19112415   0.651   0.946   6.365 -0.6589 -0.3009  0.6352
   33MOL   C19212416   0.462   0.661   6.889 -0.5417  0.8560  0.2943
   33MOL   C19312417   0.490   0.803   6.917  0.7057 -0.0723  0.3520
   33MOL   C19412418   0.481   0.818   7.069 -0.0603 -0.0021  0.3567
   33MOL   C19512419   0.522   0.960   7.120 -0.8354 -0.3057  0.5341
   33MOL   C19612420   0.495   0.974   7.271 -0.0052 -0.1248  0.5249
   33MOL   C19712421   0.519   1.121   7.315  0.2976  0.1942 -0.2623
   33MOL   O19812422   0.387   0.888   6.859  0.0753 -0.2539  0.0266
   33MOL   H19912423   0.356   0.638   6.889 -0.7173  1.6631  0.0901
   33MOL   H20012424   0.490   0.595   6.971 -0.6585  1.8731  1.1584
   33MOL   H20112425   0.588   0.819   6.872  0.1441  0.0384 -0.8626
   33MOL   H20212426   0.388   0.783   7.115 -0.1890 -1.5188 -1.0276
   33MOL   H20312427   0.557   0.751   7.110 -1.0015 -0.2928  1.6688
   33MOL   H20412428   0.472   1.042   7.067  0.6120  0.5318  0.4340
   33MOL   H20512429   0.627   0.980   7.100 -1.3938  3.3482  0.7831
   33MOL   H20612430   0.389   0.956   7.290 -0.6547 -0.3810 -3.0794
   33MOL   H20712431   0.565   0.909   7.322  0.0743 -1.1407 -0.8449
   33MOL   H20812432   0.509   1.129   7.423  1.1411 -0.2911 -0.1481
   33MOL   H20912433   0.616   1.157   7.281 -0.0356  1.4984  0.1500
   33MOL   H21012434   0.438   1.176   7.266  1.0099 -0.1723 -1.8892
   33MOL   C21112435   0.397   0.913   6.722 -0.5285  0.0244  0.5402
   33MOL   C21212436   0.311   1.019   6.657  0.8056  0.1007 -0.2664
   33MOL   C21312437   0.332   1.037   6.509  0.1266  0.3976 -0.0194
   33MOL   C21412438   0.273   0.922   6.436  0.5280  0.0450  0.3070
   33MOL   C21512439   0.276   0.936   6.279  0.3666 -0.5305  0.5150
   33MOL   C21612440   0.192   0.834   6.198 -0.3689  0.0604 -0.4245
   33MOL   O21712441   0.353   1.145   6.711  0.4964 -0.1053  0.4581
   33MOL   H21812442   0.367   0.820   6.673 -0.5670 -1.1250  2.6903
   33MOL   H21912443   0.499   0.941   6.698 -0.7595  0.8637  0.5223
   33MOL   H22012444   0.204   1.022   6.678  1.3464  1.2802  2.5368
   33MOL   H22112445   0.278   1.129   6.484  0.4493  0.8239  0.8104
   33MOL   H22212446   0.437   1.047   6.480  0.2172 -0.2530  0.0831
   33MOL   H22312447   0.305   0.825   6.474 -0.8774 -1.1492 -1.4364
   33MOL   H22412448   0.165   0.928   6.453  0.1480  3.1292 -2.8474
   33MOL   H22512449   0.243   1.034   6.245  0.6194 -0.6958 -0.1994
   33MOL   H22612450   0.379   0.941   6.246  0.1915 -0.9102 -0.0982
   33MOL   H22712451   0.227   0.732   6.209 -0.1416  0.2412  0.5376
   33MOL   H22812452   0.196   0.844   6.089 -1.1068  1.1358 -0.3625
   33MOL   H22912453   0.089   0.832   6.232  0.3507  1.6747  1.9681
   33MOL   C23012454   0.286   1.191   6.827 -0.0744  0.3859 -0.0479
   33MOL   C23112455   0.326   1.337   6.863  0.0061 -0.1307  0.5797
   33MOL   C23212456   0.303   1.368   7.012  0.4848 -0.4787 -0.3353
   33MOL   C23312457   0.327   1.512   7.057 -0.3187 -0.0823  0.8054
   33MOL   C23412458   0.321   1.521   7.208 -0.3085  0.3805  0.2476
   33MOL   C23512459   0.308   1.666   7.255 -0.2713 -0.1348  0.0523
   33MOL   O23612460   0.253   1.428   6.783 -0.0918  0.5831  0.3221
   33MOL   H23712461   0.178   1.174   6.819  0.1523 -0.6778 -1.0786
   33MOL   H23812462   0.317   1.122   6.906  3.1696  2.6109  0.7027
   33MOL   H23912463   0.433   1.343   6.841  0.1194 -0.2311  1.0740
   33MOL   H24012464   0.353   1.298   7.078 -0.7947 -1.8365 -0.7643
   33MOL   H24112465   0.198   1.339   7.021  0.8764 -1.7846  0.1153
   33MOL   H24212466   0.254   1.575   7.008 -1.2796 -0.8450  1.2317
   33MOL   H24312467   0.422   1.539   7.010 -1.2747  1.3557 -0.3107
   33MOL   H24412468   0.233   1.466   7.241 -1.2739  0.2227 -2.5445
   33MOL   H24512469   0.407   1.476   7.258  0.4231  2.3521  0.8357
   33MOL   H24612470   0.242   1.723   7.190  1.2791  0.9369 -0.6045
   33MOL   H24712471   0.405   1.716   7.255 -0.0584 -0.5341 -1.1134
   33MOL   H24812472   0.254   1.680   7.349 -0.8514  2.4758 -0.6305
   33MOL   C24912473   0.323   1.462   6.668  0.5661  0.1767 -0.2736
   33MOL   C25012474   0.234   1.559   6.583 -0.4293  0.3335  0.5716
   33MOL   C25112475   0.294   1.572   6.441 -0.0113  0.5590 -0.0936
   33MOL   C25212476   0.241   1.671   6.333 -0.2447 -0.2398 -0.2488
   33MOL   C25312477   0.303   1.638   6.198  0.1349 -0.5508  0.1609
   33MOL   C25412478   0.269   1.745   6.087  0.0054  0.3381  0.2121
   33MOL   O25512479   0.224   1.696   6.642  0.1268 -0.4927  0.0415
   33MOL   H25612480   0.421   1.505   6.693  0.6402  0.8463 -1.6371
   33MOL   H25712481   0.351   1.375   6.609  0.5938  0.7921 -1.1768
   33MOL   H25812482   0.137   1.512   6.566  0.8601 -1.4039 -2.4117
   33MOL   H25912483   0.397   1.606   6.454  0.3727 -0.1163 -1.3321
   33MOL   H26012484   0.304   1.473   6.397  1.4116  0.4346  0.4688
   33MOL   H26112485   0.132   1.677   6.330 -0.1847  0.9700 -0.2826
   33MOL   H26212486   0.270   1.771   6.365  0.0083 -0.1814 -0.6509
   33MOL   H26312487   0.411   1.637   6.213 -0.2581  0.5280  3.3650
   33MOL   H26412488   0.278   1.543   6.151  2.6857 -2.2462  2.1052
   33MOL   H26512489   0.320   1.724   5.993 -0.1214  0.5233  0.1034
   33MOL   H26612490   0.295   1.846   6.121 -1.1118  0.2560  1.3448
   33MOL   H26712491   0.163   1.747   6.062  0.4105  1.1701 -1.5210
   33MOL   C26812492   0.125   1.700   6.743  0.1341 -0.0657 -0.0446
   33MOL   C26912493   0.129   1.836   6.814 -0.4372 -0.5666 -0.3301
   33MOL   C27012494   0.056   1.843   6.952 -0.1119  0.4379  0.5812
   33MOL   C27112495   0.085   1.975   7.020  0.4696  0.2714  0.0158
   33MOL   C27212496   0.008   1.992   7.155  0.1576  0.7016  0.1002
   33MOL   C27312497   0.026   2.135   7.209 -0.1886 -0.1953 -0.3305
   33MOL   O27412498   0.067   1.946   6.740 -0.0935  0.6467 -0.1773
   33MOL   H27512499   0.134   1.630   6.826 -0.0768  0.3557  0.3348
   33MOL   H27612500   0.026   1.693   6.699  0.0786  1.4710 -0.1824
   33MOL   H27712501   0.232   1.868   6.832  0.1325 -3.2179  1.4623
   33MOL   H27812502   7.737   1.836   6.924  0.3990 -3.2594 -0.7289
   33MOL   H27912503   0.073   1.754   7.013  2.5533 -0.5656 -1.5195
   33MOL   H28012504   0.191   1.979   7.047  0.0641 -0.7631  1.8317
   33MOL   H28112505   0.067   2.060   6.955  1.1296  0.1762 -0.3007
   33MOL   H28212506   7.687   1.971   7.153 -0.0479  1.3036  2.8128
   33MOL   H28312507   0.053   1.923   7.226  1.5860  2.1776  0.6536
   33MOL   H28412508   0.132   2.160   7.219 -0.8577  2.0212  1.2782
   33MOL   H28512509   7.763   2.215   7.153  0.9705  0.1966 -0.8068
   33MOL   H28612510   7.765   2.142   7.307  1.3958 -0.2676  0.4393
   33MOL   C28712511   0.131   1.973   6.621  0.2806  0.9294 -0.1938
   33MOL   C28812512   0.063   2.090   6.541  0.3582 -0.4716 -0.4034
   33MOL   C28912513   0.097   2.089   6.389  0.6566  0.1253  0.2869
   33MOL   C29012514   7.783   2.183   6.313  0.0265 -0.4786  0.0731
   33MOL   C29112515   0.031   2.188   6.163  0.9703 -1.0373 -0.2756
   33MOL   C29212516   7.721   2.285   6.092 -0.2609 -0.1935  0.0335
   33MOL   O29312517   0.129   2.212   6.580  0.1348 -0.6410 -0.0833
   33MOL   H29412518   0.129   1.884   6.558 -0.1538  0.1680  0.8756
   33MOL   H29512519   0.236   1.996   6.640 -0.4930  3.6152  1.0573
   33MOL   H29612520   7.741   2.083   6.560  0.3479 -1.0047 -0.6510
   33MOL   H29712521   0.200   2.123   6.382  0.3655  0.8840 -0.3165
   33MOL   H29812522   0.095   1.991   6.341 -2.1731  0.4269 -0.3268
   33MOL   H29912523   7.683   2.150   6.340 -0.1311 -1.7592 -1.9929
   33MOL   H30012524   7.773   2.277   6.368 -0.0922 -0.8830  0.7407
   33MOL   H30112525   0.038   2.084   6.130  1.4149 -1.4553  1.0946
   33MOL   H30212526   0.137   2.214   6.155  1.1507 -2.0768 -1.3973
   33MOL   H30312527   7.701   2.241   5.995  3.2384 -2.1667  0.1099
   33MOL   H30412528   7.628   2.305   6.146  0.2189 -0.2592  0.8950
   33MOL   H30512529   7.767   2.382   6.073 -0.7638  0.2755  1.1645
   33MOL   C30612530   0.066   2.262   6.693  0.6039 -0.2424 -0.5483
   33MOL   C30712531   0.162   2.350   6.767 -0.2852 -0.0120  0.1233
   33MOL   C30812532   0.146   2.388   6.923  0.2899  0.2382  0.3016
   33MOL   C30912533   0.006   2.445   6.942 -0.8373  0.9619  0.7619
   33MOL   C31012534   7.780   2.542   7.052 -0.4063  0.7239 -0.0557
   33MOL   C31112535   7.636   2.602   7.047 -0.3730  0.6245  0.2977
   33MOL   O31212536   0.181   2.471   6.700  0.7907 -0.2040 -0.0232
   33MOL   H31312537   7.761   2.319   6.674 -0.5175 -1.5596  0.7218
   33MOL   H31412538   0.039   2.194   6.774  2.0245  0.3867  0.4767
   33MOL   H31512539   0.252   2.289   6.768 -0.1114  0.2494  0.8845
   33MOL   H31612540   0.223   2.461   6.947 -0.6551  1.0958  0.8058
   33MOL   H31712541   0.162   2.302   6.989 -1.1162  1.0671  1.7769
   33MOL   H31812542   7.744   2.499   6.860  2.4658  0.2768 -1.7194
   33MOL   H31912543   7.728   2.359   6.962 -0.8283  1.0368  1.1043
   33MOL   H32012544   0.061   2.627   7.037  0.8285 -0.3052 -0.6041
   33MOL   H32112545   7.784   2.494   7.149  2.0946 -2.3073 -1.5438
   33MOL   H32212546   7.556   2.527   7.055  0.1986  0.1009  1.2400
   33MOL   H32312547   7.627   2.669   7.133 -0.7836  0.8446  0.0837
   33MOL   H32412548   7.622   2.664   6.959  1.1916  2.4096  1.2617
   33MOL   C32512549   0.321   2.486   6.671  0.5105 -0.1512 -0.2168
   33MOL   C32612550   0.336   2.628   6.626 -0.0022 -0.0040 -0.1592
   33MOL   C32712551   0.460   2.660   6.552 -0.3803 -0.1666  0.5800
   33MOL   C32812552   0.469   2.805   6.497 -0.3201  0.0807 -0.6106
   33MOL   C32912553   0.589   2.832   6.411 -0.2662  0.1266 -0.2849
   33MOL   C33012554   0.618   2.979   6.381 -0.3992 -0.1822  0.3190
   33MOL   O33112555   0.338   2.724   6.732 -0.4796  0.4089  0.8232
   33MOL   H33212556   0.354   2.417   6.593  0.3797  0.8591 -1.1613
   33MOL   H33312557   0.394   2.471   6.750 -0.5261 -0.9834  0.6103
   33MOL   H33412558   0.253   2.650   6.558  0.1966  0.8614 -0.1176
   33MOL   H33512559   0.552   2.650   6.608 -0.5351  1.6599  1.2011
   33MOL   H33612560   0.469   2.589   6.469 -3.0447 -2.2669  2.0124
   33MOL   H33712561   0.387   2.837   6.432  2.2997  0.9429 -3.6350
   33MOL   H33812562   0.463   2.883   6.573 -1.9881 -2.0813  1.5394
   33MOL   H33912563   0.668   2.787   6.470 -0.3330 -2.4731 -2.1022
   33MOL   H34012564   0.590   2.770   6.321  0.7022  0.2585 -0.3725
   33MOL   H34112565   0.642   3.022   6.479  2.6588 -0.5899 -0.2113
   33MOL   H34212566   0.713   2.992   6.330 -1.3948  0.3882 -1.4146
   33MOL   H34312567   0.548   3.042   6.325 -0.3813 -1.1229 -0.7781
   33MOL   C34412568   0.203   2.750   6.782  0.5451  0.0175 -0.0210
   33MOL   C34512569   0.219   2.877   6.857 -0.0830 -0.0270 -0.1260
   33MOL   C34612570   0.309   2.861   6.979 -0.5142 -0.0607  0.2157
   33MOL   C34712571   0.298   2.984   7.068 -0.2508 -0.2441 -0.3134
   33MOL   C34812572   0.400   2.982   7.183 -0.0877  0.3220  1.0163
   33MOL   C34912573   0.377   3.090   7.284 -0.0602 -0.8591 -0.6909
   33MOL   O35012574   0.274   2.973   6.767 -0.3006 -0.3305 -0.4491
   33MOL   H35112575   0.178   2.668   6.849  0.8119 -0.6045 -0.6784
   33MOL   H35212576   0.127   2.766   6.704  0.9112  3.3246  0.2121
   33MOL   H35312577   0.123   2.917   6.891 -0.8982 -1.4033 -0.7461
   33MOL   H35412578   0.414   2.841   6.957 -0.6098  1.0359 -1.3241
   33MOL   H35512579   0.270   2.790   7.051 -0.0004  0.4909  1.0489
   33MOL   H35612580   0.201   2.984   7.117  1.3143  1.2445  2.8950
   33MOL   H35712581   0.290   3.079   7.016 -1.5694 -0.1163  0.1063
   33MOL   H35812582   0.501   3.001   7.146 -0.3340  1.6142  0.9813
   33MOL   H35912583   0.395   2.882   7.225  2.0550  0.1359  0.8875
   33MOL   H36012584   0.375   3.187   7.234  2.6278 -0.6349 -0.4678
   33MOL   H36112585   0.465   3.090   7.348  0.1167 -1.0480 -0.9330
   33MOL   H36212586   0.286   3.077   7.343  0.8984  2.9273  1.8759
   33MOL   C36312587   0.193   3.017   6.656 -0.4048 -0.5136  0.0796
   33MOL   C36412588   0.264   3.144   6.606 -0.4553  0.3402  0.2666
   33MOL   C36512589   0.174   3.212   6.497 -0.1416  0.3874 -0.4401
   33MOL   C36612590   0.246   3.334   6.446  0.4198  0.2975 -0.9829
   33MOL   C36712591   0.168   3.404   6.333 -0.1338 -0.8994  0.0940
   33MOL   C36812592   0.202   3.547   6.303  0.5959 -0.3063  0.0946
   33MOL   O36912593   0.269   3.226   6.717  0.1355  0.5945  0.3445
   33MOL   H37012594   0.092   3.038   6.692 -1.0696  1.3751 -2.6799
   33MOL   H37112595   0.188   2.939   6.581  1.7881  0.0222 -0.6718
   33MOL   H37212596   0.366   3.119   6.575 -1.4749  0.2345 -3.2067
   33MOL   H37312597   0.147   3.145   6.415 -0.1985 -1.2427  0.8843
   33MOL   H37412598   0.074   3.240   6.532 -0.4076 -1.4815  0.3505
   33MOL   H37512599   0.263   3.411   6.520 -0.2094  0.6648 -1.2150
   33MOL   H37612600   0.348   3.306   6.419  0.1025 -1.1813 -0.7390
   33MOL   H37712601   0.184   3.344   6.244  0.1668 -0.5986 -0.0560
   33MOL   H37812602   0.064   3.396   6.362 -0.4583 -1.2962 -1.1671
   33MOL   H37912603   0.310   3.562   6.292  1.0124 -2.9024  0.3622
   33MOL   H38012604   0.148   3.587   6.218 -1.5865 -0.3801  1.4135
   33MOL   H38112605   0.154   3.619   6.369 -1.0620 -2.2958  1.1209
   33MOL   H38212606   0.288   3.165   6.786  0.5554 -0.5934 -0.8079
   34MOL     C112607   3.235   3.409   2.008 -0.4568  0.7064  0.1265
   34MOL     C212608   3.202   3.518   1.911 -0.0643  0.6550  0.3607
   34MOL     C312609   3.212   3.659   1.979  0.4819  0.5188 -0.5724
   34MOL     C412610   3.154   3.768   1.893  0.4670 -0.0310  0.1930
   34MOL     C512611   3.131   3.891   1.981 -0.9314  0.4338  0.0896
   34MOL     C612612   3.040   3.985   1.906 -0.4878  0.2003  0.3839
   34MOL     O712613   3.283   3.515   1.795  0.0208 -0.0499  0.1392
   34MOL     H812614   3.185   3.316   1.980 -0.6492  0.3929  1.4795
   34MOL     H912615   3.191   3.423   2.107 -2.2287  0.1796 -0.5705
   34MOL    H1012616   3.099   3.496   1.885 -0.0647 -1.7481  2.2297
   34MOL    H1112617   3.148   3.652   2.068  0.7585 -0.6442 -0.4457
   34MOL    H1212618   3.312   3.680   2.016  0.4155  0.5704 -0.4225
   34MOL    H1312619   3.208   3.791   1.801 -2.3186 -3.2477 -2.4141
   34MOL    H1412620   3.055   3.742   1.856  0.9471  0.6512 -1.6687
   34MOL    H1512621   3.083   3.862   2.074  0.9255 -1.4367  0.4851
   34MOL    H1612622   3.224   3.946   1.991 -0.9469  0.6488 -0.8833
   34MOL    H1712623   3.088   4.032   1.820 -0.3366  0.4952  0.6275
   34MOL    H1812624   2.943   3.938   1.891 -1.3538  1.3362  2.1307
   34MOL    H1912625   3.030   4.071   1.973 -0.4952 -0.2082  0.9055
   34MOL    H2012626   3.342   3.391   2.024  0.1836  2.0259 -2.4486
   34MOL    C2112627   3.253   3.411   1.696  0.1361  1.0108 -0.0993
   34MOL    C2212628   3.174   3.461   1.574 -1.1824  0.2318  0.1550
   34MOL    C2312629   3.240   3.592   1.530 -0.2404  0.3575 -0.1865
   34MOL    C2412630   3.179   3.654   1.395 -0.2877 -0.4281 -0.6906
   34MOL    C2512631   3.216   3.799   1.375 -0.5601 -0.7065  0.5602
   34MOL    C2612632   3.151   3.852   1.254  0.1448 -0.4920  0.7184
   34MOL    O2712633   3.189   3.367   1.473 -0.0771  0.5374  0.0165
   34MOL    H2812634   3.354   3.378   1.673  0.1007  0.4391  0.5711
   34MOL    H2912635   3.195   3.328   1.736  1.5715 -0.6157 -1.2949
   34MOL    H3012636   3.070   3.478   1.603 -1.2629 -0.7809  0.4947
   34MOL    H3112637   3.348   3.578   1.524 -0.0185  1.3276  1.2875
   34MOL    H3212638   3.233   3.670   1.605  1.9358  1.6452 -1.2535
   34MOL    H3312639   3.072   3.647   1.412 -0.1278 -2.6110 -0.4565
   34MOL    H3412640   3.205   3.589   1.311  0.9471  0.9486 -1.3953
   34MOL    H3512641   3.185   3.861   1.459  0.8388 -0.4981  0.9369
   34MOL    H3612642   3.321   3.814   1.350 -0.9173  1.2166  0.1543
   34MOL    H3712643   3.042   3.856   1.254  0.1614  0.4356 -0.4514
   34MOL    H3812644   3.182   3.792   1.169 -1.2928 -0.7509  0.3529
   34MOL    H3912645   3.196   3.949   1.231 -0.0636  0.0646  2.5937
   34MOL    C4012646   3.085   3.267   1.455  0.4404 -0.3688 -0.2111
   34MOL    C4112647   2.963   3.320   1.371 -0.2988  0.5411  0.8129
   34MOL    C4212648   2.839   3.254   1.433 -0.0684 -0.1873  0.2413
   34MOL    C4312649   2.716   3.330   1.388  0.7356 -0.5149  0.0226
   34MOL    C4412650   2.593   3.297   1.484  0.0965 -0.8313  0.7574
   34MOL    C4512651   2.474   3.393   1.470  0.1170  0.3620 -0.0594
   34MOL    O4612652   2.954   3.286   1.237  0.1019  0.0374 -0.0996
   34MOL    H4712653   3.052   3.231   1.552 -0.8385  1.6634  0.1397
   34MOL    H4812654   3.115   3.190   1.384 -1.9025 -0.3665 -1.2425
   34MOL    H4912655   2.964   3.428   1.385 -0.1384  0.1214  4.5210
   34MOL    H5012656   2.828   3.156   1.387 -1.2714 -1.0551  2.2678
   34MOL    H5112657   2.840   3.242   1.541  1.9787  4.4734  0.8537
   34MOL    H5212658   2.699   3.314   1.282  1.3820  0.2822 -0.2080
   34MOL    H5312659   2.730   3.438   1.390 -1.3042 -0.1591 -2.6276
   34MOL    H5412660   2.552   3.202   1.450 -1.4792  0.4015 -0.8485
   34MOL    H5512661   2.627   3.283   1.587  1.9683 -2.1529 -0.0260
   34MOL    H5612662   2.444   3.390   1.365  0.3099  1.5594 -0.1568
   34MOL    H5712663   2.385   3.376   1.531 -0.0786  0.5130 -0.2999
   34MOL    H5812664   2.501   3.498   1.484  2.0862 -0.0109 -0.9452
   34MOL    C5912665   3.046   3.350   1.150 -0.3538 -0.3570  0.2347
   34MOL    C6012666   3.017   3.292   1.011  0.0638  0.4071 -0.2223
   34MOL    C6112667   3.103   3.349   0.896 -0.0484  0.6266 -0.3597
   34MOL    C6212668   3.077   3.270   0.765 -0.1359  0.3376  0.5385
   34MOL    C6312669   3.139   3.342   0.644  0.4437  0.4766 -0.0740
   34MOL    C6412670   3.120   3.279   0.503 -0.0057 -0.0342  0.1915
   34MOL    O6512671   3.050   3.155   1.027  0.0773  0.0224 -0.2029
   34MOL    H6612672   3.145   3.324   1.186 -0.8224 -0.2800  1.6195
   34MOL    H6712673   3.039   3.459   1.159  1.3845 -0.1915 -0.3112
   34MOL    H6812674   2.912   3.303   0.987  0.0028 -3.4866 -2.0674
   34MOL    H6912675   3.209   3.343   0.922 -0.3653  2.7415  1.5908
   34MOL    H7012676   3.079   3.455   0.890 -0.3379  0.6534  1.0423
   34MOL    H7112677   2.968   3.265   0.754  0.0894 -2.8476 -0.8994
   34MOL    H7212678   3.115   3.168   0.776  1.4494  0.9720  0.9527
   34MOL    H7312679   3.246   3.351   0.667  0.3222 -0.6284  0.9806
   34MOL    H7412680   3.099   3.442   0.627 -1.5543 -0.4244 -0.6818
   34MOL    H7512681   3.207   3.316   0.447  0.6985 -2.5244 -0.3941
   34MOL    H7612682   3.134   3.172   0.516 -0.7913 -0.1270  0.2758
   34MOL    H7712683   3.031   3.310   0.447  0.4331 -0.6151 -0.8483
   34MOL    C7812684   2.948   3.060   1.018  0.1743 -0.1369  0.5610
   34MOL    C7912685   3.015   2.920   1.029  0.2279  0.8643  0.8345
   34MOL    C8012686   2.972   2.810   0.933  0.2409  0.0822  0.5088
   34MOL    C8112687   3.046   2.677   0.952  0.1438 -0.0403  0.3352
   34MOL    C8212688   2.995   2.578   0.847 -0.0762  0.5028  0.0008
   34MOL    C8312689   3.035   2.434   0.886 -0.5099 -0.0273 -0.3858
   34MOL    O8412690   2.991   2.868   1.157 -0.3306 -0.3922  0.7681
   34MOL    H8512691   2.906   3.077   0.919  1.9681  0.5714 -0.1043
   34MOL    H8612692   2.876   3.070   1.099  0.9824  0.2728  1.2340
   34MOL    H8712693   3.121   2.925   1.004  0.0723 -1.0274 -0.3517
   34MOL    H8812694   2.867   2.793   0.957  0.4622  1.9796  2.9931
   34MOL    H8912695   2.990   2.843   0.830 -1.7204  0.8531  0.3721
   34MOL    H9012696   3.032   2.630   1.050  0.2550  0.0154  0.3780
   34MOL    H9112697   3.154   2.692   0.945 -0.1611  1.1779 -2.2336
   34MOL    H9212698   2.887   2.586   0.842 -0.0218  1.1247 -0.1700
   34MOL    H9312699   3.031   2.606   0.748  0.5864  0.3993  0.2102
   34MOL    H9412700   3.139   2.431   0.919 -1.1953  1.5942  2.0707
   34MOL    H9512701   3.033   2.368   0.800  2.6636 -0.0082 -0.5312
   34MOL    H9612702   2.962   2.387   0.952 -0.5619  0.7644  0.1335
   34MOL    C9712703   3.060   2.928   1.266  0.3799  0.4148  0.2836
   34MOL    C9812704   3.087   2.827   1.372 -0.8777 -0.3453  0.1635
   34MOL    C9912705   3.189   2.890   1.467 -0.6251  0.3069  0.2086
   34MOL   C10012706   3.208   2.819   1.603 -0.0729 -0.2484  0.1256
   34MOL   C10112707   3.106   2.868   1.710  0.0335  0.5949  0.3966
   34MOL   C10212708   3.142   2.829   1.856  0.1673 -0.1517 -0.2030
   34MOL   O10312709   2.964   2.792   1.433 -0.1463 -0.4450  0.1059
   34MOL   H10412710   3.007   3.012   1.311 -2.6873 -1.8671  1.0920
   34MOL   H10512711   3.160   2.953   1.231  0.0834  0.3888 -0.6041
   34MOL   H10612712   3.135   2.737   1.334 -0.0602  0.4273 -0.6416
   34MOL   H10712713   3.162   2.995   1.480 -3.7641 -0.3964 -0.2819
   34MOL   H10812714   3.289   2.907   1.426 -0.8387  1.4298  0.1418
   34MOL   H10912715   3.302   2.836   1.654 -1.5885  1.6784  2.3862
   34MOL   H11012716   3.191   2.712   1.586  1.6018 -0.4815 -0.1639
   34MOL   H11112717   3.006   2.829   1.689  0.6132 -0.2424 -0.8586
   34MOL   H11212718   3.106   2.977   1.711  0.7028  0.5969  0.1784
   34MOL   H11312719   3.112   2.728   1.884  2.1114 -0.5982  0.3107
   34MOL   H11412720   3.249   2.828   1.877  0.9160 -0.1690 -3.6905
   34MOL   H11512721   3.105   2.902   1.928  0.7307 -0.3869  0.3290
   34MOL   C11612722   2.923   2.662   1.388  0.0801 -0.0635  0.5004
   34MOL   C11712723   2.800   2.619   1.468  0.0192  0.0284 -0.5173
   34MOL   C11812724   2.682   2.717   1.451 -0.2870 -0.9463  0.9801
   34MOL   C11912725   2.558   2.649   1.511  0.4452  0.0862 -0.4318
   34MOL   C12012726   2.431   2.741   1.511 -0.1802 -0.8046  0.6597
   34MOL   C12112727   2.313   2.672   1.573  0.4973  0.2226  0.1993
   34MOL   O12212728   2.832   2.591   1.605  0.2542  0.0241  0.4054
   34MOL   H12312729   2.881   2.662   1.287 -3.0925  0.6246  1.7584
   34MOL   H12412730   3.007   2.594   1.404  0.1810 -0.2201 -0.6754
   34MOL   H12512731   2.763   2.532   1.414 -1.1070 -1.0809  1.9705
   34MOL   H12612732   2.700   2.819   1.487  0.3550 -0.7928  0.2308
   34MOL   H12712733   2.666   2.737   1.345  1.8262 -1.4886  0.5532
   34MOL   H12812734   2.586   2.611   1.609 -2.2165 -0.0777  0.3297
   34MOL   H12912735   2.535   2.566   1.444  1.8770 -0.9873  0.3783
   34MOL   H13012736   2.451   2.832   1.568 -1.8185 -0.1849  0.2855
   34MOL   H13112737   2.414   2.773   1.408 -1.3404 -1.7873  0.5323
   34MOL   H13212738   2.301   2.693   1.680 -3.9407 -0.6161 -0.0570
   34MOL   H13312739   2.223   2.718   1.534  0.1745  0.2781  0.9951
   34MOL   H13412740   2.302   2.567   1.546 -0.2136  1.1101 -3.0669
   34MOL   C13512741   2.939   2.492   1.619 -0.4017  1.2611 -0.0252
   34MOL   C13612742   2.961   2.435   1.765 -0.2559  0.3005  0.3144
   34MOL   C13712743   3.096   2.348   1.782 -0.3058 -0.5554 -0.0672
   34MOL   C13812744   3.220   2.430   1.770 -0.7062 -0.1051  0.2664
   34MOL   C13912745   3.347   2.355   1.823 -0.2626  0.1640  0.3128
   34MOL   C14012746   3.385   2.249   1.723  0.8905 -0.5829  0.2246
   34MOL   O14112747   2.849   2.343   1.783  0.1887  0.5757  0.6317
   34MOL   H14212748   2.917   2.401   1.564  0.0114  0.2515  1.4502
   34MOL   H14312749   3.032   2.532   1.580 -0.8311 -0.2627 -2.7350
   34MOL   H14412750   2.966   2.513   1.841  0.8546 -1.7813  2.4699
   34MOL   H14512751   3.082   2.295   1.876  3.8892 -0.3639  0.7435
   34MOL   H14612752   3.093   2.269   1.707  0.7270  0.3223 -1.0679
   34MOL   H14712753   3.211   2.520   1.831 -0.7266 -1.3368  2.1301
   34MOL   H14812754   3.230   2.475   1.672 -2.9388  0.6029  0.3391
   34MOL   H14912755   3.344   2.314   1.924  0.3772  1.1296  0.7340
   34MOL   H15012756   3.426   2.430   1.818 -1.3477  1.3104  0.0054
   34MOL   H15112757   3.481   2.210   1.756  2.3270  1.7738 -1.0884
   34MOL   H15212758   3.312   2.169   1.736 -0.5943  0.5983 -0.6868
   34MOL   H15312759   3.377   2.291   1.622 -0.5052  1.7064  1.2534
   34MOL   C15412760   2.740   2.394   1.856  0.6261 -0.6543  0.5542
   34MOL   C15512761   2.607   2.315   1.858  0.4519 -0.6249  0.5602
   34MOL   C15612762   2.559   2.294   1.705  0.7792  0.0145 -0.1114
   34MOL   C15712763   2.425   2.224   1.688 -0.4093  0.1648  1.0951
   34MOL   C15812764   2.385   2.206   1.541  0.8210 -0.7421  0.6494
   34MOL   C15912765   2.239   2.165   1.515 -0.2627  1.1090  0.3669
   34MOL   O16012766   2.602   2.190   1.920 -0.7014 -0.5216  0.0723
   34MOL   H16112767   2.713   2.494   1.824  0.2585 -0.6073  0.9990
   34MOL   H16212768   2.775   2.399   1.959  3.3174  0.0456 -0.3630
   34MOL   H16312769   2.534   2.373   1.913 -0.0191 -2.3833  1.8352
   34MOL   H16412770   2.634   2.248   1.641  0.4680  0.0974 -0.5406
   34MOL   H16512771   2.552   2.394   1.661  1.8809  0.2276  0.1716
   34MOL   H16612772   2.348   2.270   1.751 -1.5409  1.0882 -0.9342
   34MOL   H16712773   2.439   2.129   1.739 -1.9223 -0.7260 -0.1023
   34MOL   H16812774   2.383   2.305   1.495 -0.5273 -1.5089 -1.0022
   34MOL   H16912775   2.468   2.159   1.487  1.6229  2.0721 -0.6785
   34MOL   H17012776   2.229   2.063   1.552  0.3906  0.7378 -0.4804
   34MOL   H17112777   2.207   2.160   1.411  1.5935  0.9557 -0.2183
   34MOL   H17212778   2.166   2.224   1.570  0.1324  0.1870  1.9007
   34MOL   C17312779   2.598   2.198   2.063  0.5378  0.1497 -0.1400
   34MOL   C17412780   2.628   2.064   2.130  0.1101 -0.1549 -0.3056
   34MOL   C17512781   2.509   1.967   2.120  0.1491 -0.0415 -0.1943
   34MOL   C17612782   2.480   1.913   1.985  0.3344 -0.0316 -0.0592
   34MOL   C17712783   2.408   1.779   1.988  0.6204  0.2547 -0.1102
   34MOL   C17812784   2.371   1.742   1.845  0.4183  0.0672 -0.0567
   34MOL   O17912785   2.753   2.010   2.099  0.0855 -0.2269 -0.6601
   34MOL   H18012786   2.501   2.238   2.092  0.0011 -0.8137 -0.5658
   34MOL   H18112787   2.652   2.282   2.105 -1.8317  0.7446  1.8349
   34MOL   H18212788   2.630   2.086   2.237 -0.8368 -0.8164 -0.1521
   34MOL   H18312789   2.529   1.879   2.180  0.6546 -0.4853 -1.0037
   34MOL   H18412790   2.418   2.009   2.163  0.3111 -0.4000  0.5072
   34MOL   H18512791   2.422   1.989   1.932 -2.1463 -1.8138  0.0292
   34MOL   H18612792   2.570   1.889   1.928 -0.5485 -1.6571 -0.8053
   34MOL   H18712793   2.476   1.704   2.028  0.3660 -0.5970 -1.2431
   34MOL   H18812794   2.318   1.788   2.049  0.5015 -2.1892  0.1256
   34MOL   H18912795   2.301   1.809   1.794 -0.4766 -1.6997 -1.1678
   34MOL   H19012796   2.332   1.641   1.852 -0.1055  0.2168 -0.7469
   34MOL   H19112797   2.462   1.752   1.786  0.3086  1.0706 -0.0696
   34MOL   C19212798   2.871   2.086   2.127  0.1698 -0.7497  0.1673
   34MOL   C19312799   2.997   2.029   2.073  0.6163  0.6403 -0.8158
   34MOL   C19412800   3.117   2.093   2.139  0.0107 -0.3020  0.1333
   34MOL   C19512801   3.251   2.018   2.135  0.1104  0.0134  0.1877
   34MOL   C19612802   3.357   2.099   2.214 -0.1864 -0.2982 -0.5435
   34MOL   C19712803   3.346   2.105   2.368  0.5486 -0.4994 -0.2410
   34MOL   O19812804   3.021   2.064   1.934 -0.1922 -0.2374  0.1005
   34MOL   H19912805   2.854   2.187   2.089 -0.8779 -0.5649  1.1051
   34MOL   H20012806   2.874   2.098   2.236 -0.3300  0.0014  0.1082
   34MOL   H20112807   3.002   1.922   2.093 -1.8233  0.4298 -1.1415
   34MOL   H20212808   3.140   2.196   2.111 -0.2754 -0.4314 -0.5797
   34MOL   H20312809   3.090   2.102   2.244  1.3358  1.6126  0.3255
   34MOL   H20412810   3.265   2.006   2.027 -2.2469 -1.8855  0.0623
   34MOL   H20512811   3.241   1.914   2.167  0.9113 -0.8890 -2.3769
   34MOL   H20612812   3.460   2.066   2.200  0.5306  1.4756  0.3510
   34MOL   H20712813   3.362   2.201   2.175  2.0616  0.1692  0.8813
   34MOL   H20812814   3.243   2.124   2.398  0.2395 -1.5178 -0.6662
   34MOL   H20912815   3.370   2.012   2.418 -0.8981 -1.6414 -1.6433
   34MOL   H21012816   3.403   2.191   2.406  0.5518 -1.1438  1.2484
   34MOL   C21112817   2.914   2.011   1.855  0.6559  0.7311 -0.1235
   34MOL   C21212818   2.959   1.975   1.713 -0.1728 -0.4439  0.1629
   34MOL   C21312819   2.840   1.960   1.615 -0.1480 -0.0044  0.1137
   34MOL   C21412820   2.725   1.859   1.663 -0.7304  0.1987 -0.3673
   34MOL   C21512821   2.630   1.818   1.555 -0.6284 -0.5044 -0.1004
   34MOL   C21612822   2.706   1.748   1.441  0.0745 -0.8914 -0.1266
   34MOL   O21712823   3.026   1.846   1.708  0.4905 -0.6989 -0.4047
   34MOL   H21812824   2.857   2.103   1.848  0.0232  0.3613  0.1356
   34MOL   H21912825   2.856   1.935   1.907 -1.6681  3.3354  1.1910
   34MOL   H22012826   3.025   2.056   1.679  1.0388 -1.8562 -0.9083
   34MOL   H22112827   2.795   2.059   1.607  1.4296  0.7809  0.6346
   34MOL   H22212828   2.889   1.933   1.521 -2.6633 -1.8705 -0.7296
   34MOL   H22312829   2.761   1.764   1.703 -1.6053 -0.6965 -1.6544
   34MOL   H22412830   2.665   1.906   1.741  1.6008  0.0626  1.5988
   34MOL   H22512831   2.557   1.748   1.593 -2.3709  1.0118 -0.5886
   34MOL   H22612832   2.581   1.906   1.512  0.6386  0.3411  0.1365
   34MOL   H22712833   2.756   1.655   1.469  1.1199 -0.6292 -1.0690
   34MOL   H22812834   2.775   1.810   1.383  0.9953 -0.6221  1.2335
   34MOL   H22912835   2.628   1.730   1.367 -1.2657  1.4099  0.6645
   34MOL   C23012836   3.169   1.862   1.696 -0.0242 -0.0218 -0.2425
   34MOL   C23112837   3.229   1.722   1.695 -0.6616 -0.1640 -0.0338
   34MOL   C23212838   3.167   1.623   1.606 -0.1040  0.2900 -0.1359
   34MOL   C23312839   3.219   1.483   1.616  0.1518 -0.0321  0.5053
   34MOL   C23412840   3.165   1.383   1.506 -0.1621 -0.0339 -0.2373
   34MOL   C23512841   3.014   1.356   1.531 -0.5414 -0.2035 -0.4673
   34MOL   O23612842   3.212   1.676   1.831 -0.7997 -0.0371  0.2547
   34MOL   H23712843   3.197   1.912   1.604 -0.0642 -0.2899 -0.3993
   34MOL   H23812844   3.210   1.921   1.778  2.9592 -1.5279 -0.6165
   34MOL   H23912845   3.334   1.744   1.678 -0.7413 -0.2530 -0.6334
   34MOL   H24012846   3.158   1.657   1.503  0.8444  0.7468 -0.0697
   34MOL   H24112847   3.067   1.610   1.647 -1.0317  0.9710 -2.1200
   34MOL   H24212848   3.196   1.437   1.712  1.3874  0.3070  0.9694
   34MOL   H24312849   3.327   1.491   1.608  0.3487 -0.4171  2.5063
   34MOL   H24412850   3.172   1.430   1.408  1.5175 -0.1526 -0.1893
   34MOL   H24512851   3.217   1.288   1.499 -1.3383 -0.6697 -0.5101
   34MOL   H24612852   2.977   1.285   1.456 -1.5874 -0.1413 -0.0243
   34MOL   H24712853   2.954   1.445   1.549  0.2827 -0.1176  2.0974
   34MOL   H24812854   3.003   1.294   1.620 -2.2809 -2.1267 -1.9698
   34MOL   C24912855   3.326   1.638   1.902  0.9032 -0.2254  0.7233
   34MOL   C25012856   3.301   1.646   2.056 -0.1237  0.5659  0.1759
   34MOL   C25112857   3.438   1.660   2.140  0.4682  0.7944  0.4971
   34MOL   C25212858   3.425   1.667   2.289  0.1680 -0.3310  0.1719
   34MOL   C25312859   3.545   1.699   2.371 -0.5761 -0.1766  0.2333
   34MOL   C25412860   3.500   1.723   2.522  0.0469  0.1096  0.4923
   34MOL   O25512861   3.244   1.522   2.096 -0.5203 -0.0885 -0.6243
   34MOL   H25612862   3.368   1.540   1.877 -1.7477 -0.9454 -1.1613
   34MOL   H25712863   3.396   1.719   1.882 -0.8900  0.8672 -1.5016
   34MOL   H25812864   3.250   1.741   2.071 -0.8363  0.6128 -2.3068
   34MOL   H25912865   3.492   1.569   2.113 -2.5063 -0.1244 -2.8264
   34MOL   H26012866   3.494   1.746   2.103  1.6609 -0.2227 -0.0877
   34MOL   H26112867   3.355   1.748   2.312  1.9647  0.4560  3.1498
   34MOL   H26212868   3.382   1.578   2.334 -0.9640  1.2575  2.3874
   34MOL   H26312869   3.615   1.616   2.372 -0.0524  0.2618  0.2939
   34MOL   H26412870   3.597   1.785   2.327 -0.9230 -0.1951 -0.2198
   34MOL   H26512871   3.589   1.735   2.584 -0.1635 -1.2232  1.0564
   34MOL   H26612872   3.443   1.637   2.557  1.6950 -0.3759  2.0145
   34MOL   H26712873   3.433   1.808   2.535 -0.1950 -0.0522  0.3212
   34MOL   C26812874   3.113   1.507   2.061  0.2937  0.0492 -0.6072
   34MOL   C26912875   3.070   1.361   2.081 -1.3571 -0.1183  0.5599
   34MOL   C27012876   2.919   1.341   2.052  0.4806 -0.2503 -0.2123
   34MOL   C27112877   2.878   1.380   1.905 -0.5046  0.3742 -0.6168
   34MOL   C27212878   2.747   1.318   1.850  0.3680  0.4983  0.1931
   34MOL   C27312879   2.692   1.383   1.725  0.0338 -0.0565  0.0345
   34MOL   O27412880   3.119   1.324   2.210  0.4475  0.3010 -0.0899
   34MOL   H27512881   3.087   1.552   1.965 -0.9190  0.9447  0.1291
   34MOL   H27612882   3.055   1.579   2.119 -2.6895 -3.3097  0.7367
   34MOL   H27712883   3.134   1.310   2.008 -2.5163 -0.7071 -0.0604
   34MOL   H27812884   2.894   1.237   2.074 -2.4583  0.0559 -1.8505
   34MOL   H27912885   2.859   1.394   2.126 -0.7682 -0.2849 -1.1838
   34MOL   H28012886   2.860   1.488   1.912 -1.8767 -0.0378  2.9938
   34MOL   H28112887   2.956   1.368   1.829 -0.3262 -2.1083 -0.0498
   34MOL   H28212888   2.749   1.209   1.845 -0.7884  0.4328  0.9732
   34MOL   H28312889   2.675   1.345   1.926  0.2728  0.5831  0.0738
   34MOL   H28412890   2.602   1.330   1.696 -1.5140  2.7592 -0.4510
   34MOL   H28512891   2.662   1.488   1.732 -0.2602 -0.0448 -1.3689
   34MOL   H28612892   2.765   1.369   1.646 -0.8879 -0.9078 -0.6706
   34MOL   C28712893   3.125   1.186   2.234 -0.4348 -0.8273 -0.0325
   34MOL   C28812894   3.178   1.157   2.378  1.0089  0.3487  0.1366
   34MOL   C28912895   3.199   1.002   2.396 -0.2748  0.7613  0.3085
   34MOL   C29012896   3.279   0.974   2.525 -0.4893 -0.1264  0.3091
   34MOL   C29112897   3.283   0.831   2.571  0.1350  0.1712  0.3006
   34MOL   C29212898   3.357   0.802   2.695  0.4285 -0.3081 -0.0176
   34MOL   O29312899   3.098   1.206   2.482 -0.1401  0.0272  0.2743
   34MOL   H29412900   3.208   1.169   2.166  1.1826  0.3628  1.6008
   34MOL   H29512901   3.039   1.129   2.196 -0.9971 -0.2237  0.3227
   34MOL   H29612902   3.282   1.190   2.389  0.4901  1.7567  0.9343
   34MOL   H29712903   3.103   0.953   2.406 -0.5941  0.9725 -1.5497
   34MOL   H29812904   3.245   0.955   2.309 -0.9481  0.6415  0.0123
   34MOL   H29912905   3.372   1.030   2.520 -1.1835  1.2223  2.0423
   34MOL   H30012906   3.231   1.032   2.604 -0.4167 -0.3881  0.5438
   34MOL   H30112907   3.341   0.781   2.494 -1.0781 -2.0088  0.7870
   34MOL   H30212908   3.186   0.783   2.582  0.8753 -1.0583  1.6016
   34MOL   H30312909   3.457   0.845   2.687 -0.0966  0.9062 -0.0575
   34MOL   H30412910   3.307   0.849   2.779  0.1205 -0.0608 -0.3406
   34MOL   H30512911   3.355   0.697   2.725  2.5912  0.6169  3.6687
   34MOL   C30612912   3.107   1.343   2.498 -0.3091 -0.0924  0.1745
   34MOL   C30712913   2.976   1.419   2.482  0.5318 -0.1849 -0.4747
   34MOL   C30812914   2.994   1.563   2.436 -0.4026  0.5326 -0.8281
   34MOL   C30912915   2.861   1.625   2.407  0.2532  0.0283  0.0005
   34MOL   C31012916   2.862   1.763   2.338  0.2532 -0.0246 -0.3009
   34MOL   C31112917   2.919   1.864   2.434  0.1510 -0.3508  0.4331
   34MOL   O31212918   2.912   1.423   2.609  0.2363  0.7402 -0.2150
   34MOL   H31312919   3.145   1.350   2.600 -0.6455 -1.1352  0.3741
   34MOL   H31412920   3.181   1.384   2.430 -0.3114 -1.1509 -0.4708
   34MOL   H31512921   2.913   1.365   2.412  1.3889 -2.4313  0.4511
   34MOL   H31612922   3.048   1.559   2.342  0.2251 -1.7275 -0.4128
   34MOL   H31712923   3.057   1.622   2.503 -2.3675  1.4758  0.2501
   34MOL   H31812924   2.796   1.569   2.340  0.0519 -0.3831  0.5335
   34MOL   H31912925   2.811   1.643   2.503 -5.0837  0.0706 -2.5733
   34MOL   H32012926   2.761   1.796   2.313 -1.0325 -2.1193  1.9807
   34MOL   H32112927   2.918   1.763   2.244  0.9947 -0.5261  0.1409
   34MOL   H32212928   3.021   1.831   2.452  0.4962  0.2318 -0.4444
   34MOL   H32312929   2.913   1.963   2.388 -0.4597 -0.6797 -0.2132
   34MOL   H32412930   2.858   1.863   2.524 -0.8789  0.2746 -0.2446
   34MOL   C32512931   2.815   1.314   2.626 -0.2412  0.1185  1.8000
   34MOL   C32612932   2.685   1.344   2.544 -0.4412  0.2871 -0.6483
   34MOL   C32712933   2.578   1.422   2.621 -0.1074 -0.4924  0.1374
   34MOL   C32812934   2.470   1.482   2.524 -0.1952 -0.2416  0.3627
   34MOL   C32912935   2.486   1.631   2.477 -0.0724  0.5528  0.3223
   34MOL   C33012936   2.379   1.678   2.381  0.1370  0.0514  0.0292
   34MOL   O33112937   2.637   1.218   2.513 -0.7858 -0.5944 -0.3760
   34MOL   H33212938   2.778   1.295   2.727 -0.1439 -1.8787  1.4790
   34MOL   H33312939   2.857   1.223   2.584  0.8757  0.6401  1.7739
   34MOL   H33412940   2.698   1.407   2.456 -0.0545  1.0095 -0.0815
   34MOL   H33512941   2.546   1.362   2.706 -0.7843 -0.0566  0.1876
   34MOL   H33612942   2.630   1.508   2.663  1.2886 -1.2593  0.0149
   34MOL   H33712943   2.457   1.427   2.431  1.2448  0.2690 -0.1605
   34MOL   H33812944   2.376   1.467   2.577  0.6681 -3.1519  1.1831
   34MOL   H33912945   2.483   1.696   2.564 -0.6461  1.2900 -0.2447
   34MOL   H34012946   2.578   1.626   2.419 -0.3734 -3.3368  0.0239
   34MOL   H34112947   2.408   1.657   2.278  0.1459 -0.9068  0.2262
   34MOL   H34212948   2.289   1.618   2.390  0.6106 -0.6206  0.3541
   34MOL   H34312949   2.352   1.784   2.376  1.8609  0.4417 -2.3508
   34MOL   C34412950   2.657   1.182   2.377  0.1822  0.5708  0.5424
   34MOL   C34512951   2.621   1.029   2.355  0.3949  0.8649 -0.0985
   34MOL   C34612952   2.590   1.023   2.201  0.4972  0.1319  0.3152
   34MOL   C34712953   2.538   0.882   2.164  0.1896  0.1726  0.7569
   34MOL   C34812954   2.453   0.880   2.037 -0.3514 -0.2081 -0.5780
   34MOL   C34912955   2.430   0.746   1.968 -0.0039  0.7081 -0.7968
   34MOL   O35012956   2.728   0.941   2.384 -0.0108  0.4650  0.8580
   34MOL   H35112957   2.756   1.214   2.347 -0.0948 -0.1056 -1.1435
   34MOL   H35212958   2.583   1.252   2.338 -0.3857 -0.3433 -0.0361
   34MOL   H35312959   2.538   1.009   2.423 -1.2361  2.9161 -1.4190
   34MOL   H35412960   2.672   1.060   2.140 -1.2758  0.2475 -2.1087
   34MOL   H35512961   2.511   1.095   2.179 -0.8118 -1.9114 -1.9432
   34MOL   H35612962   2.489   0.834   2.249  1.2888 -1.3868  0.5324
   34MOL   H35712963   2.637   0.838   2.160 -0.6072 -1.6402  0.1943
   34MOL   H35812964   2.508   0.934   1.960 -0.4020  2.1417  1.0003
   34MOL   H35912965   2.355   0.925   2.050 -0.7709 -0.3950 -2.7744
   34MOL   H36012966   2.528   0.710   1.939 -0.6614 -1.6201 -0.2061
   34MOL   H36112967   2.368   0.769   1.881 -0.3022 -2.2544 -1.4133
   34MOL   H36212968   2.390   0.681   2.046  0.7248 -0.0306 -1.0416
   34MOL   C36312969   2.761   0.928   2.520  0.0341  0.9647  0.5429
   34MOL   C36412970   2.828   0.790   2.527  0.5132 -0.1579 -0.5338
   34MOL   C36512971   2.722   0.684   2.488  0.0668  0.6181 -0.2086
   34MOL   C36612972   2.785   0.550   2.496 -0.6434 -0.6863 -0.6365
   34MOL   C36712973   2.706   0.430   2.456  0.1625  0.2134 -0.8719
   34MOL   C36812974   2.647   0.426   2.318  0.0865  0.2846 -0.3632
   34MOL   O36912975   2.933   0.796   2.430  0.1042  0.3551  0.3858
   34MOL   H37012976   2.676   0.941   2.587 -1.3967  1.8676 -1.3941
   34MOL   H37112977   2.833   1.008   2.535 -0.0975  1.3296 -0.6538
   34MOL   H37212978   2.873   0.778   2.625  1.0310  0.0722 -0.7406
   34MOL   H37312979   2.632   0.682   2.550 -0.2215 -1.9987 -0.6263
   34MOL   H37412980   2.673   0.691   2.391 -0.3669 -1.6307 -0.1848
   34MOL   H37512981   2.879   0.552   2.441 -0.8218  1.5053 -0.8768
   34MOL   H37612982   2.807   0.528   2.601 -2.0827  0.0229 -0.1794
   34MOL   H37712983   2.753   0.334   2.476 -2.1315 -0.5499  1.0496
   34MOL   H37812984   2.620   0.434   2.523  0.6843 -0.7093 -0.1441
   34MOL   H37912985   2.585   0.511   2.291 -1.5044  0.0338  2.3492
   34MOL   H38012986   2.719   0.437   2.237 -0.4838  0.1954 -0.8790
   34MOL   H38112987   2.588   0.337   2.298  2.5759 -1.4778 -0.1046
   34MOL   H38212988   2.890   0.819   2.349  1.4564  0.3200 -0.3426
   35MOL     C112989   3.023   6.128   5.449 -0.1461 -0.6133 -0.7578
   35MOL     C212990   3.053   6.262   5.378  0.6884  0.4853 -0.3605
   35MOL     C312991   2.920   6.348   5.366 -0.1126  0.0988  0.4893
   35MOL     C412992   2.938   6.468   5.266  0.3014  0.0671  0.3901
   35MOL     C512993   2.808   6.554   5.272  0.0865 -0.5510  0.4966
   35MOL     C612994   2.824   6.670   5.175 -0.3692  0.2551 -0.1816
   35MOL     O712995   3.148   6.341   5.441 -0.0940  0.0335  0.2948
   35MOL     H812996   2.999   6.145   5.554  0.7395 -2.0821 -0.3059
   35MOL     H912997   3.113   6.070   5.468  0.6221  1.0027  0.6717
   35MOL    H1012998   3.096   6.241   5.280  0.1406  1.1069 -0.7478
   35MOL    H1112999   2.842   6.275   5.342 -0.2920 -0.4696  2.6507
   35MOL    H1213000   2.887   6.383   5.464 -1.1456 -3.7809  1.6115
   35MOL    H1313001   3.033   6.517   5.288 -0.9773  2.1210  1.5511
   35MOL    H1413002   2.953   6.424   5.167 -2.4412 -3.0100  1.2780
   35MOL    H1513003   2.722   6.499   5.234  0.6578  0.5894 -2.6519
   35MOL    H1613004   2.780   6.582   5.373  2.8823 -0.1139  1.1926
   35MOL    H1713005   2.903   6.730   5.219  0.8684 -0.2733 -1.6559
   35MOL    H1813006   2.836   6.644   5.070 -2.3280 -0.2736 -0.3012
   35MOL    H1913007   2.728   6.721   5.166 -1.0915 -1.4365 -2.7143
   35MOL    H2013008   2.945   6.066   5.404  0.4189 -1.2846 -0.8245
   35MOL    C2113009   3.282   6.307   5.436  0.0505 -0.0848  0.6953
   35MOL    C2213010   3.357   6.408   5.524  0.6024  0.2345 -0.4201
   35MOL    C2313011   3.500   6.371   5.567  0.2482 -0.1997  0.4331
   35MOL    C2413012   3.568   6.481   5.649  0.4942  0.1150 -0.2310
   35MOL    C2513013   3.709   6.444   5.698 -0.3286 -0.1756  0.0147
   35MOL    C2613014   3.714   6.310   5.784 -0.0456 -0.7469  0.1136
   35MOL    O2713015   3.365   6.529   5.454 -0.0578 -0.2806  0.0025
   35MOL    H2813016   3.293   6.215   5.494 -0.5431 -1.4058 -1.2774
   35MOL    H2913017   3.310   6.291   5.332 -2.9752 -0.3365 -0.1271
   35MOL    H3013018   3.309   6.427   5.619  0.0983 -2.6147 -0.0670
   35MOL    H3113019   3.567   6.356   5.483  1.8263 -0.3497  1.6995
   35MOL    H3213020   3.491   6.274   5.616  0.4126 -1.1635 -1.4063
   35MOL    H3313021   3.506   6.502   5.736  1.7498  0.0844  0.6870
   35MOL    H3413022   3.579   6.570   5.586 -0.8873 -0.8905 -1.9466
   35MOL    H3513023   3.775   6.437   5.612 -0.5558  2.5873 -0.4471
   35MOL    H3613024   3.762   6.520   5.756  0.2213  0.2394 -1.0320
   35MOL    H3713025   3.808   6.302   5.838 -0.1005  0.6276  0.4353
   35MOL    H3813026   3.705   6.218   5.726  0.7729 -0.5426 -0.3374
   35MOL    H3913027   3.632   6.308   5.857  0.9285  0.1342  1.2611
   35MOL    C4013028   3.266   6.623   5.498  0.1474  0.1579  0.3391
   35MOL    C4113029   3.276   6.745   5.404 -0.1565 -0.4532 -0.3870
   35MOL    C4213030   3.213   6.871   5.460  0.5318  0.0771  0.1158
   35MOL    C4313031   3.213   6.997   5.375  0.6272 -0.3521 -0.1887
   35MOL    C4413032   3.124   7.110   5.440 -0.0651  0.8349  0.3029
   35MOL    C4513033   3.156   7.248   5.384  0.0756  0.0860 -0.5297
   35MOL    O4613034   3.209   6.713   5.282  0.4791 -0.7451 -0.4708
   35MOL    H4713035   3.300   6.645   5.599 -1.2822  0.3018  0.8081
   35MOL    H4813036   3.161   6.594   5.505 -0.2328  1.6995  1.2125
   35MOL    H4913037   3.383   6.763   5.391 -0.6550  1.0687 -2.8182
   35MOL    H5013038   3.109   6.850   5.486 -0.0037  0.6270 -1.4799
   35MOL    H5113039   3.262   6.894   5.554  1.7868  1.6338 -0.8959
   35MOL    H5213040   3.166   6.967   5.282  0.7670  0.1456 -0.4209
   35MOL    H5313041   3.310   7.042   5.354  1.4077 -1.3811  1.0782
   35MOL    H5413042   3.021   7.076   5.430  0.6769 -1.1178 -1.0122
   35MOL    H5513043   3.132   7.106   5.549 -0.0713 -1.3592  0.2387
   35MOL    H5613044   3.260   7.281   5.393 -0.3307  0.9285  1.4732
   35MOL    H5713045   3.132   7.240   5.278  1.0871  3.3456 -1.0786
   35MOL    H5813046   3.088   7.326   5.420 -0.0486  0.2747 -1.1627
   35MOL    C5913047   3.289   6.662   5.178  0.0523  0.1242  0.3220
   35MOL    C6013048   3.307   6.778   5.077 -0.1138  0.0148 -0.1199
   35MOL    C6113049   3.172   6.823   5.025 -0.2339 -0.4623 -0.3601
   35MOL    C6213050   3.179   6.913   4.905  0.3192 -0.0598  0.5955
   35MOL    C6313051   3.039   6.951   4.854 -0.8043 -0.2439 -0.3179
   35MOL    C6413052   3.070   7.051   4.739 -0.5437  0.8410 -0.4765
   35MOL    O6513053   3.370   6.891   5.135 -0.4317  0.1224  0.2871
   35MOL    H6613054   3.242   6.576   5.131  0.1528  0.1590  0.1547
   35MOL    H6713055   3.383   6.630   5.223  1.4600  1.9898 -1.2038
   35MOL    H6813056   3.357   6.725   4.996  1.5936  0.7692  0.4091
   35MOL    H6913057   3.108   6.875   5.095 -1.4456 -1.0742 -0.9896
   35MOL    H7013058   3.126   6.730   4.989 -0.8760 -0.3370  0.1322
   35MOL    H7113059   3.236   6.872   4.822 -1.6118  0.2068 -0.8927
   35MOL    H7213060   3.236   7.001   4.935 -0.6217  0.4310  0.9709
   35MOL    H7313061   2.978   7.007   4.925 -2.0048 -2.2912  0.3147
   35MOL    H7413062   2.982   6.862   4.827  0.7343 -1.4837  0.4396
   35MOL    H7513063   2.982   7.104   4.702 -1.1045 -0.4979 -1.1101
   35MOL    H7613064   3.149   7.122   4.763 -0.3121  0.5758 -0.4551
   35MOL    H7713065   3.110   7.000   4.651 -0.4729  0.4387 -0.2127
   35MOL    C7813066   3.512   6.865   5.157 -0.4353  0.5645  0.0717
   35MOL    C7913067   3.572   6.972   5.255 -0.0825  0.4123  0.5379
   35MOL    C8013068   3.556   7.115   5.203  0.4806  0.1963 -0.3044
   35MOL    C8113069   3.583   7.210   5.313  0.2784  0.1412 -0.2355
   35MOL    C8213070   3.557   7.358   5.278  0.3360 -0.0423 -0.6451
   35MOL    C8313071   3.566   7.448   5.400  0.0450 -0.3215 -0.1780
   35MOL    O8413072   3.700   6.929   5.298  0.3648  0.3810 -0.3027
   35MOL    H8513073   3.576   6.867   5.069  3.6967  0.2805  2.9404
   35MOL    H8613074   3.525   6.771   5.209  0.8478  0.6372 -0.1063
   35MOL    H8713075   3.503   6.974   5.339 -0.9973 -2.5912 -0.0555
   35MOL    H8813076   3.616   7.137   5.115  0.8672  0.3762  0.0021
   35MOL    H8913077   3.452   7.121   5.169  0.3596 -0.8793 -0.1441
   35MOL    H9013078   3.688   7.193   5.339  0.1738 -0.9592 -0.4774
   35MOL    H9113079   3.513   7.192   5.395 -0.6159 -4.8459 -1.8916
   35MOL    H9213080   3.619   7.396   5.197  1.3420  2.6753  1.3068
   35MOL    H9313081   3.454   7.369   5.244 -0.3003  1.7411  1.7271
   35MOL    H9413082   3.668   7.446   5.438 -0.5715 -1.0140  1.5024
   35MOL    H9513083   3.498   7.410   5.476  0.7767  0.2177  0.7506
   35MOL    H9613084   3.547   7.553   5.380  0.7407  0.2825  2.2225
   35MOL    C9713085   3.705   6.902   5.440  0.2048  0.0941 -0.3925
   35MOL    C9813086   3.853   6.894   5.480  0.1764  0.2215 -0.5110
   35MOL    C9913087   3.877   6.859   5.627 -0.3924 -0.0428 -0.4206
   35MOL   C10013088   4.025   6.900   5.680 -0.0150 -0.6586 -0.3984
   35MOL   C10113089   4.071   6.874   5.824 -0.6918  0.1306 -0.1233
   35MOL   C10213090   4.089   6.728   5.852  0.4440  0.7459 -0.1926
   35MOL   O10313091   3.923   6.800   5.396 -0.0990  0.5118  0.0824
   35MOL   H10413092   3.656   6.809   5.469  1.5301 -1.0104 -1.5895
   35MOL   H10513093   3.657   6.982   5.496 -0.2462 -1.0779  0.9496
   35MOL   H10613094   3.899   6.988   5.453 -0.7299  0.7163 -0.3489
   35MOL   H10713095   3.851   6.755   5.646  0.0047 -0.5225 -2.4201
   35MOL   H10813096   3.814   6.929   5.682 -0.4668  1.1908 -2.0503
   35MOL   H10913097   4.020   7.008   5.690 -0.7008 -0.8031  0.9744
   35MOL   H11013098   4.094   6.860   5.606  1.3423  0.7164  0.1116
   35MOL   H11113099   3.998   6.910   5.897  0.3497 -1.9897  1.9951
   35MOL   H11213100   4.165   6.927   5.837  1.2447 -2.3060 -3.5113
   35MOL   H11313101   3.996   6.671   5.847  0.1425  1.1797  0.4645
   35MOL   H11413102   4.146   6.686   5.768 -0.2452 -0.4427 -0.0678
   35MOL   H11513103   4.149   6.714   5.941  0.7140  1.4914 -0.2505
   35MOL   C11613104   3.882   6.664   5.393 -0.7705  0.4614  0.6875
   35MOL   C11713105   3.946   6.592   5.278 -0.1657 -0.0230 -0.0571
   35MOL   C11813106   3.872   6.473   5.217  0.6668  0.4605 -0.1902
   35MOL   C11913107   3.736   6.515   5.151  0.5647 -0.0608 -0.0396
   35MOL   C12013108   3.683   6.421   5.045  0.2741  0.3972  0.0068
   35MOL   C12113109   3.664   6.272   5.087 -0.4231 -0.4167 -0.3098
   35MOL   O12213110   4.073   6.539   5.313 -0.4466 -0.0110  0.5122
   35MOL   H12313111   3.890   6.610   5.488 -0.1329 -0.5799  0.0560
   35MOL   H12413112   3.773   6.658   5.383 -0.9077 -0.1741  2.3325
   35MOL   H12513113   3.966   6.659   5.195 -0.1921 -0.0591 -0.0931
   35MOL   H12613114   3.933   6.426   5.140  0.5476 -0.7286  0.4356
   35MOL   H12713115   3.866   6.394   5.291  1.0445 -0.2961 -0.9517
   35MOL   H12813116   3.725   6.613   5.105 -1.1216 -1.4711 -2.7682
   35MOL   H12913117   3.670   6.503   5.237  1.0319  0.6372  0.4251
   35MOL   H13013118   3.583   6.455   5.016  0.1990 -0.8593 -1.2573
   35MOL   H13113119   3.747   6.427   4.957  0.1200 -1.3018 -0.2351
   35MOL   H13213120   3.747   6.240   5.150 -0.2837 -2.1251 -1.3125
   35MOL   H13313121   3.575   6.267   5.148 -1.4496  0.8576 -1.6789
   35MOL   H13413122   3.654   6.200   5.005  1.8640 -1.4918  0.3057
   35MOL   C13513123   4.171   6.634   5.362  0.0110  0.0477  0.8068
   35MOL   C13613124   4.303   6.557   5.409  0.3576 -0.8436 -0.5807
   35MOL   C13713125   4.377   6.622   5.530 -0.5309  0.3779  0.2784
   35MOL   C13813126   4.492   6.530   5.587  0.4335 -0.9842  0.7453
   35MOL   C13913127   4.575   6.605   5.690  0.2730 -0.3954 -1.1291
   35MOL   C14013128   4.705   6.541   5.741 -1.0746 -0.6575 -0.4642
   35MOL   O14113129   4.390   6.529   5.304 -0.4583 -0.7256 -0.3035
   35MOL   H14213130   4.199   6.709   5.287 -0.9633 -1.0326 -0.6846
   35MOL   H14313131   4.131   6.685   5.449  0.4254  0.7462  0.5934
   35MOL   H14413132   4.260   6.462   5.441  2.2976 -0.7115  2.6993
   35MOL   H14513133   4.409   6.722   5.500 -0.9948  0.8259  1.2740
   35MOL   H14613134   4.309   6.644   5.612 -2.2536  0.0930 -1.0317
   35MOL   H14713135   4.557   6.527   5.500 -1.0120  0.4177 -0.4261
   35MOL   H14813136   4.462   6.427   5.601 -1.0277 -0.6360  0.2363
   35MOL   H14913137   4.515   6.616   5.780  1.9000 -2.0516  0.1836
   35MOL   H15013138   4.593   6.707   5.655 -0.7522 -0.3795 -1.6394
   35MOL   H15113139   4.680   6.448   5.791 -1.3577  0.1973  1.0006
   35MOL   H15213140   4.774   6.526   5.658  0.1080  3.2478 -0.3138
   35MOL   H15313141   4.750   6.613   5.809  0.9474 -1.2977 -1.1057
   35MOL   C15413142   4.343   6.453   5.187 -0.0375 -0.2219  0.2586
   35MOL   C15513143   4.460   6.382   5.113 -0.2033 -0.0122 -0.0573
   35MOL   C15613144   4.522   6.275   5.200  0.1808 -0.2421  0.2177
   35MOL   C15713145   4.648   6.219   5.129 -0.0729 -0.6749 -0.6207
   35MOL   C15813146   4.719   6.104   5.209  0.1908  0.1716 -0.1069
   35MOL   C15913147   4.848   6.051   5.147 -0.2716 -0.2751  0.4394
   35MOL   O16013148   4.404   6.311   4.999  0.3887  0.0614 -0.3949
   35MOL   H16113149   4.298   6.527   5.122 -0.9929 -0.5398  0.5586
   35MOL   H16213150   4.271   6.376   5.214  1.6057 -2.0363 -0.3838
   35MOL   H16313151   4.532   6.454   5.072 -0.7824 -0.7205 -2.3476
   35MOL   H16413152   4.459   6.188   5.217  1.8697 -1.7965 -1.2209
   35MOL   H16513153   4.548   6.321   5.295  0.3677  0.0912  0.0056
   35MOL   H16613154   4.722   6.293   5.097 -0.1338 -0.3244  0.0522
   35MOL   H16713155   4.613   6.178   5.034  0.2548 -1.0771 -0.5724
   35MOL   H16813156   4.745   6.158   5.300  0.3142  0.9492 -0.5960
   35MOL   H16913157   4.651   6.025   5.241 -0.9857  0.8598 -0.9119
   35MOL   H17013158   4.906   5.998   5.223 -2.2988 -1.8494  0.9103
   35MOL   H17113159   4.903   6.129   5.094 -0.7420 -0.3608 -0.1751
   35MOL   H17213160   4.833   5.975   5.070  1.1806 -2.1408  1.9189
   35MOL   C17313161   4.438   6.352   4.867 -0.0065  0.0260  0.2137
   35MOL   C17413162   4.384   6.248   4.773 -0.1176 -0.1253  0.6053
   35MOL   C17513163   4.430   6.102   4.810 -0.1259  0.9170 -0.0582
   35MOL   C17613164   4.380   5.990   4.719  0.4900 -0.3173  0.7276
   35MOL   C17713165   4.464   5.865   4.715 -0.5443 -0.0661  0.2835
   35MOL   C17813166   4.400   5.753   4.630  0.1927 -0.0256  0.0003
   35MOL   O17913167   4.244   6.264   4.787 -0.1158 -0.1922  0.4364
   35MOL   H18013168   4.544   6.358   4.843 -0.1273 -2.0509 -0.9876
   35MOL   H18113169   4.398   6.450   4.842 -1.2632  0.1876  2.7736
   35MOL   H18213170   4.413   6.260   4.669 -1.1996 -1.2873  0.1592
   35MOL   H18313171   4.539   6.097   4.813 -0.1484 -2.1823 -1.9686
   35MOL   H18413172   4.400   6.076   4.911 -0.1837 -1.4869 -0.6735
   35MOL   H18513173   4.286   5.949   4.756  0.0904 -1.8777 -1.9092
   35MOL   H18613174   4.367   6.035   4.620 -1.5940 -0.1163  1.0648
   35MOL   H18713175   4.560   5.889   4.669  0.2617 -0.0911  1.8904
   35MOL   H18813176   4.482   5.824   4.815 -0.0785 -0.5477  0.0031
   35MOL   H18913177   4.460   5.665   4.609  1.4354  0.3732  1.7216
   35MOL   H19013178   4.371   5.780   4.529  0.6213  1.3608  0.2324
   35MOL   H19113179   4.320   5.711   4.691  0.2493 -0.9780 -0.5671
   35MOL   C19213180   4.185   6.316   4.665 -0.7643  0.4485  0.3817
   35MOL   C19313181   4.037   6.339   4.683  0.1302  0.4959 -0.0930
   35MOL   C19413182   3.964   6.295   4.555 -0.0618 -0.3744  0.3625
   35MOL   C19513183   3.815   6.309   4.562  0.0928  0.4333  1.1944
   35MOL   C19613184   3.753   6.302   4.422 -0.1378  0.1962  0.0337
   35MOL   C19713185   3.603   6.286   4.429  0.0279 -0.8531 -0.2204
   35MOL   O19813186   4.011   6.481   4.710 -0.5450 -0.0580  0.4028
   35MOL   H19913187   4.242   6.401   4.627  1.6855 -0.8284  1.0752
   35MOL   H20013188   4.201   6.238   4.591  0.1780 -0.6055  1.6575
   35MOL   H20113189   4.002   6.280   4.767  1.6187 -0.1977  0.0625
   35MOL   H20213190   4.001   6.348   4.468  0.5980  0.0138  0.8742
   35MOL   H20313191   3.984   6.189   4.539  1.0411  0.1952 -2.2453
   35MOL   H20413192   3.779   6.399   4.612 -0.2050  1.5863 -1.0117
   35MOL   H20513193   3.768   6.233   4.623  0.5549 -1.0536 -0.2686
   35MOL   H20613194   3.773   6.395   4.368  0.3334  1.0715  1.7063
   35MOL   H20713195   3.785   6.217   4.361 -1.0403  1.5220 -2.3515
   35MOL   H20813196   3.585   6.189   4.475  3.4848 -2.4795 -2.0372
   35MOL   H20913197   3.551   6.361   4.489  0.5206  0.2063 -1.0959
   35MOL   H21013198   3.557   6.293   4.330  1.0243  0.7826 -0.5781
   35MOL   C21113199   4.032   6.514   4.842 -0.7862 -0.2425  0.5095
   35MOL   C21213200   4.014   6.671   4.858  0.3757  1.3803 -0.4804
   35MOL   C21313201   3.899   6.733   4.772  0.3621 -0.6380  0.0782
   35MOL   C21413202   3.886   6.882   4.817 -0.7177 -0.5260 -0.5831
   35MOL   C21513203   3.776   6.958   4.737  0.2256 -0.2906 -0.4018
   35MOL   C21613204   3.625   6.934   4.756 -0.1808 -0.1174  0.0613
   35MOL   O21713205   4.133   6.739   4.816  0.3258 -0.2837  0.1551
   35MOL   H21813206   4.135   6.484   4.865 -0.5399  0.6166  0.5323
   35MOL   H21913207   3.973   6.463   4.919 -0.5501  1.0044  1.5385
   35MOL   H22013208   3.990   6.687   4.964 -1.9009 -1.2918 -0.5187
   35MOL   H22113209   3.910   6.718   4.665  0.2054  0.9860 -0.1812
   35MOL   H22213210   3.810   6.677   4.800 -1.3524  1.3556 -1.2725
   35MOL   H22313211   3.870   6.888   4.925  0.6363  0.3756 -0.4235
   35MOL   H22413212   3.985   6.927   4.812 -0.8534 -0.1805 -0.1702
   35MOL   H22513213   3.792   7.062   4.765 -0.4300 -0.4448  0.5844
   35MOL   H22613214   3.795   6.965   4.630  1.7384  0.7096 -0.0902
   35MOL   H22713215   3.589   6.837   4.721  0.1154 -0.4421  0.6536
   35MOL   H22813216   3.561   6.996   4.694  1.1267 -0.1277 -1.3192
   35MOL   H22913217   3.588   6.963   4.855  1.3970 -0.3776  0.7332
   35MOL   C23013218   4.235   6.771   4.903 -0.2994  0.3129 -0.4300
   35MOL   C23113219   4.366   6.772   4.820 -0.3092  0.0957 -0.8630
   35MOL   C23213220   4.480   6.749   4.917 -0.8761  0.0766  0.3822
   35MOL   C23313221   4.610   6.735   4.855  0.2255 -0.2771  0.2899
   35MOL   C23413222   4.724   6.738   4.960 -0.2541 -0.0687  0.3788
   35MOL   C23513223   4.865   6.685   4.904  0.6045 -0.5896  0.0259
   35MOL   O23613224   4.378   6.892   4.745 -0.1821  0.0621 -0.2544
   35MOL   H23713225   4.205   6.858   4.961 -1.6570 -1.2690  1.3140
   35MOL   H23813226   4.234   6.686   4.972  1.8484  0.7347  0.1771
   35MOL   H23913227   4.370   6.690   4.748 -3.5222 -0.8956  0.0049
   35MOL   H24013228   4.461   6.653   4.966 -3.3309  0.9557  1.2271
   35MOL   H24113229   4.494   6.823   4.995 -0.7165  0.2463  0.1892
   35MOL   H24213230   4.627   6.821   4.790 -2.2665  0.6845  0.8473
   35MOL   H24313231   4.615   6.645   4.794 -0.2276 -0.2621  0.2278
   35MOL   H24413232   4.717   6.837   5.006 -1.4660  0.1308 -0.1930
   35MOL   H24513233   4.704   6.665   5.039  0.3311 -0.0669  0.5327
   35MOL   H24613234   4.946   6.706   4.973  2.7565 -0.8752 -2.3497
   35MOL   H24713235   4.867   6.740   4.809  1.7981  1.3419  1.1348
   35MOL   H24813236   4.850   6.578   4.896 -0.3801 -0.5496  1.2180
   35MOL   C24913237   4.284   6.912   4.642 -0.0946 -0.9317  0.3906
   35MOL   C25013238   4.333   7.035   4.562 -0.6176  0.0169  0.4743
   35MOL   C25113239   4.221   7.085   4.472  0.1140  0.4114  0.2566
   35MOL   C25213240   4.248   7.221   4.392 -0.3654  0.2365 -0.8634
   35MOL   C25313241   4.160   7.229   4.266 -0.3852  0.5793 -1.3558
   35MOL   C25413242   4.172   7.367   4.200 -0.1872  0.1413 -0.1782
   35MOL   O25513243   4.445   7.018   4.474  0.8389 -0.2950 -0.0863
   35MOL   H25613244   4.284   6.836   4.564 -1.8086  0.2779 -0.8111
   35MOL   H25713245   4.181   6.918   4.675  0.6110 -1.6078  2.8201
   35MOL   H25813246   4.359   7.106   4.641  2.1675 -1.9244  1.3909
   35MOL   H25913247   4.210   7.013   4.391  0.8011 -2.3208  2.5050
   35MOL   H26013248   4.118   7.088   4.508  0.8482  0.5387  2.4508
   35MOL   H26113249   4.224   7.302   4.461  2.5532  0.8185 -0.4663
   35MOL   H26213250   4.353   7.244   4.376 -0.2169 -0.5550 -1.0399
   35MOL   H26313251   4.193   7.144   4.207  2.7765 -0.4838  1.7429
   35MOL   H26413252   4.056   7.201   4.284 -0.0702 -0.5230 -1.1962
   35MOL   H26513253   4.276   7.390   4.176 -0.2142  0.0729 -0.3674
   35MOL   H26613254   4.137   7.454   4.254 -1.5739 -0.8020  0.4722
   35MOL   H26713255   4.107   7.378   4.114  1.0745 -1.3628 -1.3644
   35MOL   C26813256   4.567   7.019   4.547  0.5187  0.3689 -0.1001
   35MOL   C26913257   4.694   7.027   4.453  0.0312 -0.3674  0.0466
   35MOL   C27013258   4.698   7.168   4.386 -0.8361 -0.1747 -0.0147
   35MOL   C27113259   4.836   7.216   4.343 -0.3613  0.8294  0.0646
   35MOL   C27213260   4.818   7.341   4.250  0.1981 -0.3740 -0.5755
   35MOL   C27313261   4.950   7.410   4.253 -0.3037  0.0613  0.1165
   35MOL   O27413262   4.685   6.935   4.352  0.2122 -0.0754 -0.0302
   35MOL   H27513263   4.579   6.933   4.613  1.9951  0.3515 -0.3892
   35MOL   H27613264   4.579   7.102   4.616  0.4234 -0.1865  0.5887
   35MOL   H27713265   4.784   7.012   4.513  0.2613  1.0119  0.0745
   35MOL   H27813266   4.627   7.174   4.303  0.6085  0.4246 -1.2485
   35MOL   H27913267   4.658   7.245   4.451  0.7194 -1.1132  2.1153
   35MOL   H28013268   4.894   7.245   4.431 -0.0583  1.2771 -0.2815
   35MOL   H28113269   4.893   7.135   4.299 -0.4769  0.2688  0.9415
   35MOL   H28213270   4.780   7.314   4.152  1.4541 -0.0463 -1.1599
   35MOL   H28313271   4.739   7.403   4.293  1.0527  1.2216 -1.2646
   35MOL   H28413272   4.969   7.432   4.148  0.2950 -0.1743  0.1761
   35MOL   H28513273   4.945   7.506   4.304 -1.3656 -0.7269  1.5241
   35MOL   H28613274   5.025   7.358   4.311 -0.4243 -1.2141 -0.8366
   35MOL   C28713275   4.771   6.823   4.357  0.2447 -0.6972 -0.0418
   35MOL   C28813276   4.729   6.714   4.454  0.1463 -0.1944 -0.0656
   35MOL   C28913277   4.852   6.626   4.501 -0.1502  0.2843  0.1106
   35MOL   C29013278   4.819   6.497   4.575 -0.2876 -0.6371  0.2879
   35MOL   C29113279   4.940   6.408   4.596  0.5181 -0.2361  0.5994
   35MOL   C29213280   4.905   6.289   4.674  0.6660  0.5588 -0.2141
   35MOL   O29313281   4.621   6.642   4.396 -0.0545  0.3760  0.1149
   35MOL   H29413282   4.866   6.871   4.381 -0.9494  1.1610  1.0452
   35MOL   H29513283   4.786   6.775   4.260  0.7235 -2.2015  0.7698
   35MOL   H29613284   4.696   6.759   4.548  0.6696 -0.9316  0.4802
   35MOL   H29713285   4.896   6.602   4.404  0.1189  1.8776 -0.1679
   35MOL   H29813286   4.917   6.686   4.564  0.2047  1.9592 -1.8097
   35MOL   H29913287   4.762   6.497   4.668  0.2084  1.4056  0.6226
   35MOL   H30013288   4.747   6.442   4.514 -0.5691  0.0416  0.0097
   35MOL   H30113289   5.016   6.456   4.658  1.1336 -0.8448  0.3222
   35MOL   H30213290   4.988   6.382   4.502 -0.3880 -0.2637  0.1388
   35MOL   H30313291   4.997   6.249   4.717 -1.0680 -2.2155  1.0425
   35MOL   H30413292   4.824   6.299   4.745 -0.3920 -1.8173 -1.0292
   35MOL   H30513293   4.855   6.207   4.622  0.3355 -1.6500  3.3942
   35MOL   C30613294   4.492   6.657   4.448  0.3723 -0.0441  0.1637
   35MOL   C30713295   4.382   6.584   4.359  0.2937  0.4296 -0.1528
   35MOL   C30813296   4.241   6.631   4.387  0.7303  0.1598 -0.4628
   35MOL   C30913297   4.126   6.586   4.295  0.0894  0.4260  0.0037
   35MOL   C31013298   4.011   6.683   4.304  0.7003 -0.1102 -0.0361
   35MOL   C31113299   4.028   6.797   4.209 -0.1158  0.1436  0.0297
   35MOL   O31213300   4.400   6.446   4.400 -0.1778 -0.1684 -0.4347
   35MOL   H31313301   4.492   6.630   4.553 -1.3348 -0.0478  0.1630
   35MOL   H31413302   4.470   6.764   4.445 -0.2847 -0.2091 -1.7054
   35MOL   H31513303   4.406   6.599   4.254  1.3788 -0.7747 -0.0879
   35MOL   H31613304   4.245   6.740   4.391  1.4638  0.1383 -0.5902
   35MOL   H31713305   4.209   6.604   4.488  0.3098 -0.5360 -0.7759
   35MOL   H31813306   4.162   6.577   4.193 -0.3895 -0.3598 -0.0954
   35MOL   H31913307   4.096   6.490   4.336 -0.6030 -0.3605 -2.2846
   35MOL   H32013308   3.983   6.724   4.401  2.1395  0.8139  0.0095
   35MOL   H32113309   3.922   6.623   4.284  0.2651  0.2515  0.7976
   35MOL   H32213310   4.119   6.854   4.229 -0.3238 -0.1335  1.8092
   35MOL   H32313311   4.014   6.765   4.106  0.2271  1.5200 -0.4602
   35MOL   H32413312   3.964   6.885   4.222 -1.2226 -0.5411 -0.7561
   35MOL   C32513313   4.471   6.369   4.305  0.9978 -0.2750  0.0226
   35MOL   C32613314   4.465   6.218   4.337  0.5490  0.6886 -0.3704
   35MOL   C32713315   4.602   6.147   4.319 -0.0284  0.5776 -0.2692
   35MOL   C32813316   4.591   5.995   4.343  0.1167 -0.3050  0.1489
   35MOL   C32913317   4.732   5.925   4.341  0.3989 -0.4329  0.4439
   35MOL   C33013318   4.722   5.770   4.348  0.3348 -0.1040 -0.0936
   35MOL   O33113319   4.366   6.151   4.256 -0.1808  0.3478  0.3474
   35MOL   H33213320   4.574   6.404   4.316  1.4446 -0.9219 -1.8683
   35MOL   H33313321   4.444   6.390   4.202  0.7994 -0.7155 -0.0143
   35MOL   H33413322   4.433   6.213   4.441  1.5949 -2.3621 -0.1448
   35MOL   H33513323   4.624   6.152   4.213 -0.0207 -0.8710 -0.3534
   35MOL   H33613324   4.676   6.199   4.380  0.5105 -0.2986 -0.1662
   35MOL   H33713325   4.532   5.962   4.428 -2.3304 -0.6445 -1.6446
   35MOL   H33813326   4.532   5.956   4.260 -0.5010  3.4172 -1.2421
   35MOL   H33913327   4.767   5.954   4.241 -0.3347 -0.7658  0.0885
   35MOL   H34013328   4.798   5.979   4.410 -1.7498  1.3741  1.1413
   35MOL   H34113329   4.652   5.734   4.423  2.0673  0.5404  1.8940
   35MOL   H34213330   4.703   5.731   4.249  0.5980 -0.0515 -0.1669
   35MOL   H34313331   4.821   5.733   4.375  0.7136  0.9617  0.0457
   35MOL   C34413332   4.241   6.157   4.307  0.5004 -0.5592 -0.7769
   35MOL   C34513333   4.154   6.070   4.210 -0.0941 -0.3125  0.1576
   35MOL   C34613334   4.037   5.990   4.267 -0.1264  0.2706 -0.3224
   35MOL   C34713335   3.963   5.905   4.163  0.0178  0.1141  0.6500
   35MOL   C34813336   3.867   5.812   4.239  0.3231 -0.6433  0.1426
   35MOL   C34913337   3.767   5.733   4.151 -0.0611  1.0903 -0.3755
   35MOL   O35013338   4.096   6.154   4.105  0.0511  0.2174 -0.0567
   35MOL   H35113339   4.205   6.260   4.301 -0.1472 -0.5643  2.0964
   35MOL   H35213340   4.227   6.118   4.408  2.4516 -2.2390 -1.1316
   35MOL   H35313341   4.219   5.992   4.172  1.6690  0.7129  0.9889
   35MOL   H35413342   3.971   6.050   4.329  2.4434 -0.3047  3.0706
   35MOL   H35513343   4.082   5.929   4.345 -0.8966 -1.1354 -0.9586
   35MOL   H35613344   4.023   5.837   4.103  0.7453  0.1741  1.3145
   35MOL   H35713345   3.914   5.973   4.092 -1.3489 -0.0064  1.4653
   35MOL   H35813346   3.821   5.862   4.324  0.0386  0.0512 -0.4207
   35MOL   H35913347   3.935   5.743   4.289 -0.4119 -0.6115  1.2042
   35MOL   H36013348   3.715   5.795   4.078 -0.9510 -1.4868 -1.9959
   35MOL   H36113349   3.694   5.686   4.217 -0.6699  2.1120 -0.3220
   35MOL   H36213350   3.821   5.654   4.098  0.1583  0.8523  0.1984
   35MOL   C36313351   4.190   6.201   4.012  0.6829 -0.0510 -0.2728
   35MOL   C36413352   4.123   6.294   3.903  0.1184 -0.6972 -0.2158
   35MOL   C36513353   3.995   6.259   3.837  0.0282 -0.0171  0.3988
   35MOL   C36613354   3.958   6.347   3.717 -0.4075  0.5740  1.2228
   35MOL   C36713355   3.825   6.300   3.650 -0.1571 -0.4874 -0.1783
   35MOL   C36813356   3.777   6.385   3.527  0.9000 -0.1477 -0.4945
   35MOL   O36913357   4.109   6.426   3.962  0.2844 -0.1135 -0.5012
   35MOL   H37013358   4.231   6.112   3.966 -0.2232 -0.1835 -0.8262
   35MOL   H37113359   4.283   6.239   4.055  0.8491 -0.8910  0.1099
   35MOL   H37213360   4.199   6.319   3.829 -0.3885  3.0356  0.4471
   35MOL   H37313361   3.989   6.154   3.808  0.1910  0.5046 -1.5469
   35MOL   H37413362   3.921   6.264   3.917 -1.1512  0.2039 -0.6948
   35MOL   H37513363   3.936   6.447   3.754  0.7525  1.0827  0.5619
   35MOL   H37613364   4.044   6.367   3.654  0.0347  0.1583  1.6881
   35MOL   H37713365   3.840   6.197   3.616  1.7437  0.3242 -1.9181
   35MOL   H37813366   3.752   6.291   3.730 -0.6916 -0.3100 -0.6437
   35MOL   H37913367   3.854   6.382   3.451  0.8538  3.0578 -0.7153
   35MOL   H38013368   3.675   6.365   3.491  1.1377 -2.0488 -0.1877
   35MOL   H38113369   3.784   6.490   3.552 -0.2963  0.4219 -2.4404
   35MOL   H38213370   4.060   6.419   4.042  0.6034  0.6460 -0.2412
   36MOL     C113371   6.999   0.039   5.429  0.3884 -0.4415 -0.3298
   36MOL     C213372   7.021   0.115   5.289  0.4144  0.7218 -0.6613
   36MOL     C313373   6.965   0.040   5.165 -0.4365  0.4226 -0.1012
   36MOL     C413374   6.999   0.121   5.040 -0.2514  0.5541 -0.3706
   36MOL     C513375   6.960   0.035   4.920  0.2869 -0.4328 -0.6404
   36MOL     C613376   6.962   0.115   4.792  0.1325 -0.8053 -0.0239
   36MOL     O713377   6.966   0.243   5.287 -0.2909  0.1495 -0.3835
   36MOL     H813378   7.084   7.764   5.461  0.0134  0.5643  2.7516
   36MOL     H913379   6.908   7.765   5.437 -0.1698  0.3723 -0.4549
   36MOL    H1013380   7.127   0.135   5.273  1.5320 -2.0057  2.6252
   36MOL    H1113381   7.019   7.730   5.163  0.9586  1.1535  1.3880
   36MOL    H1213382   6.858   0.027   5.182 -0.4413 -2.2335 -1.8068
   36MOL    H1313383   6.945   0.215   5.034 -1.4315 -0.2638 -3.3827
   36MOL    H1413384   7.106   0.141   5.029  0.1659 -1.4509 -0.2426
   36MOL    H1513385   7.037   7.745   4.913 -0.2885 -1.4105  2.7303
   36MOL    H1613386   6.861   7.778   4.936 -0.5833  1.9095  0.5799
   36MOL    H1713387   7.044   0.186   4.790 -0.9678  0.4586 -1.5873
   36MOL    H1813388   6.994   0.050   4.710  4.5851  0.1166  0.8844
   36MOL    H1913389   6.873   0.164   4.753  0.6108  0.1023  0.0172
   36MOL    H2013390   6.992   0.115   5.507 -1.6084 -2.7389  1.8163
   36MOL    C2113391   7.039   0.335   5.369 -0.5604 -0.0735  0.3439
   36MOL    C2213392   6.980   0.476   5.355  0.4828  0.2698 -0.2186
   36MOL    C2313393   6.830   0.473   5.389 -0.0893  0.5161  0.0018
   36MOL    C2413394   6.766   0.612   5.379  0.5466 -0.1808  0.6762
   36MOL    C2513395   6.620   0.594   5.374 -0.7262 -0.0238 -0.2316
   36MOL    C2613396   6.537   0.727   5.354  0.6448  0.1075 -0.4902
   36MOL    O2713397   7.043   0.555   5.451 -0.4994 -0.0349  0.1035
   36MOL    H2813398   7.028   0.306   5.473  0.1312 -0.8632  0.1981
   36MOL    H2913399   7.144   0.339   5.343 -0.3833 -1.4012  0.8027
   36MOL    H3013400   7.000   0.503   5.251  1.2515  3.3688  0.7093
   36MOL    H3113401   6.804   0.434   5.487 -0.5304  0.7860 -0.0083
   36MOL    H3213402   6.780   0.418   5.309  0.5666  0.2773 -0.2450
   36MOL    H3313403   6.800   0.658   5.287 -2.2147  1.0710  0.2119
   36MOL    H3413404   6.804   0.677   5.459  1.3533 -0.8502  0.8459
   36MOL    H3513405   6.600   0.536   5.284 -0.0582 -1.9428  0.8336
   36MOL    H3613406   6.584   0.525   5.451  1.0708 -0.1904  0.4679
   36MOL    H3713407   6.529   0.787   5.444  0.2284  0.8193 -1.0014
   36MOL    H3813408   6.447   0.688   5.305 -1.1241  2.4676  0.7939
   36MOL    H3913409   6.582   0.783   5.272  0.3525 -2.1265 -2.2495
   36MOL    C4013410   7.134   0.651   5.393 -0.0960 -0.3556  0.0946
   36MOL    C4113411   7.216   0.707   5.507  0.1213  0.8577  0.5633
   36MOL    C4213412   7.222   0.856   5.510 -0.8603  0.6211 -0.2610
   36MOL    C4313413   7.274   0.931   5.393 -0.1117  0.2881 -0.2611
   36MOL    C4413414   7.248   1.082   5.420 -0.7800 -0.2316 -0.2162
   36MOL    C4513415   7.295   1.167   5.303 -0.6072  0.0981  0.0562
   36MOL    O4613416   7.345   0.650   5.497 -0.7683  0.4950 -0.0366
   36MOL    H4713417   7.086   0.738   5.349 -1.3062 -1.0779 -0.0298
   36MOL    H4813418   7.206   0.612   5.320  0.1261 -2.3030  1.3225
   36MOL    H4913419   7.165   0.668   5.595  1.9705 -0.7037  0.9968
   36MOL    H5013420   7.122   0.894   5.532 -1.5000 -0.0336 -1.9444
   36MOL    H5113421   7.282   0.899   5.590  2.1491 -2.2328 -0.8483
   36MOL    H5213422   7.225   0.900   5.301  0.4335  0.0141 -0.4639
   36MOL    H5313423   7.381   0.909   5.383 -0.2409 -2.0854  2.7538
   36MOL    H5413424   7.141   1.101   5.432 -1.0424 -0.6479 -1.8413
   36MOL    H5513425   7.300   1.109   5.512 -0.9353  2.1859 -0.8207
   36MOL    H5613426   7.314   1.271   5.331  0.7169  0.5011 -2.1967
   36MOL    H5713427   7.381   1.125   5.250 -0.7153 -0.0040 -0.0369
   36MOL    H5813428   7.217   1.165   5.227  0.7051  1.3554 -1.3537
   36MOL    C5913429   7.374   0.557   5.603 -0.1805  0.2679  0.1481
   36MOL    C6013430   7.509   0.486   5.576  0.5681  0.3838  0.0194
   36MOL    C6113431   7.562   0.417   5.700  0.4394 -0.2409 -0.2065
   36MOL    C6213432   7.609   0.519   5.807  0.5188  0.6265  1.1978
   36MOL    C6313433   7.638   0.459   5.942  0.0098 -0.4057 -0.0288
   36MOL    C6413434   7.683   0.561   6.043 -0.5308 -0.2085  0.1754
   36MOL    O6513435   7.476   0.385   5.476  0.3875  0.2068 -0.0016
   36MOL    H6613436   7.295   0.483   5.606  0.0631 -0.1542 -2.5080
   36MOL    H6713437   7.374   0.604   5.701 -2.0182 -1.6000  1.0665
   36MOL    H6813438   7.574   0.558   5.525 -1.4313  0.6700 -2.2537
   36MOL    H6913439   7.650   0.361   5.669 -0.5127 -1.9423  0.1249
   36MOL    H7013440   7.484   0.350   5.736  0.5778 -1.0707 -1.4453
   36MOL    H7113441   7.529   0.591   5.825 -1.4819 -1.7926  2.2692
   36MOL    H7213442   7.698   0.576   5.782  1.2251  1.0671  4.5181
   36MOL    H7313443   7.711   0.380   5.925 -1.0939 -1.6259  0.7866
   36MOL    H7413444   7.548   0.413   5.982 -0.7738  2.1196  1.2442
   36MOL    H7513445   7.604   0.635   6.056 -1.4184 -1.2407  0.6867
   36MOL    H7613446   7.697   0.513   6.140  1.0707 -1.1122 -0.4793
   36MOL    H7713447   7.771   0.608   5.999 -0.0407 -1.6207 -0.3997
   36MOL    C7813448   7.579   0.305   5.418 -0.6104  0.1403  0.5115
   36MOL    C7913449   7.542   0.273   5.271  0.2280 -0.2120  0.5338
   36MOL    C8013450   7.623   0.160   5.199  0.2487 -0.5232 -0.4178
   36MOL    C8113451   7.564   0.116   5.064 -0.2345  0.3987  0.0020
   36MOL    C8213452   7.460   0.012   5.077  0.2811  0.4070  1.0544
   36MOL    C8313453   7.382   7.767   4.949  0.8314  0.0415 -0.3666
   36MOL    O8413454   7.557   0.387   5.188 -0.2485  0.0888  0.0583
   36MOL    H8513455   7.607   0.220   5.480  0.1529  1.0026  1.3613
   36MOL    H8613456   7.675   0.355   5.429 -0.4666 -0.2952  1.3453
   36MOL    H8713457   7.438   0.242   5.273  0.2491 -0.3547 -0.2744
   36MOL    H8813458   7.723   0.200   5.188  0.2877 -0.5484 -0.1572
   36MOL    H8913459   7.634   0.076   5.268  1.5730  0.1976  0.2622
   36MOL    H9013460   7.644   0.091   4.994 -1.9277 -1.0873 -1.4512
   36MOL    H9113461   7.509   0.201   5.023  0.8746  1.8468  1.4301
   36MOL    H9213462   7.505   7.702   5.104 -1.6429 -0.4760  1.2278
   36MOL    H9313463   7.400   0.034   5.165 -0.8605 -0.3825  0.4882
   36MOL    H9413464   7.454   7.723   4.880  1.0972 -2.7396  1.6066
   36MOL    H9513465   7.349   0.075   4.905 -2.8186 -1.9976 -2.2362
   36MOL    H9613466   7.302   7.698   4.976 -0.3682  2.2448  1.8790
   36MOL    C9713467   7.475   0.500   5.213  0.4586 -0.2697  0.1533
   36MOL    C9813468   7.510   0.609   5.107 -0.4635 -0.9213 -0.5259
   36MOL    C9913469   7.395   0.710   5.097  0.1692 -0.4526  0.3102
   36MOL   C10013470   7.393   0.792   4.968  0.9099  0.7969  0.0996
   36MOL   C10113471   7.327   0.925   4.984 -0.0169 -0.3616 -0.3996
   36MOL   C10213472   7.172   0.921   4.968  0.3857  0.4065  0.7635
   36MOL   O10313473   7.619   0.684   5.151 -0.2051  0.1104 -0.8050
   36MOL   H10413474   7.498   0.545   5.309  0.3674  1.4692 -0.6230
   36MOL   H10513475   7.371   0.467   5.208  0.7889 -1.1731 -1.3335
   36MOL   H10613476   7.532   0.572   5.007  2.7842  2.1742 -1.0646
   36MOL   H10713477   7.390   0.764   5.191 -2.7527  1.6122 -0.9520
   36MOL   H10813478   7.301   0.656   5.091 -0.0624 -0.0740  0.5549
   36MOL   H10913479   7.362   0.741   4.877 -0.7425  2.3434 -0.2272
   36MOL   H11013480   7.497   0.815   4.943  0.6031  1.9834 -0.1285
   36MOL   H11113481   7.368   0.993   4.910  0.2146 -1.3537 -1.1923
   36MOL   H11213482   7.369   0.961   5.078 -0.2522  2.0696 -1.2102
   36MOL   H11313483   7.129   0.861   5.049 -1.3856  2.4584  1.3831
   36MOL   H11413484   7.140   1.024   4.978  2.1285  1.2341 -1.7055
   36MOL   H11513485   7.126   0.889   4.875  0.9237  0.1401  0.5858
   36MOL   C11613486   7.748   0.634   5.173 -0.3344 -0.3911  0.1502
   36MOL   C11713487   0.051   0.742   5.240  0.0867 -0.3896 -0.3410
   36MOL   C11813488   0.193   0.696   5.225 -0.3119  1.6321  0.4001
   36MOL   C11913489   0.301   0.794   5.287 -1.4699  0.3253 -0.0130
   36MOL   C12013490   0.444   0.757   5.242  0.0437  0.1906  0.1810
   36MOL   C12113491   0.562   0.832   5.309 -0.1629  0.2028 -0.4481
   36MOL   O12213492   0.034   0.741   5.380 -0.2796 -0.0838 -0.9971
   36MOL   H12313493   7.744   0.552   5.245  0.7146  0.4580  1.2004
   36MOL   H12413494   0.013   0.610   5.079  1.3942  2.1110  0.3691
   36MOL   H12513495   0.033   0.838   5.192  0.3116  0.0371  0.4064
   36MOL   H12613496   0.215   0.599   5.268  1.9252  1.3183 -1.3516
   36MOL   H12713497   0.212   0.686   5.118 -0.6767  0.8421  0.4105
   36MOL   H12813498   0.290   0.810   5.394 -1.9026  1.5777 -0.2313
   36MOL   H12913499   0.287   0.892   5.240  2.8317  1.6051  1.1689
   36MOL   H13013500   0.457   0.650   5.260  0.4184 -0.2615 -2.6495
   36MOL   H13113501   0.454   0.766   5.134 -2.3686 -4.9385 -0.5938
   36MOL   H13213502   0.540   0.846   5.415 -2.3196 -2.7446 -0.4426
   36MOL   H13313503   0.649   0.771   5.281  0.6879  0.7188  0.9641
   36MOL   H13413504   0.568   0.933   5.271  2.5507  0.9874  1.8661
   36MOL   C13513505   7.716   0.832   5.422 -0.2396 -0.4280 -0.5611
   36MOL   C13613506   7.707   0.847   5.579  0.0421  0.0166  0.0905
   36MOL   C13713507   7.581   0.910   5.632 -0.2306 -0.1809 -0.4098
   36MOL   C13813508   7.568   0.920   5.789 -0.4575  0.1666  0.9146
   36MOL   C13913509   7.418   0.923   5.832 -0.6984 -0.4131  0.5530
   36MOL   C14013510   7.406   0.931   5.986 -0.1148  0.4544 -0.2280
   36MOL   O14113511   0.022   0.934   5.614  0.2258  0.4396 -0.3030
   36MOL   H14213512   7.734   0.929   5.376  0.9932  0.1076  1.0157
   36MOL   H14313513   7.617   0.795   5.399 -1.1387  0.0371  2.3512
   36MOL   H14413514   7.719   0.745   5.614 -0.5475 -0.0823  0.0180
   36MOL   H14513515   7.570   1.010   5.589  1.7970  0.2573  0.0062
   36MOL   H14613516   7.509   0.838   5.592 -0.0142 -0.9069  0.5003
   36MOL   H14713517   7.625   1.002   5.832 -2.5142  2.6375 -0.9483
   36MOL   H14813518   7.604   0.822   5.821 -2.7816 -0.6274  1.1985
   36MOL   H14913519   7.362   0.836   5.798  0.4919 -1.0798  0.2608
   36MOL   H15013520   7.376   1.011   5.784 -1.9701 -2.3448 -2.0349
   36MOL   H15113521   7.470   1.010   6.026  0.9935 -0.9206  0.7562
   36MOL   H15213522   7.299   0.936   6.007 -0.3702 -2.1946 -0.7758
   36MOL   H15313523   7.439   0.844   6.043  1.6265  1.3802  0.2151
   36MOL   C15413524   0.119   0.897   5.710 -0.2459  0.0128 -0.2951
   36MOL   C15513525   0.245   0.986   5.718  1.1247 -0.4709 -0.4001
   36MOL   C15613526   0.216   1.127   5.775  0.6223 -0.1823  0.5100
   36MOL   C15713527   0.120   1.137   5.894  0.7107  0.1368  0.5027
   36MOL   C15813528   0.128   1.291   5.935 -0.5386 -0.6386 -0.1201
   36MOL   C15913529   0.047   1.322   6.067 -0.3490 -0.0967 -0.1832
   36MOL   O16013530   0.339   0.919   5.807  0.0788 -0.5504  0.1249
   36MOL   H16113531   0.155   0.797   5.686 -1.3053 -0.1857 -1.1344
   36MOL   H16213532   0.066   0.878   5.804 -1.3094 -1.2782 -1.1321
   36MOL   H16313533   0.292   0.996   5.620  0.8041  2.1932 -0.3194
   36MOL   H16413534   0.181   1.187   5.691  1.2062  0.7025  0.8911
   36MOL   H16513535   0.315   1.166   5.797 -0.0658  1.1227  1.4223
   36MOL   H16613536   0.150   1.078   5.980 -2.2347 -0.4494  1.1555
   36MOL   H16713537   0.017   1.115   5.866 -0.1996  1.2018  2.9084
   36MOL   H16813538   0.233   1.313   5.950 -0.3980 -0.6852 -1.0279
   36MOL   H16913539   0.098   1.354   5.851  2.8619 -2.1535 -2.5673
   36MOL   H17013540   0.070   1.424   6.098 -1.0337 -0.2724  0.9446
   36MOL   H17113541   0.079   1.257   6.149  1.1796  0.3271 -0.4289
   36MOL   H17213542   7.726   1.308   6.050 -0.6625  1.7363  0.2011
   36MOL   C17313543   0.416   0.812   5.754 -0.1399 -0.4948 -0.3653
   36MOL   C17413544   0.431   0.710   5.869  0.9747  0.5764 -0.5480
   36MOL   C17513545   0.324   0.600   5.867  0.2184  0.1150  0.0132
   36MOL   C17613546   0.338   0.510   5.743 -0.9861  0.6937  0.0493
   36MOL   C17713547   0.206   0.446   5.711  0.3752  0.4618  0.0507
   36MOL   C17813548   0.204   0.398   5.565 -0.2516 -0.4604 -0.8538
   36MOL   O17913549   0.553   0.643   5.865  0.1552 -0.3170  0.1558
   36MOL   H18013550   0.509   0.853   5.713 -0.8082  0.2891 -1.0992
   36MOL   H18113551   0.358   0.772   5.671  0.1115 -2.4158  0.3501
   36MOL   H18213552   0.416   0.765   5.961 -1.5742 -0.4437 -0.3178
   36MOL   H18313553   0.323   0.548   5.963 -0.4591 -1.1892 -0.6810
   36MOL   H18413554   0.233   0.660   5.863  1.0229  1.5746  2.6553
   36MOL   H18513555   0.375   0.568   5.658 -0.4375 -1.0055 -0.9027
   36MOL   H18613556   0.406   0.428   5.767 -2.1042 -0.3485 -0.2414
   36MOL   H18713557   0.171   0.362   5.771 -0.4867  0.8802  0.1407
   36MOL   H18813558   0.133   0.527   5.721  1.3791  1.4154 -0.1997
   36MOL   H18913559   0.229   0.484   5.502 -1.4951 -1.0216 -2.1344
   36MOL   H19013560   0.111   0.360   5.523 -0.8979  1.3132 -1.0569
   36MOL   H19113561   0.271   0.312   5.557 -1.0800 -1.2014  0.1622
   36MOL   C19213562   0.654   0.680   5.951 -0.0823 -0.0451  0.2257
   36MOL   C19313563   0.799   0.633   5.904  0.2788  0.6598  0.3657
   36MOL   C19413564   0.894   0.604   6.021  0.2257  0.4659 -0.9523
   36MOL   C19513565   1.020   0.533   5.987 -0.9368 -0.0596 -0.0823
   36MOL   C19613566   1.114   0.522   6.112 -0.3127  0.1318  0.7924
   36MOL   C19713567   1.205   0.397   6.112  0.2922 -0.8214 -0.2847
   36MOL   O19813568   0.845   0.742   5.831  0.5078  0.1120 -0.2722
   36MOL   H19913569   0.645   0.783   5.985  0.1057 -0.1031  0.4571
   36MOL   H20013570   0.636   0.625   6.043  0.0070  0.4651  0.5476
   36MOL   H20113571   0.789   0.552   5.832 -0.2336  0.6926  0.3959
   36MOL   H20213572   0.918   0.693   6.080 -0.8142  0.7703 -0.9894
   36MOL   H20313573   0.845   0.539   6.093  0.7735  1.3170  0.2124
   36MOL   H20413574   1.070   0.590   5.909 -0.8873 -1.3850 -1.0391
   36MOL   H20513575   1.000   0.431   5.954 -1.3673 -0.1915  0.5760
   36MOL   H20613576   1.164   0.619   6.116  0.0748  0.0243 -0.9483
   36MOL   H20713577   1.042   0.515   6.193  0.4389  0.4879  1.4985
   36MOL   H20813578   1.154   0.301   6.101 -2.4825  0.7398 -1.5689
   36MOL   H20913579   1.278   0.415   6.033  2.0923 -2.1811  1.0252
   36MOL   H21013580   1.267   0.396   6.202  0.3228  2.1348 -0.2306
   36MOL   C21113581   0.823   0.749   5.692  0.2778 -0.3828 -1.2519
   36MOL   C21213582   0.927   0.843   5.624  0.1347 -0.5429 -0.7229
   36MOL   C21313583   1.072   0.825   5.681  0.4091 -0.6491 -0.0967
   36MOL   C21413584   1.178   0.857   5.576  0.0692  0.2381 -0.4432
   36MOL   C21513585   1.326   0.895   5.638  0.2486  0.0980  0.4683
   36MOL   C21613586   1.426   0.910   5.523  0.2866  0.2642 -0.0046
   36MOL   O21713587   0.889   0.980   5.610  0.1619 -0.2497  0.0182
   36MOL   H21813588   0.716   0.768   5.684  0.1526  0.1417  1.2247
   36MOL   H21913589   0.842   0.652   5.646 -0.0708 -0.1618 -1.8617
   36MOL   H22013590   0.924   0.795   5.526 -0.2111  0.2010 -1.0849
   36MOL   H22113591   1.085   0.892   5.766  2.4747 -0.0216 -0.8789
   36MOL   H22213592   1.077   0.729   5.733  0.4845 -1.4345 -1.5294
   36MOL   H22313593   1.184   0.773   5.507 -0.3573  0.4823 -0.7743
   36MOL   H22413594   1.147   0.938   5.511 -0.8487 -0.5059 -0.9424
   36MOL   H22513595   1.325   0.984   5.700 -0.1966 -1.1381  2.2757
   36MOL   H22613596   1.366   0.820   5.706 -1.1473 -0.0220  1.1605
   36MOL   H22713597   1.394   0.996   5.464  0.4895 -0.4578 -1.1868
   36MOL   H22813598   1.430   0.820   5.462  1.2111 -0.4427  1.0855
   36MOL   H22913599   1.523   0.926   5.570 -0.5622 -0.4093  2.0157
   36MOL   C23013600   0.776   1.003   5.524  0.7976 -0.8623  0.3581
   36MOL   C23113601   0.735   1.157   5.527  0.1908  0.5650  0.0590
   36MOL   C23213602   0.591   1.175   5.482 -0.6591 -0.2515  0.4432
   36MOL   C23313603   0.553   1.329   5.463  0.2319  0.7046  0.1338
   36MOL   C23413604   0.400   1.354   5.456  0.0974 -0.6439  0.2944
   36MOL   C23513605   0.338   1.272   5.352 -0.1121 -0.0799  0.3320
   36MOL   O23613606   0.824   1.217   5.439  0.5239  0.0593 -0.1581
   36MOL   H23713607   0.793   0.975   5.420 -0.6060  1.3114 -0.4933
   36MOL   H23813608   0.691   0.951   5.569  2.2232 -2.3900  1.3541
   36MOL   H23913609   0.758   1.205   5.623 -0.5108  1.2445 -0.1137
   36MOL   H24013610   0.526   1.130   5.557 -0.7682  0.3529  0.7136
   36MOL   H24113611   0.580   1.120   5.389  2.3494  0.0816 -0.1526
   36MOL   H24213612   0.609   1.370   5.379  1.1482 -0.3321  0.2307
   36MOL   H24313613   0.591   1.385   5.549 -0.9235  0.2129  0.9773
   36MOL   H24413614   0.356   1.342   5.555 -0.1573 -0.1312  0.2479
   36MOL   H24513615   0.383   1.461   5.440 -2.2670 -1.2754 -1.6661
   36MOL   H24613616   0.229   1.266   5.352 -0.2191  1.5438  1.3748
   36MOL   H24713617   0.368   1.167   5.351  1.2855  0.2972  1.5574
   36MOL   H24813618   0.359   1.304   5.250 -1.4357 -3.0839 -0.9458
   36MOL   C24913619   0.957   1.249   5.491 -0.0473 -0.1921 -0.4938
   36MOL   C25013620   1.031   1.304   5.374 -0.2889  0.1243  0.4921
   36MOL   C25113621   1.130   1.199   5.310  0.4185  0.7219 -0.0474
   36MOL   C25213622   1.237   1.257   5.206  0.4727 -0.3371  0.3857
   36MOL   C25313623   1.174   1.321   5.080  0.0655  0.4911  0.6085
   36MOL   C25413624   1.283   1.347   4.972 -0.4002  0.3037 -0.5980
   36MOL   O25513625   1.117   1.415   5.407  0.2351 -0.2660 -0.0730
   36MOL   H25613626   0.973   1.338   5.552 -1.8692  0.3818 -0.8280
   36MOL   H25713627   1.012   1.169   5.541 -2.1959 -0.6478  1.2409
   36MOL   H25813628   0.967   1.329   5.290  0.5845  0.4484 -0.0904
   36MOL   H25913629   1.183   1.151   5.392 -0.6676 -2.3490 -1.0699
   36MOL   H26013630   1.063   1.127   5.263 -1.4222  2.3851 -0.0457
   36MOL   H26113631   1.313   1.318   5.254 -1.2260  1.2168  1.1492
   36MOL   H26213632   1.288   1.164   5.179  0.9045  0.2326 -0.7646
   36MOL   H26313633   1.097   1.256   5.039  0.0693 -0.0845  1.4827
   36MOL   H26413634   1.119   1.409   5.115  0.5377  0.5718  1.1629
   36MOL   H26513635   1.352   1.411   5.027  0.8329  0.4919 -2.3479
   36MOL   H26613636   1.240   1.402   4.888 -1.0613 -1.1506 -1.2140
   36MOL   H26713637   1.326   1.254   4.938 -0.5250 -0.6074  1.6382
   36MOL   C26813638   1.056   1.547   5.426 -0.2179 -0.1948 -0.6710
   36MOL   C26913639   1.153   1.670   5.406  0.5214 -0.0796 -0.2823
   36MOL   C27013640   1.250   1.648   5.284 -0.5057  0.0092 -0.0558
   36MOL   C27113641   1.347   1.764   5.253 -0.5099 -0.6590 -0.4585
   36MOL   C27213642   1.299   1.874   5.155 -0.1580 -0.4702  0.0915
   36MOL   C27313643   1.192   1.968   5.212  0.1513  0.0717 -0.4613
   36MOL   O27413644   1.225   1.682   5.525 -0.5116 -0.3096 -0.5830
   36MOL   H27513645   1.015   1.558   5.527 -1.0591 -1.1670 -0.9058
   36MOL   H27613646   0.970   1.555   5.360 -2.9278 -0.3697  2.7194
   36MOL   H27713647   1.086   1.755   5.390 -0.3152 -0.8893 -1.1374
   36MOL   H27813648   1.313   1.561   5.303 -0.9238 -0.3450 -0.2678
   36MOL   H27913649   1.188   1.606   5.205 -0.1287 -1.4957  0.4331
   36MOL   H28013650   1.384   1.810   5.345  0.8086 -1.4333 -0.5940
   36MOL   H28113651   1.433   1.720   5.201 -0.6144  0.3413 -1.5001
   36MOL   H28213652   1.381   1.941   5.130 -0.1112 -0.8852 -0.8930
   36MOL   H28313653   1.264   1.818   5.068  0.3842  0.1893 -0.5491
   36MOL   H28413654   1.095   1.919   5.220  0.2109 -0.4135 -2.3707
   36MOL   H28513655   1.213   2.021   5.304  0.9742  0.5189 -0.9055
   36MOL   H28613656   1.173   2.051   5.143  0.5317  1.2356  0.8157
   36MOL   C28713657   1.203   1.802   5.594 -0.0113  0.0135  0.1911
   36MOL   C28813658   1.273   1.826   5.737 -0.5784  0.4705 -0.8291
   36MOL   C28913659   1.203   1.947   5.813 -0.7121  0.0486 -0.1054
   36MOL   C29013660   1.068   1.920   5.871 -0.0815 -0.0598 -0.3991
   36MOL   C29113661   1.018   2.031   5.962 -0.2271 -0.4250 -0.1218
   36MOL   C29213662   0.894   1.972   6.035  0.2120 -0.4169  0.2385
   36MOL   O29313663   1.412   1.866   5.724  0.2566 -0.0421  0.3782
   36MOL   H29413664   1.096   1.819   5.605 -0.1315 -1.6510  1.7372
   36MOL   H29513665   1.246   1.872   5.522  2.9553 -1.6882  0.2393
   36MOL   H29613666   1.255   1.737   5.798 -0.0791 -1.1063 -2.9265
   36MOL   H29713667   1.269   1.974   5.896 -1.2645  1.9508 -0.2486
   36MOL   H29813668   1.185   2.030   5.745 -0.2435 -0.2027 -0.5417
   36MOL   H29913669   0.999   1.887   5.793 -0.5628  1.2011 -0.5057
   36MOL   H30013670   1.063   1.829   5.931  2.2994 -0.4516 -0.7600
   36MOL   H30113671   0.974   2.118   5.913  0.3134  0.8231  1.5367
   36MOL   H30213672   1.085   2.080   6.033  1.0422 -2.5145  0.1699
   36MOL   H30313673   0.928   1.890   6.098 -1.2937 -0.2404  1.2758
   36MOL   H30413674   0.846   2.041   6.103 -1.1617 -0.4172 -0.7089
   36MOL   H30513675   0.821   1.932   5.965  3.2103 -0.6957 -2.9108
   36MOL   C30613676   1.496   1.756   5.686 -0.3755  0.0078 -0.5489
   36MOL   C30713677   1.639   1.803   5.681  1.1662  0.0119 -0.5639
   36MOL   C30813678   1.730   1.723   5.595  0.1268  0.3099  0.8103
   36MOL   C30913679   1.712   1.740   5.446 -0.2362  0.3332  0.4661
   36MOL   C31013680   1.804   1.656   5.353  0.1345  0.0013 -0.2728
   36MOL   C31113681   1.817   1.718   5.212  0.5681 -0.3646 -0.5514
   36MOL   O31213682   1.696   1.783   5.815 -0.0764 -0.1730  0.5099
   36MOL   H31313683   1.482   1.674   5.756 -0.6337 -0.8916 -1.6341
   36MOL   H31413684   1.474   1.732   5.582  1.4728  0.9309 -1.1744
   36MOL   H31513685   1.645   1.911   5.664  1.4805 -0.6640 -5.4823
   36MOL   H31613686   1.722   1.616   5.614 -1.4474  0.3076  0.2209
   36MOL   H31713687   1.837   1.745   5.601  0.9693 -3.2171  0.0475
   36MOL   H31813688   1.606   1.722   5.430  0.3013 -2.7781 -0.0191
   36MOL   H31913689   1.723   1.846   5.424  2.2417 -0.3473 -1.8660
   36MOL   H32013690   1.764   1.554   5.350  0.9465 -0.3171 -0.2522
   36MOL   H32113691   1.898   1.647   5.408 -0.0690 -2.6520 -0.2814
   36MOL   H32213692   1.874   1.811   5.211 -1.5405  0.9517 -0.3054
   36MOL   H32313693   1.865   1.656   5.135 -2.4044 -0.2280 -2.6076
   36MOL   H32413694   1.715   1.740   5.181  0.2711 -1.4700 -0.3614
   36MOL   C32513695   1.662   1.878   5.917  0.3489 -0.5066  0.0721
   36MOL   C32613696   1.541   1.831   6.007 -0.2692 -0.3729  0.1914
   36MOL   C32713697   1.482   1.925   6.111 -0.2090 -0.0496 -0.7171
   36MOL   C32813698   1.372   1.861   6.192  0.8041  0.2028 -0.6450
   36MOL   C32913699   1.292   1.973   6.263  1.1380  0.1027 -0.2261
   36MOL   C33013700   1.360   2.017   6.390  0.4160  0.3186 -0.4895
   36MOL   O33113701   1.584   1.725   6.093 -0.5036  0.2449  0.6174
   36MOL   H33213702   1.652   1.978   5.873 -2.2059 -1.0635 -0.6894
   36MOL   H33313703   1.749   1.879   5.982  0.8739 -1.3008 -0.6184
   36MOL   H33413704   1.455   1.802   5.947 -1.0970  2.8222 -0.2154
   36MOL   H33513705   1.559   1.966   6.177  0.2949 -1.0362 -0.6880
   36MOL   H33613706   1.455   2.018   6.062  1.1113  1.0085  0.4989
   36MOL   H33713707   1.304   1.803   6.128 -0.2266 -0.5167  1.0581
   36MOL   H33813708   1.405   1.785   6.263 -0.9327 -0.7160 -0.7728
   36MOL   H33913709   1.259   2.054   6.197 -0.2808 -0.5880 -0.3713
   36MOL   H34013710   1.197   1.935   6.298  1.2858 -0.2571 -0.2190
   36MOL   H34113711   1.307   2.101   6.435 -0.0820  0.6223 -1.6371
   36MOL   H34213712   1.367   1.934   6.460  0.1817  0.7137  0.0058
   36MOL   H34313713   1.460   2.055   6.368  0.2399  0.4189 -1.0988
   36MOL   C34413714   1.586   1.589   6.039 -0.2824 -0.2910  0.4505
   36MOL   C34513715   1.608   1.473   6.140 -0.5191  0.6425 -0.0646
   36MOL   C34613716   1.519   1.354   6.098 -0.1591  0.0661 -0.1490
   36MOL   C34713717   1.362   1.386   6.096 -0.7466  0.5011 -0.3777
   36MOL   C34813718   1.308   1.460   6.218 -0.4525  0.1700 -0.0435
   36MOL   C34913719   1.165   1.524   6.199 -0.2592 -0.5551  0.0345
   36MOL   O35013720   1.737   1.428   6.141 -0.2124  0.4258 -0.3667
   36MOL   H35113721   1.671   1.583   5.972  0.5466 -2.1853  1.6459
   36MOL   H35213722   1.507   1.579   5.964  1.0414 -0.9713 -0.8835
   36MOL   H35313723   1.591   1.501   6.244 -0.3607  2.7421 -0.5793
   36MOL   H35413724   1.544   1.270   6.164 -0.9959  0.9392  1.3152
   36MOL   H35513725   1.541   1.314   5.999 -1.1130 -2.4088  0.5861
   36MOL   H35613726   1.304   1.294   6.092  0.6252 -0.4028  0.1528
   36MOL   H35713727   1.333   1.443   6.008 -1.0663  0.1566 -0.4986
   36MOL   H35813728   1.374   1.541   6.250  0.0593 -0.3000  0.0985
   36MOL   H35913729   1.296   1.387   6.297  0.2045 -0.8628 -0.8903
   36MOL   H36013730   1.177   1.611   6.135 -3.3040 -0.3173 -0.3036
   36MOL   H36113731   1.107   1.559   6.284 -0.3300  0.4996 -0.4396
   36MOL   H36213732   1.101   1.454   6.145  0.8200 -1.8334  0.3811
   36MOL   C36313733   1.840   1.510   6.190  0.4544 -0.3971  0.2696
   36MOL   C36413734   1.975   1.475   6.133  0.9842  0.6283 -0.1224
   36MOL   C36513735   1.999   1.547   5.998  0.0477  0.0215 -0.2108
   36MOL   C36613736   2.124   1.490   5.934  0.2223 -0.0554 -0.4671
   36MOL   C36713737   2.129   1.529   5.778 -0.1999 -0.0540 -0.3639
   36MOL   C36813738   2.262   1.515   5.715 -0.3430  0.3799  0.4997
   36MOL   O36913739   2.071   1.512   6.222  0.3697  0.3266  0.7594
   36MOL   H37013740   1.847   1.496   6.297  2.1349 -1.1180  0.0817
   36MOL   H37113741   1.814   1.613   6.167 -0.8701 -1.4939 -3.5060
   36MOL   H37213742   1.982   1.366   6.130 -1.3157  0.4675 -0.5117
   36MOL   H37313743   1.912   1.512   5.942 -0.1415  0.4799 -0.2113
   36MOL   H37413744   1.993   1.656   6.002 -0.2821 -0.0131  0.3351
   36MOL   H37513745   2.214   1.530   5.979 -0.4087  2.0685 -1.0238
   36MOL   H37613746   2.125   1.382   5.944 -1.0874  0.1580  2.4260
   36MOL   H37713747   2.059   1.464   5.726 -1.4845  2.1303 -1.4361
   36MOL   H37813748   2.096   1.632   5.762 -0.4296 -0.4844 -2.9473
   36MOL   H37913749   2.234   1.570   5.625 -0.4437  1.2086  1.0313
   36MOL   H38013750   2.347   1.564   5.762 -0.4315  0.8401  0.1853
   36MOL   H38113751   2.286   1.409   5.705  0.5125  0.7549 -1.9293
   36MOL   H38213752   2.154   1.476   6.193 -0.4172 -0.2331 -0.8137
   37MOL     C113753   2.917   3.335   6.570 -0.3543  0.0347 -0.3315
   37MOL     C213754   2.801   3.390   6.657 -0.0058 -0.5059  0.4255
   37MOL     C313755   2.662   3.362   6.607 -0.4366 -0.4002 -0.3209
   37MOL     C413756   2.635   3.409   6.462 -0.3362 -0.3275  0.1939
   37MOL     C513757   2.485   3.433   6.433 -0.5250  0.3200 -0.0150
   37MOL     C613758   2.403   3.300   6.440  0.4450 -0.2444  0.0469
   37MOL     O713759   2.816   3.398   6.801  0.3827 -0.0500 -0.0550
   37MOL     H813760   2.998   3.315   6.640  0.6661 -0.0076 -1.5090
   37MOL     H913761   2.970   3.410   6.511  0.5755 -3.0053 -3.5307
   37MOL    H1013762   2.808   3.496   6.631  0.8662 -0.2216  1.7722
   37MOL    H1113763   2.637   3.257   6.625  1.3188 -0.8934 -0.6389
   37MOL    H1213764   2.590   3.423   6.662  3.2358  3.3134  0.5953
   37MOL    H1313765   2.687   3.501   6.437 -4.6320  1.9689 -0.8951
   37MOL    H1413766   2.668   3.332   6.393 -3.0132 -0.4253 -1.0657
   37MOL    H1513767   2.442   3.507   6.500  0.0366  0.1279  0.5647
   37MOL    H1613768   2.476   3.464   6.329 -0.1109  0.3675 -0.0372
   37MOL    H1713769   2.367   3.274   6.540  0.3344 -0.4088 -0.0356
   37MOL    H1813770   2.311   3.325   6.386  0.7401 -0.0925 -0.3825
   37MOL    H1913771   2.456   3.215   6.399 -0.1300 -0.5143 -0.1342
   37MOL    H2013772   2.897   3.245   6.512  0.6336 -2.0296  2.4195
   37MOL    C2113773   2.867   3.280   6.872 -0.1708  0.7279 -0.0696
   37MOL    C2213774   2.878   3.313   7.022 -0.3464  0.1334  0.6321
   37MOL    C2313775   2.869   3.200   7.118  0.4206 -0.3560 -0.4988
   37MOL    C2413776   2.867   3.237   7.263 -0.6427 -0.4852 -0.1317
   37MOL    C2513777   2.880   3.118   7.359  0.8731 -0.2011 -0.1025
   37MOL    C2613778   2.859   3.146   7.510  0.1813 -0.3323 -0.0943
   37MOL    O2713779   3.003   3.383   7.050  0.5242 -0.0393 -0.2617
   37MOL    H2813780   2.800   3.195   6.859  1.2329 -0.5597  0.9469
   37MOL    H2913781   2.959   3.236   6.834  0.0397  0.0151  1.2366
   37MOL    H3013782   2.793   3.378   7.047 -0.5002  0.0045  0.4406
   37MOL    H3113783   2.950   3.128   7.105  1.4362  0.8259 -0.7885
   37MOL    H3213784   2.784   3.135   7.094  1.0891 -1.7906  0.9051
   37MOL    H3313785   2.777   3.295   7.285 -1.1919 -2.1249  2.0875
   37MOL    H3413786   2.946   3.309   7.284 -0.9411  0.1024 -0.9983
   37MOL    H3513787   2.815   3.041   7.318 -0.5614  1.8472 -1.7997
   37MOL    H3613788   2.982   3.083   7.339  0.8851 -0.2015 -0.0425
   37MOL    H3713789   2.759   3.188   7.516  0.4448  0.2310  0.3309
   37MOL    H3813790   2.934   3.210   7.557 -0.6479  0.1442  0.6045
   37MOL    H3913791   2.862   3.052   7.565  0.6059 -0.9315 -1.1246
   37MOL    C4013792   3.017   3.509   6.979  0.3637  0.4079 -0.2627
   37MOL    C4113793   3.148   3.570   7.032  0.7801  0.3988  0.0991
   37MOL    C4213794   3.160   3.724   7.012 -0.0412  0.3906 -0.1966
   37MOL    C4313795   3.298   3.782   7.056 -0.2322 -0.4307 -0.6225
   37MOL    C4413796   3.310   3.937   7.063  0.0179 -0.5079 -0.8232
   37MOL    C4513797   3.202   4.005   7.149 -0.4002 -0.4665  1.1842
   37MOL    O4613798   3.250   3.507   6.957 -0.4169  1.1557 -0.3248
   37MOL    H4713799   2.935   3.570   7.016  1.4412 -0.0885  3.0868
   37MOL    H4813800   3.014   3.501   6.870  2.0483 -0.5829 -0.2641
   37MOL    H4913801   3.157   3.540   7.136 -0.0496  2.7598  0.8940
   37MOL    H5013802   3.145   3.756   6.909  0.3190 -0.3364 -0.4762
   37MOL    H5113803   3.078   3.764   7.073  0.0573 -2.1303  1.6866
   37MOL    H5213804   3.365   3.746   6.977 -1.8543  0.3065 -2.3700
   37MOL    H5313805   3.334   3.739   7.150  1.1644  0.3176 -0.8101
   37MOL    H5413806   3.405   3.980   7.095 -0.9133  0.6035  0.4906
   37MOL    H5513807   3.286   3.973   6.963 -1.8370 -0.2825 -0.3163
   37MOL    H5613808   3.205   3.978   7.255  0.9340 -0.8484  1.0542
   37MOL    H5713809   3.204   4.114   7.145 -0.6387 -0.5005  0.1112
   37MOL    H5813810   3.103   3.996   7.106  0.4113 -1.0765 -0.5828
   37MOL    C5913811   3.279   3.371   6.984  1.0096 -1.1098  0.2624
   37MOL    C6013812   3.429   3.347   6.966  0.3085  0.3226 -0.2727
   37MOL    C6113813   3.474   3.209   7.009  0.2294  0.0817  0.5027
   37MOL    C6213814   3.626   3.196   7.037  0.0523 -0.0790  0.1803
   37MOL    C6313815   3.664   3.075   7.112 -0.0016 -0.1431  0.3070
   37MOL    C6413816   3.818   3.054   7.111  0.7942 -0.0131 -0.1894
   37MOL    O6513817   3.445   3.319   6.831  0.1008  0.1716 -0.0720
   37MOL    H6613818   3.224   3.295   6.929 -1.2289  0.1064  0.7650
   37MOL    H6713819   3.249   3.351   7.087 -1.2174  0.5663 -0.0318
   37MOL    H6813820   3.480   3.434   7.009  0.9001 -0.3069  0.3066
   37MOL    H6913821   3.440   3.126   6.948  0.7066  1.2958 -1.4496
   37MOL    H7013822   3.423   3.182   7.101  0.5749 -3.5248 -0.2752
   37MOL    H7113823   3.659   3.282   7.094 -0.3521  1.6248 -2.0757
   37MOL    H7213824   3.693   3.208   6.951 -1.3017 -0.5809 -0.9675
   37MOL    H7313825   3.616   2.990   7.063  0.7467 -1.5505  1.9856
   37MOL    H7413826   3.619   3.072   7.211 -0.6243  0.6426  0.0550
   37MOL    H7513827   3.868   3.142   7.150 -2.2275  1.3921  0.6916
   37MOL    H7613828   3.845   2.981   7.188  2.4802  0.8039  0.0205
   37MOL    H7713829   3.847   3.032   7.009  2.4759 -2.4643  0.7727
   37MOL    C7813830   3.441   3.433   6.739  0.6980  0.4922  1.1191
   37MOL    C7913831   3.336   3.418   6.626  0.6963 -0.1468  0.4036
   37MOL    C8013832   3.388   3.328   6.504 -0.5741  0.7375 -0.4229
   37MOL    C8113833   3.285   3.338   6.392  0.0768  0.0597 -0.1159
   37MOL    C8213834   3.308   3.232   6.281  0.1991 -0.0235 -1.0011
   37MOL    C8313835   3.240   3.269   6.145 -0.5053 -0.2329 -0.4542
   37MOL    O8413836   3.319   3.544   6.563  0.1172  0.1892  1.0246
   37MOL    H8513837   3.534   3.442   6.682 -0.0398 -3.0995 -0.8289
   37MOL    H8613838   3.426   3.532   6.781  2.0294  0.8007  0.8975
   37MOL    H8713839   3.245   3.380   6.673  1.6791 -1.7799  1.0267
   37MOL    H8813840   3.487   3.351   6.464 -0.8601  0.0669 -1.5520
   37MOL    H8913841   3.398   3.226   6.540 -0.6253  1.1580  0.8010
   37MOL    H9013842   3.271   3.440   6.357  0.4213  0.3723  0.6339
   37MOL    H9113843   3.186   3.317   6.433  0.8083  0.3237  1.8544
   37MOL    H9213844   3.414   3.211   6.265  0.6590  1.1449  0.3846
   37MOL    H9313845   3.259   3.138   6.303 -0.4516  0.8483  1.4577
   37MOL    H9413846   3.289   3.352   6.094  2.1936 -0.5971  1.4188
   37MOL    H9513847   3.134   3.288   6.159  0.1575  1.5049  2.7690
   37MOL    H9613848   3.245   3.184   6.077 -0.5231  0.5111 -1.3957
   37MOL    C9713849   3.213   3.626   6.621 -0.8351  0.4551 -0.1970
   37MOL    C9813850   3.194   3.762   6.539 -0.3274  0.5279 -0.1524
   37MOL    C9913851   3.054   3.821   6.544 -0.3197  0.5306  0.7731
   37MOL   C10013852   3.031   3.930   6.439  0.7395  0.0937 -0.2618
   37MOL   C10113853   2.903   4.013   6.457 -0.4884 -0.0635 -0.1770
   37MOL   C10213854   2.882   4.119   6.353  0.2134  0.0865  0.3228
   37MOL   O10313855   3.295   3.854   6.584 -0.3478 -0.4560  0.1685
   37MOL   H10413856   3.219   3.638   6.729 -2.4065 -1.6057  0.1405
   37MOL   H10513857   3.121   3.574   6.593 -0.6056 -0.0985  0.0907
   37MOL   H10613858   3.215   3.743   6.433 -0.4838 -1.8728  0.2129
   37MOL   H10713859   3.047   3.868   6.643 -0.4625  0.5328  0.7626
   37MOL   H10813860   2.985   3.738   6.538 -1.3891  1.2034  3.1432
   37MOL   H10913861   3.017   3.883   6.342 -1.4151 -0.1413  0.1608
   37MOL   H11013862   3.119   3.996   6.432  1.1622 -0.5863 -1.4845
   37MOL   H11113863   2.904   4.062   6.554 -1.1028  0.2618 -0.3334
   37MOL   H11213864   2.812   3.952   6.450 -0.9797  0.3899  1.9294
   37MOL   H11313865   2.974   4.172   6.330 -0.2447  1.8704  2.4801
   37MOL   H11413866   2.838   4.075   6.263  3.7882  1.7348 -2.3256
   37MOL   H11513867   2.806   4.194   6.375  1.3783  1.3787 -0.0185
   37MOL   C11613868   3.420   3.847   6.518 -0.7580  0.4028 -0.3682
   37MOL   C11713869   3.531   3.921   6.593  0.0859 -0.4257 -0.1047
   37MOL   C11813870   3.561   3.872   6.737  0.6987  0.4517 -0.0843
   37MOL   C11913871   3.663   3.952   6.827  0.5938 -0.2709  0.4244
   37MOL   C12013872   3.719   3.869   6.945 -0.5764  0.3151  0.2739
   37MOL   C12113873   3.814   3.950   7.030 -0.6929  0.1528 -0.5551
   37MOL   O12213874   3.492   4.059   6.612 -0.2088 -0.1242  0.2099
   37MOL   H12313875   3.448   3.742   6.515 -1.7943 -0.0085  2.3588
   37MOL   H12413876   3.407   3.889   6.418  0.6946  2.8382  0.4305
   37MOL   H12513877   3.625   3.909   6.539  1.2079  2.3786  1.1339
   37MOL   H12613878   3.465   3.862   6.786  1.3290 -0.5571  0.9552
   37MOL   H12713879   3.581   3.766   6.722  0.6655  0.3669  0.4786
   37MOL   H12813880   3.620   4.046   6.863 -0.3811 -0.2528 -0.7557
   37MOL   H12913881   3.747   3.989   6.770  0.0936 -2.2314 -1.6464
   37MOL   H13013882   3.642   3.842   7.017  1.3637 -2.9308  1.2426
   37MOL   H13113883   3.760   3.773   6.914  0.0672 -0.3175  2.9755
   37MOL   H13213884   3.877   3.883   7.089  0.0191 -0.2060 -1.7179
   37MOL   H13313885   3.895   3.996   6.974 -0.1902 -0.6999 -0.5375
   37MOL   H13413886   3.773   4.019   7.104 -0.4519  0.8830 -1.1097
   37MOL   C13513887   3.489   4.138   6.495  0.1013 -0.1172 -0.0640
   37MOL   C13613888   3.490   4.287   6.531 -0.0242  0.3393  0.0648
   37MOL   C13713889   3.451   4.381   6.415  0.7552  0.3379  0.0808
   37MOL   C13813890   3.313   4.344   6.358  0.2329  0.9526  0.4502
   37MOL   C13913891   3.262   4.447   6.255  0.0090  0.3587 -0.3054
   37MOL   C14013892   3.198   4.572   6.316 -0.7698  0.2493  0.2708
   37MOL   O14113893   3.620   4.335   6.567 -0.6755 -0.0058 -0.2580
   37MOL   H14213894   3.569   4.134   6.421  1.4419  0.1216  1.3553
   37MOL   H14313895   3.397   4.107   6.446 -1.5964  2.3461  1.4787
   37MOL   H14413896   3.420   4.298   6.613 -1.7439 -0.6184 -1.2532
   37MOL   H14513897   3.442   4.480   6.462 -0.5408  0.4581 -0.4030
   37MOL   H14613898   3.523   4.380   6.334  0.1867 -0.5305 -0.4218
   37MOL   H14713899   3.242   4.342   6.441 -0.9045  0.7656 -0.5070
   37MOL   H14813900   3.316   4.244   6.315 -1.0627  0.3480  1.7410
   37MOL   H14913901   3.194   4.394   6.188 -0.1682  0.9146 -0.5688
   37MOL   H15013902   3.341   4.467   6.182  1.0644  2.3837  1.3526
   37MOL   H15113903   3.099   4.553   6.360  0.1739 -2.2649  1.4374
   37MOL   H15213904   3.261   4.608   6.397  0.0542 -0.9967  0.1978
   37MOL   H15313905   3.190   4.649   6.240  2.5450  0.2087 -0.1854
   37MOL   C15413906   3.661   4.310   6.704 -0.2191  0.7360 -0.6684
   37MOL   C15513907   3.807   4.337   6.732  0.1288 -0.2503 -0.7190
   37MOL   C15613908   3.841   4.393   6.871  0.9477  0.2652 -0.3967
   37MOL   C15713909   3.965   4.475   6.888  0.3350  0.1481  0.4992
   37MOL   C15813910   3.977   4.524   7.034  0.2201  0.2811 -0.2667
   37MOL   C15913911   4.087   4.619   7.051  0.0898  0.2286 -0.3663
   37MOL   O16013912   3.893   4.232   6.702 -0.7545  0.3551  0.3299
   37MOL   H16113913   3.637   4.207   6.731  0.0235  0.7637 -0.3488
   37MOL   H16213914   3.593   4.357   6.776 -0.7057  1.1750 -1.4056
   37MOL   H16313915   3.824   4.418   6.660 -1.6986  0.4811 -0.3440
   37MOL   H16413916   3.853   4.311   6.942 -0.7595 -0.5467 -1.0242
   37MOL   H16513917   3.762   4.459   6.906  0.3789 -1.3355  1.4455
   37MOL   H16613918   3.952   4.574   6.845  3.6528  0.7654  0.7236
   37MOL   H16713919   4.057   4.433   6.846  0.5414 -0.8501  1.9240
   37MOL   H16813920   3.886   4.573   7.068 -1.3966 -4.1781  2.3978
   37MOL   H16913921   3.998   4.443   7.104  1.4685  1.0843  0.2912
   37MOL   H17013922   4.081   4.708   6.989 -1.7510  1.2741  1.2524
   37MOL   H17113923   4.180   4.564   7.034 -0.0896 -0.1879 -0.0186
   37MOL   H17213924   4.090   4.650   7.156 -0.0321 -3.0939  0.6814
   37MOL   C17313925   3.893   4.198   6.562 -0.1724 -0.4023 -0.5243
   37MOL   C17413926   4.016   4.114   6.512  0.5748 -0.4134  0.3376
   37MOL   C17513927   3.999   4.020   6.389  0.2584 -0.1027 -0.1135
   37MOL   C17613928   3.980   4.106   6.265  0.8811 -0.5892  0.1569
   37MOL   C17713929   3.960   4.031   6.132 -0.3064 -0.4240  0.1006
   37MOL   C17813930   3.822   3.963   6.093  0.8045 -0.4487  0.3043
   37MOL   O17913931   4.111   4.206   6.471 -0.7552  0.0118 -0.1177
   37MOL   H18013932   3.884   4.286   6.498 -0.9878 -0.0070  0.1380
   37MOL   H18113933   3.805   4.137   6.548 -2.0378  1.8921  0.8999
   37MOL   H18213934   4.058   4.054   6.593  0.4036  0.6796  1.2560
   37MOL   H18313935   4.093   3.967   6.380  0.7676  0.9351 -1.0777
   37MOL   H18413936   3.915   3.951   6.396  1.5743 -1.6441  0.5656
   37MOL   H18513937   3.901   4.180   6.280  1.5302  0.1700 -0.1769
   37MOL   H18613938   4.075   4.154   6.243  0.4371 -0.3189 -1.2377
   37MOL   H18713939   3.986   4.100   6.053 -1.7442  0.0835  0.0432
   37MOL   H18813940   4.039   3.957   6.124  0.7546  0.6536  0.5218
   37MOL   H18913941   3.761   4.045   6.056  1.3643 -0.4794 -0.7010
   37MOL   H19013942   3.759   3.915   6.167  0.3829 -1.9107 -0.9748
   37MOL   H19113943   3.830   3.899   6.005 -0.6288  0.2370 -0.3464
   37MOL   C19213944   4.234   4.204   6.539 -0.2875  0.8492 -0.1830
   37MOL   C19313945   4.338   4.304   6.486 -0.6828 -0.1485  0.0606
   37MOL   C19413946   4.270   4.437   6.465  0.2188 -0.2636 -0.4372
   37MOL   C19513947   4.201   4.495   6.593  0.7188 -0.5710  0.1463
   37MOL   C19613948   4.138   4.629   6.559 -0.2152  0.1203  0.8086
   37MOL   C19713949   4.018   4.627   6.455  0.0077  0.1052 -0.0205
   37MOL   O19813950   4.380   4.263   6.363  0.1617 -0.1852  0.2363
   37MOL   H19913951   4.214   4.228   6.644  0.3558 -2.2963  0.7031
   37MOL   H20013952   4.275   4.103   6.545 -0.5215  0.6694 -1.4894
   37MOL   H20113953   4.416   4.307   6.562 -0.0566 -1.7994 -0.4768
   37MOL   H20213954   4.344   4.511   6.435  1.3439 -1.7703 -1.4696
   37MOL   H20313955   4.204   4.433   6.378 -2.7815  3.0220  1.5701
   37MOL   H20413956   4.258   4.498   6.686  1.4528  3.4058 -0.3500
   37MOL   H20513957   4.109   4.438   6.609  1.2659 -2.0326 -1.7566
   37MOL   H20613958   4.107   4.682   6.649  0.7560  1.5361  0.3295
   37MOL   H20713959   4.210   4.704   6.525 -0.7410  1.5258  2.6995
   37MOL   H20813960   3.936   4.575   6.503 -0.5535  0.7305 -0.2911
   37MOL   H20913961   3.976   4.723   6.425  0.4443  0.2799 -0.0899
   37MOL   H21013962   4.043   4.569   6.366 -3.0189  0.9832 -1.4949
   37MOL   C21113963   4.461   4.151   6.342 -0.1806  0.2081  0.2479
   37MOL   C21213964   4.512   4.158   6.198 -0.1573 -0.6329 -0.1417
   37MOL   C21313965   4.397   4.130   6.106 -0.5732 -0.1963  0.2961
   37MOL   C21413966   4.433   4.140   5.956 -0.1092  0.2139  0.4781
   37MOL   C21513967   4.329   4.066   5.872 -0.4360  0.2406  0.4621
   37MOL   C21613968   4.303   4.134   5.735 -0.6349  0.1288 -0.3324
   37MOL   O21713969   4.597   4.044   6.186  0.1915  0.3420 -0.4139
   37MOL   H21813970   4.397   4.066   6.368 -0.3487  0.1613 -0.3182
   37MOL   H21913971   4.542   4.170   6.413  0.7307  3.2440 -1.5182
   37MOL   H22013972   4.558   4.253   6.170 -1.2074 -0.0312  0.1416
   37MOL   H22113973   4.361   4.029   6.124  0.0583 -0.1837  1.7336
   37MOL   H22213974   4.317   4.203   6.116 -0.0307  0.7251 -1.8055
   37MOL   H22313975   4.439   4.248   5.942  1.5753  0.3785  2.1613
   37MOL   H22413976   4.533   4.098   5.941  0.5539  1.1971  1.9331
   37MOL   H22513977   4.351   3.959   5.862 -1.8451  0.0025 -0.1655
   37MOL   H22613978   4.231   4.065   5.919 -0.9230 -0.9112 -0.5475
   37MOL   H22713979   4.386   4.138   5.665 -1.8729  0.4092 -1.8212
   37MOL   H22813980   4.263   4.235   5.745 -0.7520  0.2585 -2.0227
   37MOL   H22913981   4.231   4.070   5.684 -0.2861 -0.9712  0.5511
   37MOL   C23013982   4.735   4.053   6.236 -0.2726 -0.1472 -0.2209
   37MOL   C23113983   4.808   3.937   6.176  0.1818 -0.2260  0.1484
   37MOL   C23213984   4.775   3.930   6.024  0.1584 -0.3852  1.0763
   37MOL   C23313985   4.854   3.823   5.963 -0.3045  0.3554  0.6538
   37MOL   C23413986   4.841   3.826   5.818 -0.1314  0.4695  0.1556
   37MOL   C23513987   4.725   3.738   5.763  0.2623 -0.2594 -0.5188
   37MOL   O23613988   4.770   3.817   6.251 -0.0917 -0.0113  0.4644
   37MOL   H23713989   4.769   4.154   6.215  0.6370 -0.2515  0.6615
   37MOL   H23813990   4.739   4.047   6.345 -1.5363 -1.6290 -0.2391
   37MOL   H23913991   4.916   3.953   6.187  0.2765 -0.7988  0.0459
   37MOL   H24013992   4.807   4.024   5.979 -0.8627 -0.6471 -0.2087
   37MOL   H24113993   4.670   3.917   6.001  0.1544  1.9821 -0.3414
   37MOL   H24213994   4.822   3.727   6.004 -0.4261  0.4718  0.8316
   37MOL   H24313995   4.957   3.832   5.997  0.4311 -3.2256 -0.3996
   37MOL   H24413996   4.821   3.929   5.789  0.9389  0.7640  0.4556
   37MOL   H24513997   4.933   3.794   5.770 -0.3063  2.8881 -1.9177
   37MOL   H24613998   4.639   3.768   5.822  2.8474  1.6696  2.4905
   37MOL   H24713999   4.755   3.634   5.772  2.3842  0.2731 -1.1198
   37MOL   H24814000   4.725   3.761   5.656  0.2871 -0.7130 -0.6154
   37MOL   C24914001   4.854   3.792   6.361  0.5721  0.8520  0.0003
   37MOL   C25014002   4.809   3.684   6.464 -1.2316 -0.4599  0.0574
   37MOL   C25114003   4.759   3.549   6.403  0.5708  0.0296 -0.4077
   37MOL   C25214004   4.737   3.427   6.500  0.8481  0.7372 -0.6640
   37MOL   C25314005   4.690   3.292   6.432  0.1134  0.4801 -0.3235
   37MOL   C25414006   4.642   3.185   6.532  0.5791 -0.2117 -0.4840
   37MOL   O25514007   4.723   3.740   6.566  0.1989  0.2250 -0.6785
   37MOL   H25614008   4.940   3.759   6.305 -1.2945 -0.9620 -1.8914
   37MOL   H25714009   4.879   3.883   6.416 -0.6892  0.5904  1.0447
   37MOL   H25814010   4.898   3.666   6.525 -0.7165 -1.1199 -0.8649
   37MOL   H25914011   4.674   3.575   6.341  0.9856  2.1348 -0.1155
   37MOL   H26014012   4.842   3.519   6.338  0.7804  1.9484 -1.0512
   37MOL   H26114013   4.829   3.402   6.554  1.1900  0.3207 -1.4400
   37MOL   H26214014   4.669   3.451   6.582  1.7500 -0.1560  0.3742
   37MOL   H26314015   4.606   3.299   6.364 -0.9149 -0.6696  0.8154
   37MOL   H26414016   4.773   3.258   6.370  0.0909  2.8050 -1.6996
   37MOL   H26514017   4.721   3.140   6.592 -0.5320  0.0242  1.1829
   37MOL   H26614018   4.579   3.110   6.485 -0.9679  1.0572 -0.5017
   37MOL   H26714019   4.582   3.238   6.606  1.1876 -0.9726  0.5577
   37MOL   C26814020   4.596   3.791   6.526  0.4948 -0.1346  0.1045
   37MOL   C26914021   4.502   3.809   6.642  0.0132  1.6018  0.1278
   37MOL   C27014022   4.358   3.804   6.594  0.6136  0.0069  0.5130
   37MOL   C27114023   4.246   3.801   6.699 -0.1852 -0.1240  0.2300
   37MOL   C27214024   4.105   3.761   6.646 -0.4561 -0.0837 -0.0830
   37MOL   C27314025   3.995   3.789   6.746 -0.7656  0.5512 -0.3295
   37MOL   O27414026   4.528   3.939   6.699  0.4664  1.0441 -1.0621
   37MOL   H27514027   4.552   3.725   6.451  0.3832 -0.4925  0.4773
   37MOL   H27614028   4.609   3.889   6.480 -2.2361 -0.0282 -0.5636
   37MOL   H27714029   4.520   3.745   6.728 -1.1463  1.5730  0.3633
   37MOL   H27814030   4.340   3.883   6.521  0.4675 -1.0601 -0.6173
   37MOL   H27914031   4.345   3.714   6.534  0.1459  0.3356  0.1202
   37MOL   H28014032   4.280   3.738   6.781 -2.4438 -0.9193  0.5710
   37MOL   H28114033   4.247   3.900   6.746  1.6810  0.1779 -0.3869
   37MOL   H28214034   4.089   3.831   6.563 -0.9299  1.0867  0.9714
   37MOL   H28314035   4.098   3.656   6.616 -2.0009 -0.6809  2.2700
   37MOL   H28414036   3.989   3.897   6.764 -0.9136  0.1415  2.2855
   37MOL   H28514037   3.905   3.753   6.698 -1.3241  1.5951 -0.0777
   37MOL   H28614038   3.999   3.739   6.842  0.8131  0.4593 -0.4260
   37MOL   C28714039   4.644   3.942   6.784 -0.4556  0.5044  0.2242
   37MOL   C28814040   4.672   4.093   6.830  0.1154 -0.0299  0.5164
   37MOL   C28914041   4.563   4.160   6.918 -0.1788  0.4535  0.2243
   37MOL   C29014042   4.609   4.289   6.997 -0.2829  0.5448 -0.3760
   37MOL   C29114043   4.490   4.348   7.071  0.0167  0.0763 -0.2424
   37MOL   C29214044   4.539   4.477   7.158 -0.7374  0.2091 -0.0057
   37MOL   O29314045   4.696   4.187   6.726  0.0196 -0.5330 -0.0965
   37MOL   H29414046   4.737   3.910   6.737 -2.3700 -1.1507 -2.5893
   37MOL   H29514047   4.628   3.882   6.873 -2.0282  2.2505  1.1469
   37MOL   H29614048   4.761   4.085   6.892  0.4126 -0.4540  0.0361
   37MOL   H29714049   4.480   4.194   6.855  0.7166  1.2945 -0.5136
   37MOL   H29814050   4.512   4.097   6.990  0.5349  0.3227  0.6196
   37MOL   H29914051   4.692   4.262   7.061  0.3864  0.9106 -1.0781
   37MOL   H30014052   4.660   4.360   6.932 -0.4467  0.9581 -0.0549
   37MOL   H30114053   4.456   4.269   7.138  0.0669 -0.4044 -0.7766
   37MOL   H30214054   4.404   4.364   7.007 -0.9151 -1.4400  0.6219
   37MOL   H30314055   4.626   4.455   7.221 -1.5155 -1.1724  0.6183
   37MOL   H30414056   4.566   4.556   7.089  0.3264 -1.2160 -1.2696
   37MOL   H30514057   4.458   4.517   7.219 -1.3314 -0.8115 -0.1005
   37MOL   C30614058   4.824   4.187   6.657 -0.3381  0.1074  0.8942
   37MOL   C30714059   4.827   4.281   6.533 -0.0184  0.4417 -0.2891
   37MOL   C30814060   4.970   4.275   6.464 -0.6513 -0.0092 -0.1908
   37MOL   C30914061   4.977   4.376   6.354  0.5491 -0.0713  0.6297
   37MOL   C31014062   5.096   4.352   6.262  0.6457  0.0920 -0.0829
   37MOL   C31114063   5.093   4.445   6.141 -0.4637  0.0551  0.5941
   37MOL   O31214064   4.797   4.418   6.560 -0.5631 -0.3868 -0.8325
   37MOL   H31314065   4.911   4.203   6.720  0.1198 -0.7098  0.4733
   37MOL   H31414066   4.848   4.086   6.622 -1.1029  0.4831 -0.7808
   37MOL   H31514067   4.758   4.250   6.456  1.6719 -2.3889 -0.7373
   37MOL   H31614068   4.997   4.178   6.421 -0.2856  0.6521 -1.4736
   37MOL   H31714069   5.039   4.301   6.544 -2.1899  0.5259  0.9855
   37MOL   H31814070   4.882   4.373   6.300 -1.5347  3.5934  3.8097
   37MOL   H31914071   4.989   4.471   6.406  0.8800 -0.3713  1.1064
   37MOL   H32014072   5.088   4.254   6.216 -2.9319  0.4727 -0.4218
   37MOL   H32114073   5.190   4.359   6.317  0.9037  0.2196 -0.5449
   37MOL   H32214074   5.186   4.445   6.084 -0.5300  2.4398  0.4452
   37MOL   H32314075   5.027   4.406   6.063  1.0630 -0.3012 -0.5668
   37MOL   H32414076   5.066   4.546   6.170 -1.4631  0.2691 -1.0239
   37MOL   C32514077   4.659   4.451   6.558 -0.4387  0.0291  0.1653
   37MOL   C32614078   4.646   4.607   6.524  0.2414  0.0899  0.1674
   37MOL   C32714079   4.570   4.679   6.634 -0.3222 -0.0041 -0.1065
   37MOL   C32814080   4.564   4.829   6.645 -0.0603 -0.3174  0.6028
   37MOL   C32914081   4.514   4.876   6.781  0.4356 -0.3892  0.7680
   37MOL   C33014082   4.358   4.865   6.796  0.5190 -1.1001  0.0320
   37MOL   O33114083   4.587   4.633   6.398 -0.2712 -0.6972  0.3032
   37MOL   H33214084   4.610   4.425   6.652 -1.6102  1.5278 -0.0104
   37MOL   H33314085   4.603   4.399   6.481 -0.5687 -1.7786  1.4492
   37MOL   H33414086   4.747   4.647   6.528  0.5792 -0.7914  0.6210
   37MOL   H33514087   4.470   4.638   6.650  0.3649 -1.4266  0.6493
   37MOL   H33614088   4.614   4.633   6.722 -0.9589  0.2077  0.3218
   37MOL   H33714089   4.667   4.864   6.635 -0.2318 -0.2110 -0.9208
   37MOL   H33814090   4.499   4.861   6.564 -0.8938 -0.7524  1.0887
   37MOL   H33914091   4.561   4.818   6.861  0.5005  0.4559  1.3450
   37MOL   H34014092   4.520   4.984   6.783 -1.0351 -0.2482 -0.8448
   37MOL   H34114093   4.332   4.829   6.896  0.0730  0.2868  0.4286
   37MOL   H34214094   4.300   4.953   6.770  1.6331 -0.9035 -1.8407
   37MOL   H34314095   4.321   4.791   6.726  0.0653  1.5799 -2.6529
   37MOL   C34414096   4.648   4.571   6.284  0.7245  0.3670  0.1929
   37MOL   C34514097   4.581   4.609   6.155  0.0783  0.0621 -0.1827
   37MOL   C34614098   4.673   4.590   6.037 -0.0729 -0.4258 -0.6331
   37MOL   C34714099   4.725   4.448   6.008 -0.4966  1.1614  0.0320
   37MOL   C34814100   4.829   4.437   5.894  0.4566  0.0034  0.2320
   37MOL   C34914101   4.871   4.289   5.876  0.1915  0.2571 -0.0555
   37MOL   O35014102   4.466   4.527   6.143 -0.3682  0.5545 -0.5546
   37MOL   H35114103   4.658   4.463   6.281 -0.8411  0.2271 -0.4519
   37MOL   H35214104   4.750   4.609   6.282  0.6756  0.5284  0.8690
   37MOL   H35314105   4.556   4.715   6.160 -0.2234 -0.0201  0.0960
   37MOL   H35414106   4.754   4.663   6.036 -1.1031  0.7279 -0.1086
   37MOL   H35514107   4.614   4.605   5.947 -1.0532 -0.8508 -0.0717
   37MOL   H35614108   4.636   4.386   6.006 -0.4352  0.9361  2.6036
   37MOL   H35714109   4.780   4.406   6.093 -2.0410 -1.8276 -0.3678
   37MOL   H35814110   4.911   4.506   5.916 -0.8868  2.3592 -1.9600
   37MOL   H35914111   4.770   4.472   5.810  0.3063 -1.8654 -0.4497
   37MOL   H36014112   4.906   4.249   5.971 -0.1173 -0.7885 -0.3767
   37MOL   H36114113   4.953   4.284   5.804 -0.9151  2.0012 -1.4806
   37MOL   H36214114   4.795   4.215   5.852  1.8670 -2.2250  1.9847
   37MOL   C36314115   4.348   4.601   6.132 -0.2710  0.0125  0.7433
   37MOL   C36414116   4.243   4.500   6.091 -0.2275 -0.0536 -0.0945
   37MOL   C36514117   4.104   4.554   6.069  0.2060 -0.8909 -0.1924
   37MOL   C36614118   3.991   4.445   6.059  0.1230  0.1493  0.3683
   37MOL   C36714119   3.863   4.508   6.027  0.0140  0.1878 -0.0402
   37MOL   C36814120   3.734   4.421   6.026 -0.3306 -0.2815  0.0825
   37MOL   O36914121   4.295   4.446   5.964  0.0832 -0.4574  0.0388
   37MOL   H37014122   4.351   4.692   6.072  1.3634  0.8032  1.9665
   37MOL   H37114123   4.318   4.623   6.234  0.4297 -1.6090  1.3135
   37MOL   H37214124   4.249   4.414   6.159 -1.7791 -0.2258 -0.1714
   37MOL   H37314125   4.086   4.628   6.147 -1.1311 -1.2795 -0.1173
   37MOL   H37414126   4.099   4.630   5.991 -1.8643  0.0371  0.8109
   37MOL   H37514127   4.024   4.377   5.981 -1.8859 -0.5882  0.1506
   37MOL   H37614128   3.987   4.389   6.153  0.0868  1.5155  1.1853
   37MOL   H37714129   3.852   4.589   6.099  1.6141  1.0060 -0.7104
   37MOL   H37814130   3.872   4.560   5.932 -0.9286 -0.6041 -0.5872
   37MOL   H37914131   3.725   4.370   6.122 -0.6039  0.8835  0.6901
   37MOL   H38014132   3.645   4.481   6.005 -0.8757 -0.4642  1.7589
   37MOL   H38114133   3.740   4.332   5.965 -2.4755 -1.0692  0.9475
   37MOL   H38214134   4.389   4.444   5.973  0.0755  2.1883  1.3286
   38MOL     C114135   2.374   3.993   5.658 -0.5980 -0.3761 -0.5064
   38MOL     C214136   2.496   3.946   5.744  0.2018  0.3422 -0.3188
   38MOL     C314137   2.512   3.799   5.709 -0.2044  0.3988  0.0660
   38MOL     C414138   2.617   3.722   5.796 -0.5946  0.0297 -0.1040
   38MOL     C514139   2.589   3.566   5.811 -0.6553 -0.4691  0.0805
   38MOL     C614140   2.614   3.493   5.677  0.2015  0.3294  0.4909
   38MOL     O714141   2.615   4.023   5.709 -0.0989  0.0001 -0.1506
   38MOL     H814142   2.352   4.099   5.674  1.2160  0.3049 -2.2534
   38MOL     H914143   2.282   3.946   5.692 -0.1551 -1.3984 -0.6854
   38MOL    H1014144   2.478   3.947   5.851  1.1245 -1.7094 -0.1185
   38MOL    H1114145   2.415   3.758   5.738  0.2108  0.2261  1.2473
   38MOL    H1214146   2.528   3.780   5.603 -0.1436  2.0166 -0.2178
   38MOL    H1314147   2.720   3.739   5.762 -0.9476 -0.9063 -1.6947
   38MOL    H1414148   2.617   3.768   5.895  0.4921 -1.8393  0.7750
   38MOL    H1514149   2.645   3.534   5.899  0.1136 -2.0389 -0.9540
   38MOL    H1614150   2.485   3.550   5.841  0.2597 -2.8947  2.0711
   38MOL    H1714151   2.716   3.512   5.641  0.4692 -3.5141 -1.0260
   38MOL    H1814152   2.607   3.387   5.699  2.8937  0.4718  2.2978
   38MOL    H1914153   2.534   3.520   5.608 -1.0468 -2.1103  0.9374
   38MOL    H2014154   2.385   3.981   5.550 -1.7555  1.5786 -0.8750
   38MOL    C2114155   2.618   4.144   5.792  0.1101  0.1879  0.0647
   38MOL    C2214156   2.751   4.219   5.769  0.8042  0.3109 -0.0240
   38MOL    C2314157   2.744   4.366   5.800 -0.2918 -0.3464  0.0562
   38MOL    C2414158   2.879   4.438   5.774 -0.5435 -0.5201  0.2431
   38MOL    C2514159   2.862   4.597   5.804  0.1095 -0.3856 -0.1465
   38MOL    C2614160   3.006   4.658   5.825 -0.4205 -0.1524  0.0797
   38MOL    O2714161   2.848   4.165   5.858 -0.2984 -0.4499 -0.3683
   38MOL    H2814162   2.539   4.209   5.754  0.9884  2.3365  1.8435
   38MOL    H2914163   2.613   4.113   5.896 -0.2082  0.8725  0.2593
   38MOL    H3014164   2.771   4.200   5.664  1.7170 -1.0972  0.3951
   38MOL    H3114165   2.705   4.391   5.899 -0.8366 -1.0843  0.0287
   38MOL    H3214166   2.663   4.410   5.742 -0.2899  1.8790  1.6313
   38MOL    H3314167   2.930   4.419   5.679 -0.9109  1.5408 -0.4115
   38MOL    H3414168   2.949   4.386   5.839  0.0831 -2.6781 -2.0974
   38MOL    H3514169   2.814   4.645   5.719  1.7381 -1.1718 -1.5531
   38MOL    H3614170   2.809   4.609   5.898  1.5128 -3.6677  1.1385
   38MOL    H3714171   3.072   4.591   5.881 -3.8532 -3.2427  0.6912
   38MOL    H3814172   3.001   4.761   5.859  1.0320 -0.5312  1.5399
   38MOL    H3914173   3.051   4.657   5.726  1.2285 -1.7608  0.8063
   38MOL    C4014174   2.909   4.052   5.803 -0.3415  0.5903 -0.8495
   38MOL    C4114175   3.008   4.001   5.911 -0.3649 -0.5289 -0.0110
   38MOL    C4214176   3.113   4.100   5.956  0.5725 -0.5483  0.6379
   38MOL    C4314177   3.201   4.169   5.843  0.2080  0.0488  0.0207
   38MOL    C4414178   3.322   4.249   5.881 -0.7066  0.1009 -0.1617
   38MOL    C4514179   3.424   4.177   5.974 -0.4954  0.1844  0.4138
   38MOL    O4614180   3.078   3.892   5.853 -0.1633 -0.0785  0.0905
   38MOL    H4714181   2.953   4.073   5.705 -0.3562 -0.2038 -1.0303
   38MOL    H4814182   2.842   3.969   5.779  1.4979 -0.5248 -2.3928
   38MOL    H4914183   2.952   3.976   6.001  0.1994 -0.4172  0.3731
   38MOL    H5014184   3.057   4.176   6.010  2.4740  1.4377 -0.0934
   38MOL    H5114185   3.179   4.036   6.016  1.4691 -0.5270 -0.2942
   38MOL    H5214186   3.138   4.240   5.790 -1.6004  0.5536  2.7178
   38MOL    H5314187   3.239   4.095   5.773  3.0681  1.1858  0.2821
   38MOL    H5414188   3.376   4.287   5.793  0.0974  0.8310  0.6345
   38MOL    H5514189   3.288   4.330   5.946  1.5067 -0.1586  1.3850
   38MOL    H5614190   3.462   4.085   5.928 -0.4087  1.5597 -2.3527
   38MOL    H5714191   3.509   4.242   5.996 -0.0072 -0.6913  1.1728
   38MOL    H5814192   3.379   4.148   6.069  0.9812  0.3935  1.2057
   38MOL    C5914193   3.029   3.765   5.898 -0.1512 -0.0837 -0.1768
   38MOL    C6014194   3.066   3.735   6.041  0.5238 -0.2826  0.1774
   38MOL    C6114195   2.959   3.652   6.114 -0.0234 -0.1209  0.0270
   38MOL    C6214196   2.913   3.523   6.056  0.3639  0.6045  0.5757
   38MOL    C6314197   2.817   3.448   6.146  0.3025  0.7493 -0.0164
   38MOL    C6414198   2.781   3.303   6.094  0.8409  0.0693  0.2039
   38MOL    O6514199   3.189   3.661   6.047  0.0091 -0.3566  0.4658
   38MOL    H6614200   3.068   3.686   5.834 -0.1078 -0.2884  0.1012
   38MOL    H6714201   2.922   3.764   5.878  0.1088  0.9203 -1.7269
   38MOL    H6814202   3.085   3.825   6.099 -1.0287 -1.2708  2.2941
   38MOL    H6914203   2.868   3.712   6.124 -0.4530 -0.7181 -0.2574
   38MOL    H7014204   2.991   3.642   6.218  0.8957 -2.1818 -0.4403
   38MOL    H7114205   3.004   3.467   6.033  0.9418  1.4854  0.6836
   38MOL    H7214206   2.878   3.524   5.953  1.3097  1.8306  0.2558
   38MOL    H7314207   2.719   3.494   6.147 -1.0215 -1.9546  0.5003
   38MOL    H7414208   2.865   3.448   6.244 -0.3428  3.1211  0.3157
   38MOL    H7514209   2.703   3.261   6.158  0.9787 -1.7652 -0.7953
   38MOL    H7614210   2.748   3.301   5.990  0.6390  0.0574  0.2680
   38MOL    H7714211   2.861   3.230   6.099  1.3889  0.6621  0.1196
   38MOL    C7814212   3.285   3.727   6.126 -0.1129  0.1526 -0.0038
   38MOL    C7914213   3.427   3.663   6.098 -0.3427  0.1723 -0.5823
   38MOL    C8014214   3.531   3.670   6.220  1.0368  0.3230  0.1885
   38MOL    C8114215   3.655   3.597   6.173 -0.5044 -0.1691  0.1288
   38MOL    C8214216   3.765   3.596   6.282  0.0951 -0.2045  0.4159
   38MOL    C8314217   3.893   3.516   6.240  0.2370 -0.2963 -0.8342
   38MOL    O8414218   3.486   3.733   5.988 -0.0223  0.7239  0.3006
   38MOL    H8514219   3.252   3.713   6.229 -0.0655 -1.7916 -0.2359
   38MOL    H8614220   3.294   3.833   6.103  0.5204 -0.2628 -1.7998
   38MOL    H8714221   3.423   3.558   6.070 -2.2341 -0.0509  0.3929
   38MOL    H8814222   3.547   3.776   6.244  0.9883  0.5769 -0.8890
   38MOL    H8914223   3.497   3.615   6.308 -0.5677  1.1350  0.0945
   38MOL    H9014224   3.700   3.650   6.090 -1.3296 -0.5650 -0.5786
   38MOL    H9114225   3.642   3.493   6.142  1.3200  0.3841 -2.6107
   38MOL    H9214226   3.784   3.700   6.309  0.1492 -0.2712  0.6390
   38MOL    H9314227   3.731   3.540   6.370 -3.1320  0.1835 -0.5359
   38MOL    H9414228   3.936   3.560   6.151  3.2742 -2.6822 -0.6291
   38MOL    H9514229   3.870   3.413   6.213 -1.2954  0.1482 -1.2835
   38MOL    H9614230   3.977   3.525   6.310  0.4623 -0.7453 -1.0449
   38MOL    C9714231   3.454   3.683   5.860 -0.4570 -0.5992  0.0355
   38MOL    C9814232   3.494   3.794   5.754  0.0641 -0.0164  0.0383
   38MOL    C9914233   3.643   3.813   5.762  0.3504 -0.0377 -0.3634
   38MOL   C10014234   3.698   3.926   5.674  0.1803  0.2534 -0.1610
   38MOL   C10114235   3.670   4.066   5.719 -0.5793  0.7002 -0.3170
   38MOL   C10214236   3.711   4.162   5.614 -0.0911 -0.2629  0.2446
   38MOL   O10314237   3.456   3.767   5.625 -0.2424 -0.1798  0.1050
   38MOL   H10414238   3.348   3.659   5.850 -0.9585  2.3236 -2.5673
   38MOL   H10514239   3.516   3.594   5.850 -1.4038 -1.5451  2.3720
   38MOL   H10614240   3.451   3.893   5.774  1.6842  0.4855  1.1211
   38MOL   H10714241   3.697   3.721   5.743  0.4752 -0.3540  1.4254
   38MOL   H10814242   3.675   3.839   5.863  0.2856 -0.0065 -0.3510
   38MOL   H10914243   3.659   3.904   5.575  1.0889  0.0801 -0.4827
   38MOL   H11014244   3.804   3.911   5.652  0.3653  1.1240  0.1061
   38MOL   H11114245   3.733   4.088   5.805 -1.0839  1.0072 -0.0202
   38MOL   H11214246   3.564   4.080   5.745 -0.1403  2.3272  0.7347
   38MOL   H11314247   3.818   4.179   5.610 -0.2034  0.1921 -1.6450
   38MOL   H11414248   3.674   4.136   5.514 -1.4923  1.7216  0.2310
   38MOL   H11514249   3.678   4.264   5.630 -1.2784 -0.5699 -0.1846
   38MOL   C11614250   3.327   3.810   5.588  0.1512  0.2023  0.4523
   38MOL   C11714251   3.276   3.708   5.482  0.1101 -0.6807  0.3854
   38MOL   C11814252   3.158   3.769   5.405 -0.4688  0.2124 -0.3758
   38MOL   C11914253   3.030   3.788   5.490  0.0793  0.3251  0.0811
   38MOL   C12014254   2.909   3.781   5.400  0.2059  0.4381  0.2653
   38MOL   C12114255   2.781   3.813   5.479 -0.0787 -0.4180  0.3146
   38MOL   O12214256   3.235   3.581   5.555  0.0885 -0.5281  0.3038
   38MOL   H12314257   3.257   3.830   5.669 -0.3021 -2.8627  0.8723
   38MOL   H12414258   3.334   3.902   5.529 -1.0812  0.8340  1.2753
   38MOL   H12514259   3.359   3.686   5.415 -0.6751  1.6229 -1.3955
   38MOL   H12614260   3.179   3.859   5.348  1.8452 -2.1673 -3.4696
   38MOL   H12714261   3.134   3.698   5.326 -0.9117 -0.9276  0.7727
   38MOL   H12814262   3.037   3.882   5.546 -1.4029  1.2553 -1.2397
   38MOL   H12914263   3.018   3.705   5.559 -0.8194  0.4809  0.1224
   38MOL   H13014264   2.912   3.840   5.308 -1.3350 -0.0181 -0.0885
   38MOL   H13114265   2.905   3.678   5.363 -0.5150 -0.5268  2.9244
   38MOL   H13214266   2.686   3.803   5.426  0.4670  1.2940 -1.0257
   38MOL   H13314267   2.775   3.735   5.554  0.1145 -0.1766  0.5810
   38MOL   H13414268   2.802   3.898   5.544  1.4770 -0.8873  0.4565
   38MOL   C13514269   3.325   3.474   5.533 -0.4498  0.1921 -0.2678
   38MOL   C13614270   3.293   3.384   5.656  0.1235 -0.1585  0.0712
   38MOL   C13714271   3.423   3.311   5.695  0.4438 -0.1254  0.4487
   38MOL   C13814272   3.440   3.252   5.834  0.2391  0.4861  0.3005
   38MOL   C13914273   3.584   3.183   5.859 -0.2517 -0.7530  0.3833
   38MOL   C14014274   3.611   3.165   6.016  0.1937  0.1172  0.2507
   38MOL   O14114275   3.195   3.280   5.622  0.4720  0.0840 -0.0777
   38MOL   H14214276   3.312   3.424   5.437  0.7982 -0.4670 -0.0991
   38MOL   H14314277   3.425   3.517   5.530 -0.7831  0.9186 -1.2179
   38MOL   H14414278   3.268   3.435   5.749 -2.9711 -0.7248 -0.4152
   38MOL   H14514279   3.433   3.234   5.619 -0.7154  1.4634 -1.3740
   38MOL   H14614280   3.494   3.394   5.687 -1.7749  2.0510  2.1706
   38MOL   H14714281   3.363   3.175   5.838  0.0391  0.6934  0.4311
   38MOL   H14814282   3.440   3.332   5.909  2.0996  0.9654 -0.1916
   38MOL   H14914283   3.653   3.254   5.812 -1.7323  0.5305  0.0976
   38MOL   H15014284   3.592   3.087   5.809  0.4120 -1.5684  2.0252
   38MOL   H15114285   3.615   3.256   6.076 -0.6221  0.9528 -0.9246
   38MOL   H15214286   3.538   3.097   6.059  0.6853 -1.1116 -0.8366
   38MOL   H15314287   3.710   3.120   6.015  0.0483 -0.3119  3.0121
   38MOL   C15414288   3.060   3.307   5.637  0.2842 -0.0393  0.1965
   38MOL   C15514289   2.984   3.187   5.576 -0.8094 -0.3014 -0.0684
   38MOL   C15614290   3.019   3.158   5.435 -0.7511  0.0142  0.5045
   38MOL   C15714291   2.962   3.022   5.382 -0.2495 -0.8614  0.5671
   38MOL   C15814292   3.013   2.987   5.238  0.4861  0.0131 -0.4805
   38MOL   C15914293   2.967   2.858   5.177 -0.0203 -0.0512  0.8293
   38MOL   O16014294   2.986   3.063   5.649 -0.1545 -0.3765 -0.0113
   38MOL   H16114295   3.040   3.403   5.590 -3.9164 -0.3145  1.1793
   38MOL   H16214296   3.044   3.320   5.744 -0.5000 -0.1492  0.0970
   38MOL   H16314297   2.878   3.212   5.568 -0.8301  0.0012  1.1600
   38MOL   H16414298   3.127   3.147   5.423 -0.2607  1.7530  3.0483
   38MOL   H16514299   3.010   3.249   5.377  0.5221  0.9385  1.7276
   38MOL   H16614300   2.854   3.025   5.394 -0.4422 -0.3713 -1.1688
   38MOL   H16714301   2.990   2.934   5.439  2.7097 -0.9080 -0.8602
   38MOL   H16814302   2.979   3.071   5.177 -1.3587 -1.2550 -1.2687
   38MOL   H16914303   3.121   2.991   5.237  0.4909 -0.1297 -1.5613
   38MOL   H17014304   3.020   2.842   5.083 -0.0875 -0.0521  0.7915
   38MOL   H17114305   2.859   2.851   5.165  0.0482  0.2715 -0.0213
   38MOL   H17214306   3.002   2.774   5.236 -1.0189 -3.3226 -3.0305
   38MOL   C17314307   3.094   3.031   5.741  0.3224  0.6310 -0.4813
   38MOL   C17414308   3.079   2.880   5.758 -0.6413 -0.3420 -0.4083
   38MOL   C17514309   3.200   2.817   5.829  0.0867  0.3117 -0.1826
   38MOL   C17614310   3.245   2.879   5.958  0.9277 -0.0213  0.4546
   38MOL   C17714311   3.357   2.804   6.018 -0.2912  0.9885 -0.7372
   38MOL   C17814312   3.382   2.837   6.168 -0.3836  0.0493  0.5224
   38MOL   O17914313   2.973   2.855   5.855 -0.1000 -0.0271  0.2293
   38MOL   H18014314   3.065   3.081   5.833 -1.3103  0.2649 -0.7655
   38MOL   H18114315   3.189   3.068   5.703  0.3670  0.6918 -0.3080
   38MOL   H18214316   3.067   2.830   5.662 -1.1922 -0.2445 -0.3901
   38MOL   H18314317   3.189   2.709   5.838  2.2002  0.1121  0.1889
   38MOL   H18414318   3.271   2.833   5.748  0.4243 -1.9326 -0.3470
   38MOL   H18514319   3.278   2.982   5.959  2.0338 -0.3829  1.6613
   38MOL   H18614320   3.162   2.883   6.028  0.3419 -2.2468 -0.0626
   38MOL   H18714321   3.350   2.695   6.011  2.1444  0.6051  1.8652
   38MOL   H18814322   3.446   2.845   5.971 -0.1143  2.1961  0.6333
   38MOL   H18914323   3.487   2.837   6.198 -0.0923  1.4885 -0.3948
   38MOL   H19014324   3.343   2.755   6.227 -0.8874 -0.4172 -0.4432
   38MOL   H19114325   3.332   2.925   6.210 -1.4905 -1.3858  2.2574
   38MOL   C19214326   2.845   2.871   5.810  0.0552  0.4418  0.0991
   38MOL   C19314327   2.759   2.794   5.911 -0.9334 -0.1656 -0.0459
   38MOL   C19414328   2.613   2.773   5.874 -0.0866 -0.6834 -0.2889
   38MOL   C19514329   2.513   2.694   5.963 -0.5260 -0.2067 -0.2958
   38MOL   C19614330   2.363   2.707   5.938  0.1882  0.1831 -0.3296
   38MOL   C19714331   2.268   2.605   5.999  0.2198  0.3551 -0.3058
   38MOL   O19814332   2.771   2.860   6.036 -0.2166  0.6122  0.5908
   38MOL   H19914333   2.827   2.978   5.801 -2.1611  0.2579  2.0371
   38MOL   H20014334   2.843   2.817   5.715  1.2139  1.0097 -0.2563
   38MOL   H20114335   2.793   2.691   5.920  1.1691  0.3003 -2.2014
   38MOL   H20214336   2.573   2.874   5.865 -0.0954 -0.3931  2.6733
   38MOL   H20314337   2.601   2.739   5.771  1.6398  1.2745 -1.1814
   38MOL   H20414338   2.533   2.731   6.064  0.3701 -3.6355  0.8778
   38MOL   H20514339   2.535   2.587   5.958  1.9786  0.0871  2.6626
   38MOL   H20614340   2.339   2.806   5.975 -0.8779 -0.6294  1.2105
   38MOL   H20714341   2.348   2.695   5.830  1.7710  1.6536 -0.7169
   38MOL   H20814342   2.279   2.610   6.107  2.0863  1.1790 -0.5115
   38MOL   H20914343   2.163   2.628   5.979  0.6197  2.8773  0.2332
   38MOL   H21014344   2.289   2.503   5.968 -2.1527 -0.1772 -0.2672
   38MOL   C21114345   2.845   2.794   6.128  0.4810  0.4062 -0.4094
   38MOL   C21214346   2.876   2.889   6.243 -0.3768  0.2419  0.5484
   38MOL   C21314347   3.010   2.863   6.320  0.0977 -0.8346  0.5514
   38MOL   C21414348   3.018   2.969   6.431  0.0333 -0.0510  0.3604
   38MOL   C21514349   3.143   2.959   6.522 -0.5004 -0.8218  1.0764
   38MOL   C21614350   3.141   3.066   6.627  0.7392 -0.0741 -0.0336
   38MOL   O21714351   2.773   2.860   6.346  0.2496  0.2092  0.0784
   38MOL   H21814352   2.939   2.752   6.091  0.6229  1.0215 -0.7508
   38MOL   H21914353   2.791   2.703   6.153 -1.6642  1.4423 -1.1803
   38MOL   H22014354   2.877   2.988   6.197 -0.6651 -0.6179 -1.3464
   38MOL   H22114355   3.012   2.764   6.367 -2.5126 -0.2422  2.0232
   38MOL   H22214356   3.098   2.867   6.256  0.5903  0.1715  1.2793
   38MOL   H22314357   3.031   3.064   6.380  2.9456 -0.4227  0.3460
   38MOL   H22414358   2.938   2.982   6.504  0.0157  1.3103  0.1121
   38MOL   H22514359   3.146   2.860   6.566 -0.7500 -0.4122  2.0168
   38MOL   H22614360   3.223   2.965   6.448  0.3233  1.7325  2.1074
   38MOL   H22714361   3.053   3.052   6.691  1.0243 -0.4293  0.2802
   38MOL   H22814362   3.155   3.167   6.587 -1.8873  0.7776  1.0370
   38MOL   H22914363   3.230   3.055   6.689  0.6523 -1.4217 -0.1370
   38MOL   C23014364   2.656   2.941   6.335  0.4100 -0.1893  0.4560
   38MOL   C23114365   2.536   2.863   6.404 -0.9448 -0.6735 -0.1135
   38MOL   C23214366   2.394   2.891   6.349  0.1412  0.1519  0.2021
   38MOL   C23314367   2.282   2.794   6.398  0.0638 -0.7047  0.2778
   38MOL   C23414368   2.147   2.827   6.329  0.1955  0.4787 -0.4186
   38MOL   C23514369   2.034   2.754   6.403 -0.2482 -0.0158  0.0031
   38MOL   O23614370   2.534   2.888   6.542  0.0186 -0.1404 -0.1618
   38MOL   H23714371   2.676   3.043   6.368  0.9018 -0.1077 -0.0752
   38MOL   H23814372   2.622   2.955   6.232 -1.6688  1.4864  1.3414
   38MOL   H23914373   2.559   2.757   6.411 -1.5037 -0.8731 -1.2773
   38MOL   H24014374   2.418   2.881   6.243  1.9316  0.6752  0.5400
   38MOL   H24114375   2.362   2.991   6.379 -0.7209 -0.1498  0.3028
   38MOL   H24214376   2.260   2.817   6.502 -1.9259 -0.0128 -0.2715
   38MOL   H24314377   2.312   2.691   6.376 -0.8491 -1.5286  2.7447
   38MOL   H24414378   2.128   2.934   6.344  0.4285  0.1134  2.8674
   38MOL   H24514379   2.141   2.800   6.223 -2.2711 -1.3433  0.1334
   38MOL   H24614380   1.994   2.819   6.480 -1.1207  2.4198 -2.4047
   38MOL   H24714381   2.057   2.652   6.434 -0.8907 -0.2521 -0.3023
   38MOL   H24814382   1.949   2.740   6.336 -0.6593  0.0606  0.5081
   38MOL   C24914383   2.654   2.873   6.619  0.1013  0.4438  0.5543
   38MOL   C25014384   2.609   2.880   6.767 -0.1067  0.4275 -0.1606
   38MOL   C25114385   2.562   3.014   6.810  0.3553  0.1415 -0.0296
   38MOL   C25214386   2.486   3.014   6.949 -0.2680  0.8633  1.2123
   38MOL   C25314387   2.457   3.154   6.990  0.3425  0.7752  0.5112
   38MOL   C25414388   2.373   3.232   6.888 -0.2743 -0.4257  0.4229
   38MOL   O25514389   2.709   2.832   6.852 -0.0191 -0.5133  0.6750
   38MOL   H25614390   2.704   2.778   6.605  0.9639  1.0146 -0.2755
   38MOL   H25714391   2.729   2.952   6.609  0.0514  0.3693 -0.4139
   38MOL   H25814392   2.530   2.809   6.793  0.2994 -0.3775 -1.0821
   38MOL   H25914393   2.647   3.081   6.823  0.5445  0.2831 -1.8659
   38MOL   H26014394   2.499   3.053   6.730  0.7372  1.3603  0.2541
   38MOL   H26114395   2.392   2.960   6.940  0.4722 -0.7494  2.9760
   38MOL   H26214396   2.528   2.963   7.035  0.8758  1.2716  0.9130
   38MOL   H26314397   2.410   3.155   7.089 -2.1311  1.3558 -0.6232
   38MOL   H26414398   2.548   3.211   7.007  0.9961 -0.6364  1.8544
   38MOL   H26514399   2.432   3.263   6.802 -2.7097  2.6762 -0.2486
   38MOL   H26614400   2.326   3.320   6.934  0.5988 -1.5312  3.5788
   38MOL   H26714401   2.289   3.172   6.855  0.4008 -1.9916  1.4974
   38MOL   C26814402   2.838   2.874   6.843 -0.5960  0.4438 -0.3286
   38MOL   C26914403   2.915   2.821   6.969  0.4555  0.0577  0.3557
   38MOL   C27014404   3.059   2.880   6.972  0.4172 -0.6687 -0.1276
   38MOL   C27114405   3.121   2.884   7.108  0.2589  0.3487 -0.4528
   38MOL   C27214406   3.254   2.952   7.111  0.0005 -0.7522 -0.0647
   38MOL   C27314407   3.319   2.971   7.253 -0.7850 -0.0558  0.2176
   38MOL   O27414408   2.935   2.676   6.959  0.0398 -0.0024  0.5342
   38MOL   H27514409   2.847   2.982   6.832  0.6281  0.3243 -0.6211
   38MOL   H27614410   2.883   2.821   6.759 -0.2786  0.1796  0.0064
   38MOL   H27714411   2.863   2.843   7.062  2.9441  0.3180  1.7146
   38MOL   H27814412   3.115   2.842   6.886 -0.9276  1.9248 -2.2076
   38MOL   H27914413   3.054   2.984   6.940 -0.5284 -0.7003 -0.0902
   38MOL   H28014414   3.058   2.910   7.193  1.8878  0.7146  0.6680
   38MOL   H28114415   3.138   2.778   7.125  0.3923  0.9405  3.6070
   38MOL   H28214416   3.320   2.890   7.050 -0.1056 -1.2273  0.2970
   38MOL   H28314417   3.244   3.049   7.063 -1.0352  0.3119  2.2139
   38MOL   H28414418   3.252   3.014   7.327  0.0302  2.9609 -0.7271
   38MOL   H28514419   3.335   2.870   7.293 -0.3377  0.2291  0.7669
   38MOL   H28614420   3.414   3.025   7.252 -1.3952  1.0087  0.0814
   38MOL   C28714421   2.828   2.588   6.983 -0.4955 -0.6047  0.6705
   38MOL   C28814422   2.878   2.449   7.002 -0.0571 -0.1951  0.0402
   38MOL   C28914423   2.776   2.349   6.945 -0.4292 -0.6847  0.0476
   38MOL   C29014424   2.849   2.216   6.926  0.0138 -0.2813 -0.7642
   38MOL   C29114425   2.778   2.121   6.825  0.1527 -0.8061  0.6265
   38MOL   C29214426   2.847   1.985   6.821  0.5890  0.0920 -0.5695
   38MOL   O29314427   2.902   2.421   7.139 -0.2244  0.6403 -0.1865
   38MOL   H29414428   2.760   2.588   6.897  0.7908 -1.3933 -0.3578
   38MOL   H29514429   2.773   2.624   7.070  2.0269  2.5574  1.0627
   38MOL   H29614430   2.976   2.456   6.955  0.6210 -1.4081  1.2434
   38MOL   H29714431   2.692   2.335   7.013  0.0938 -1.3232  0.5708
   38MOL   H29814432   2.736   2.381   6.849 -1.0382  0.0344  0.5374
   38MOL   H29914433   2.953   2.211   6.895 -0.1283 -1.2913 -1.0965
   38MOL   H30014434   2.853   2.176   7.027 -0.1282  0.9726 -0.2562
   38MOL   H30114435   2.778   2.162   6.724 -0.4582 -2.7482 -0.1861
   38MOL   H30214436   2.673   2.113   6.854 -0.0659 -2.6283 -0.6065
   38MOL   H30314437   2.952   1.983   6.791  0.0139  0.5219 -2.7584
   38MOL   H30414438   2.844   1.933   6.916  0.7310  1.0790 -0.0152
   38MOL   H30514439   2.795   1.920   6.751 -3.4323 -0.3954  2.6976
   38MOL   C30614440   2.995   2.505   7.218  0.0794 -0.6742 -0.6421
   38MOL   C30714441   3.082   2.431   7.328  0.3703  0.7207 -0.6190
   38MOL   C30814442   3.109   2.527   7.451  0.2397  0.6551  0.3147
   38MOL   C30914443   3.172   2.666   7.422 -0.0918 -0.1936 -0.3971
   38MOL   C31014444   3.225   2.750   7.546 -0.1927 -0.1798  0.0721
   38MOL   C31114445   3.114   2.802   7.635 -0.2405  0.1396 -0.3336
   38MOL   O31214446   3.212   2.403   7.276  0.3555 -0.0488  0.2727
   38MOL   H31314447   3.069   2.556   7.156  1.2662 -1.3963  0.1625
   38MOL   H31414448   2.929   2.578   7.266  2.0809 -0.5554  2.0318
   38MOL   H31514449   3.029   2.342   7.363 -0.5886  1.6502  0.3217
   38MOL   H31614450   3.181   2.470   7.509 -1.5131 -2.8962 -0.8386
   38MOL   H31714451   3.017   2.534   7.510  0.9808 -0.4238  1.6273
   38MOL   H31814452   3.256   2.643   7.357 -0.9064  1.3386 -2.0503
   38MOL   H31914453   3.099   2.729   7.371  0.6898 -0.5972 -2.0455
   38MOL   H32014454   3.275   2.841   7.513 -1.4903  1.0043  1.2790
   38MOL   H32114455   3.296   2.694   7.606  1.3640  1.9621  0.2905
   38MOL   H32214456   3.062   2.719   7.685  0.8230 -0.3684 -0.0398
   38MOL   H32314457   3.147   2.880   7.704 -0.5320 -1.8821  2.1867
   38MOL   H32414458   3.028   2.841   7.582 -0.1195  0.5565 -0.2216
   38MOL   C32514459   3.202   2.260   7.223 -0.7640 -0.7944 -0.7019
   38MOL   C32614460   3.333   2.201   7.174 -0.2450 -0.0971 -0.3382
   38MOL   C32714461   3.320   2.107   7.050  0.3235  0.6750  0.3028
   38MOL   C32814462   3.244   1.974   7.087 -0.5542 -0.7046  0.0063
   38MOL   C32914463   3.228   1.877   6.967  0.3769 -0.1100  0.1463
   38MOL   C33014464   3.149   1.748   6.996 -0.1002  0.0947  0.2392
   38MOL   O33114465   3.403   2.119   7.273 -0.1986 -0.7484  0.1310
   38MOL   H33214466   3.131   2.262   7.140 -1.3024  1.8162 -0.2178
   38MOL   H33314467   3.170   2.194   7.303  0.4988  1.9140  2.1527
   38MOL   H33414468   3.401   2.276   7.132 -1.0008  0.3622 -0.7472
   38MOL   H33514469   3.259   2.160   6.977  0.3035 -1.0773 -1.0016
   38MOL   H33614470   3.417   2.087   7.004 -0.4260  1.0473 -1.4781
   38MOL   H33714471   3.286   1.913   7.167 -0.8215 -1.1985 -0.2275
   38MOL   H33814472   3.147   2.006   7.126  0.0234  2.1905 -0.8243
   38MOL   H33914473   3.173   1.930   6.889  1.5459 -1.7481 -1.8462
   38MOL   H34014474   3.323   1.854   6.919 -0.8321 -0.8395 -1.9295
   38MOL   H34114475   3.050   1.757   7.041  0.0667 -2.9339  1.2984
   38MOL   H34214476   3.132   1.692   6.904  1.9391  2.0534 -1.4090
   38MOL   H34314477   3.200   1.683   7.066 -0.6406  0.3658  0.8871
   38MOL   C34414478   3.494   2.204   7.349  0.7866  0.3581 -0.2107
   38MOL   C34514479   3.528   2.121   7.478  1.1129 -0.5684 -0.3471
   38MOL   C34614480   3.648   2.178   7.552 -0.0900 -0.2205 -0.8661
   38MOL   C34714481   3.677   2.081   7.664 -0.9022  0.1782  0.5326
   38MOL   C34814482   3.778   2.145   7.756 -0.2003  0.5955 -0.1620
   38MOL   C34914483   3.811   2.067   0.096 -0.2934 -0.8110  0.2737
   38MOL   O35014484   3.406   2.126   7.565 -0.2098 -0.0574 -0.1034
   38MOL   H35114485   3.451   2.293   7.395 -1.5598  0.0300 -1.6800
   38MOL   H35214486   3.574   2.231   7.279 -0.5708 -1.8883 -2.7528
   38MOL   H35314487   3.543   2.020   7.442  1.4561 -1.5995  2.5446
   38MOL   H35414488   3.640   2.280   7.590  0.3839 -0.0299 -1.2745
   38MOL   H35514489   3.738   2.182   7.490 -1.5974 -0.7869 -3.1445
   38MOL   H35614490   3.715   1.988   7.622 -2.5986 -1.1220  1.8069
   38MOL   H35714491   3.590   2.068   7.728 -0.6922 -0.1071  0.7620
   38MOL   H35814492   3.742   2.243   0.003  0.7075 -0.3371  3.9183
   38MOL   H35914493   3.873   2.168   7.708  0.1478 -1.3413 -0.4353
   38MOL   H36014494   3.850   1.968   0.071  1.4262  0.2656 -1.5521
   38MOL   H36114495   3.719   2.069   0.154  0.1728 -0.2386  1.0015
   38MOL   H36214496   3.896   2.109   0.150 -0.6939 -0.7988  0.8877
   38MOL   C36314497   3.325   2.012   7.559  0.0494 -0.4437  0.4120
   38MOL   C36414498   3.209   2.052   7.647 -0.0493 -0.3500 -0.2227
   38MOL   C36514499   3.086   1.967   7.650 -0.1233  0.4795 -0.2223
   38MOL   C36614500   2.975   2.017   7.748 -0.7558  0.1277  0.4961
   38MOL   C36714501   2.848   1.923   7.753 -0.1325 -0.1562  0.3816
   38MOL   C36814502   2.731   1.993   7.694  0.7921 -0.6090  0.1117
   38MOL   O36914503   3.271   2.059   7.774 -0.3312  0.1841  0.0261
   38MOL   H37014504   3.369   1.917   7.590 -0.3478  0.3190  3.5468
   38MOL   H37114505   3.288   2.004   7.457  0.7584 -0.3943  0.1510
   38MOL   H37214506   3.179   2.156   7.633  1.2025  0.0900  0.3028
   38MOL   H37314507   3.045   1.944   7.552 -1.6995  1.4153  0.2074
   38MOL   H37414508   3.125   1.871   7.681 -0.7861  0.2996  0.0566
   38MOL   H37514509   3.013   2.025   0.064 -0.1338  0.9123  0.2104
   38MOL   H37614510   2.951   2.118   7.713 -1.3716 -0.2963 -0.3100
   38MOL   H37714511   2.865   1.833   7.693 -1.6243  0.7908 -1.4710
   38MOL   H37814512   2.815   1.884   0.064 -1.9622 -1.8111 -0.8767
   38MOL   H37914513   2.746   2.050   7.603  0.8279  0.7938  0.9919
   38MOL   H38014514   2.644   1.928   7.683 -1.0325  1.6054  1.2005
   38MOL   H38114515   2.687   2.064   7.763  0.8292 -1.7582  1.3480
   38MOL   H38214516   3.354   2.095   7.745 -0.3557 -1.2359 -1.9050
   39MOL     C114517   5.244   2.454   1.041  0.1856  0.2280  0.2542
   39MOL     C214518   5.374   2.531   1.087 -0.2909 -0.9709 -0.3067
   39MOL     C314519   5.493   2.452   1.033 -0.0353  0.2165 -0.1684
   39MOL     C414520   5.625   2.466   1.106 -0.3373 -0.2781 -0.4194
   39MOL     C514521   5.737   2.379   1.052 -0.2145  0.1154 -0.0869
   39MOL     C614522   5.879   2.443   1.089 -0.6162  0.0169 -0.2101
   39MOL     O714523   5.373   2.668   1.033 -0.1078  0.1251 -0.2688
   39MOL     H814524   5.232   2.460   0.933  1.8080 -1.8092 -0.0651
   39MOL     H914525   5.155   2.494   1.090  0.7589  0.4525  1.1319
   39MOL    H1014526   5.395   2.525   1.193  2.3452  1.7130 -0.6140
   39MOL    H1114527   5.474   2.345   1.041  1.2627 -0.0503 -0.5071
   39MOL    H1214528   5.503   2.469   0.926 -0.2747  2.0331  0.0745
   39MOL    H1314529   5.664   2.568   1.104  1.8060 -1.0805 -1.6861
   39MOL    H1414530   5.621   2.458   1.214 -3.8708  1.8212 -0.3170
   39MOL    H1514531   5.733   2.271   1.064 -3.4935  0.1764 -0.1920
   39MOL    H1614532   5.731   2.392   0.944  0.3126 -0.4331 -0.1858
   39MOL    H1714533   5.966   2.380   1.068  1.9625  3.4262 -0.0940
   39MOL    H1814534   5.900   2.533   1.033 -0.3215 -0.2018 -0.4513
   39MOL    H1914535   5.884   2.468   1.195 -0.5888  3.2797 -0.9470
   39MOL    H2014536   5.233   2.347   1.059 -0.9891 -0.2296 -2.9051
   39MOL    C2114537   5.296   2.753   1.123 -0.8356 -0.7558  0.1909
   39MOL    C2214538   5.236   2.860   1.028  0.6990 -0.1003  0.2681
   39MOL    C2314539   5.096   2.904   1.078  0.6987 -0.2279 -0.4866
   39MOL    C2414540   5.039   3.018   0.997 -0.2458 -0.4194  0.0698
   39MOL    C2514541   4.892   3.026   1.031  0.2817  0.4580 -0.1897
   39MOL    C2614542   4.867   3.116   1.152 -0.4477 -0.1931  0.2748
   39MOL    O2714543   5.320   2.978   1.018  0.1307  0.4832 -0.6601
   39MOL    H2814544   5.219   2.696   1.173  1.0084 -0.8056  3.1092
   39MOL    H2914545   5.359   2.807   1.194 -0.4733  1.7265 -1.9129
   39MOL    H3014546   5.211   2.828   0.927  0.2927  2.4619 -0.4843
   39MOL    H3114547   5.106   2.926   1.185 -1.4025 -1.1113 -0.0769
   39MOL    H3214548   5.034   2.814   1.073  0.5741 -0.0603 -2.1585
   39MOL    H3314549   5.050   2.988   0.893 -1.5405  2.2408 -0.8627
   39MOL    H3414550   5.096   3.109   1.015 -1.2300 -0.0930  1.5755
   39MOL    H3514551   4.858   3.068   0.936  0.7492 -1.2583 -1.1475
   39MOL    H3614552   4.846   2.928   1.040 -1.3310  1.0932 -1.2983
   39MOL    H3714553   4.879   3.222   1.129  0.5200 -0.4079 -0.2372
   39MOL    H3814554   4.938   3.088   1.230  0.1584 -1.4881 -0.7063
   39MOL    H3914555   4.762   3.105   1.181 -0.3056  0.2027  0.9262
   39MOL    C4014556   5.437   2.964   0.935 -0.3960 -0.0173  0.7222
   39MOL    C4114557   5.515   3.101   0.929  0.5363  0.7075  0.1953
   39MOL    C4214558   5.601   3.103   0.802 -0.0539  0.1027 -0.6026
   39MOL    C4314559   5.711   3.218   0.791 -0.5023  0.1573  0.6951
   39MOL    C4414560   5.806   3.208   0.673 -0.0116 -0.0081 -0.1259
   39MOL    C4514561   5.925   3.304   0.691 -0.3737 -0.1787  0.0058
   39MOL    O4614562   5.603   3.113   1.040  0.1349 -0.0230  0.0893
   39MOL    H4714563   5.403   2.934   0.836  2.8304 -1.9496  0.1062
   39MOL    H4814564   5.501   2.879   0.960 -0.1516 -0.5740 -1.6132
   39MOL    H4914565   5.446   3.185   0.926  0.1061  0.3969  1.2869
   39MOL    H5014566   5.657   3.010   0.795 -0.8166 -0.3679 -0.4372
   39MOL    H5114567   5.541   3.099   0.711 -0.2667 -2.6510 -0.3660
   39MOL    H5214568   5.760   3.227   0.888 -0.0427 -0.9475  0.5681
   39MOL    H5314569   5.647   3.305   0.774  1.4681  1.6220  0.5442
   39MOL    H5414570   5.845   3.106   0.665 -1.9178 -0.5692 -3.0246
   39MOL    H5514571   5.750   3.219   0.581 -0.0083 -2.3198 -0.4557
   39MOL    H5614572   5.992   3.293   0.606 -0.2228  2.2712 -0.2354
   39MOL    H5714573   5.896   3.409   0.688  0.3522  0.0627  1.1624
   39MOL    H5814574   5.970   3.291   0.790  2.3380  0.3394 -1.1242
   39MOL    C5914575   5.535   3.135   1.164  0.4154  0.0780  0.4561
   39MOL    C6014576   5.429   3.248   1.197  0.1352 -0.3980  0.0291
   39MOL    C6114577   5.321   3.212   1.302 -0.0702  0.2209 -0.1394
   39MOL    C6214578   5.220   3.329   1.342  0.6771  0.0984 -0.5229
   39MOL    C6314579   5.144   3.386   1.222  0.0248 -0.2841 -0.5602
   39MOL    C6414580   5.076   3.522   1.257 -0.6515 -0.2683  0.0756
   39MOL    O6514581   5.505   3.358   1.250  0.2464 -0.5626  0.1609
   39MOL    H6614582   5.618   3.142   1.234  0.7347 -1.2584  0.2354
   39MOL    H6714583   5.477   3.046   1.190  0.2435 -0.3502 -1.3124
   39MOL    H6814584   5.374   3.266   1.105 -2.2566  0.2733  1.5481
   39MOL    H6914585   5.368   3.186   1.396  0.4121  1.6932  0.0348
   39MOL    H7014586   5.269   3.129   1.253  1.9999 -2.0256  1.3768
   39MOL    H7114587   5.275   3.406   1.395  0.4326 -0.4190  0.4984
   39MOL    H7214588   5.155   3.283   1.418  0.7734 -2.6697 -2.0387
   39MOL    H7314589   5.067   3.321   1.180  1.1879  0.1828 -3.5534
   39MOL    H7414590   5.210   3.400   1.136 -0.2398 -0.4006 -0.7809
   39MOL    H7514591   5.145   3.602   1.231  0.0916 -1.3668 -1.3886
   39MOL    H7614592   4.991   3.541   1.191 -0.2128 -1.2506 -0.7940
   39MOL    H7714593   5.056   3.538   1.363  1.3198 -3.8980  1.0995
   39MOL    C7814594   5.535   3.447   1.143  0.6755  0.0333  0.1699
   39MOL    C7914595   5.640   3.554   1.188  0.0673 -0.3517  0.5831
   39MOL    C8014596   5.607   3.682   1.101  0.0192 -0.1416 -0.0397
   39MOL    C8114597   5.668   3.805   1.169 -0.3414 -0.5573  0.3170
   39MOL    C8214598   5.615   3.933   1.109 -1.0560  0.5116 -0.0117
   39MOL    C8314599   5.700   4.049   1.164  0.4506 -0.1359 -0.2086
   39MOL    O8414600   5.768   3.506   1.152 -0.6415  0.2186  0.5553
   39MOL    H8514601   5.446   3.496   1.106 -0.3180 -1.6131  0.3369
   39MOL    H8614602   5.586   3.379   1.075 -0.7842  0.1758 -1.0899
   39MOL    H8714603   5.630   3.587   1.291 -0.2070  1.5986 -0.0535
   39MOL    H8814604   5.638   3.676   0.997 -1.5351  1.3945 -0.6111
   39MOL    H8914605   5.500   3.696   1.112  0.5922  3.5657  1.6655
   39MOL    H9014606   5.776   3.787   1.165 -0.0107  1.6503 -1.2876
   39MOL    H9114607   5.656   3.814   1.277  1.1820  1.5959  0.3204
   39MOL    H9214608   5.628   3.935   1.001 -0.1601  0.7298  0.1014
   39MOL    H9314609   5.510   3.943   1.138 -0.5148  0.3240  2.0869
   39MOL    H9414610   5.677   4.141   1.111 -0.6151 -1.4461 -2.0616
   39MOL    H9514611   5.804   4.022   1.145  0.7450  0.2483  0.7858
   39MOL    H9614612   5.686   4.070   1.270 -2.2695  1.3689 -0.8134
   39MOL    C9714613   5.850   3.486   1.267  0.0287 -0.3994 -0.5439
   39MOL    C9814614   5.996   3.442   1.223  0.2875 -0.1236 -0.5094
   39MOL    C9914615   5.972   3.304   1.142 -0.5102 -0.2673 -0.0302
   39MOL   C10014616   6.105   3.264   1.079 -0.0796  0.4370 -0.5846
   39MOL   C10114617   6.129   3.113   1.067  0.5357 -0.3009 -1.4246
   39MOL   C10214618   6.052   3.050   0.952 -0.7060 -0.3969  0.1881
   39MOL   O10314619   6.052   3.532   1.133  0.2898  0.1280 -0.0360
   39MOL   H10414620   5.805   3.410   1.332  1.6661 -0.9564 -0.0521
   39MOL   H10514621   5.838   3.566   1.340 -0.5578  0.1364 -1.2156
   39MOL   H10614622   6.060   3.431   1.311  1.4466  1.0239 -1.1947
   39MOL   H10714623   5.894   3.302   1.066 -0.4974  0.1086 -0.0503
   39MOL   H10814624   5.949   3.232   1.221  0.2404  0.8156  1.1850
   39MOL   H10914625   6.187   3.321   1.122  0.0506  1.6643 -2.4049
   39MOL   H11014626   6.110   3.302   0.977 -0.4289  0.4885 -0.5832
   39MOL   H11114627   6.115   3.057   1.160 -0.1932  1.9091 -0.1545
   39MOL   H11214628   6.237   3.110   1.053  0.9573  2.1767  0.7398
   39MOL   H11314629   5.946   3.075   0.952 -1.1745 -2.1755 -1.7031
   39MOL   H11414630   6.078   3.099   0.859  1.1728 -0.4717  0.6698
   39MOL   H11514631   6.073   2.943   0.955 -0.5881 -0.3888 -0.4313
   39MOL   C11614632   6.064   3.652   1.195 -0.0512  0.0091 -0.1910
   39MOL   C11714633   6.132   3.754   1.094  0.7739 -0.2587  0.0183
   39MOL   C11814634   6.199   3.869   1.176 -0.4034 -0.0211 -0.5544
   39MOL   C11914635   6.318   3.926   1.105  0.1395 -0.2102  1.1965
   39MOL   C12014636   6.405   4.012   1.192  0.3059 -0.1971  0.2668
   39MOL   C12114637   6.503   4.098   1.114 -0.5466  0.7731 -0.0390
   39MOL   O12214638   6.032   3.814   1.008 -0.5740  0.5477  0.1647
   39MOL   H12314639   5.971   3.703   1.220  0.3440  0.0463  1.2140
   39MOL   H12414640   6.127   3.640   1.283 -1.4638  1.9393  1.1402
   39MOL   H12514641   6.213   3.695   1.051 -0.1877 -1.3808 -0.3009
   39MOL   H12614642   6.130   3.947   1.208 -1.0538 -1.0746  0.6683
   39MOL   H12714643   6.245   3.824   1.264  1.4676  1.6647 -0.6211
   39MOL   H12814644   6.284   3.979   1.015 -0.9084 -1.1427  1.0332
   39MOL   H12914645   6.369   3.840   1.062 -0.6494 -0.6465  1.1356
   39MOL   H13014646   6.342   4.080   1.250  0.4093 -0.2981  0.4978
   39MOL   H13114647   6.463   3.942   1.252 -0.7148 -0.8485  0.4942
   39MOL   H13214648   6.553   4.043   1.034  1.6064  2.0028  0.4249
   39MOL   H13314649   6.443   4.177   1.069 -1.3473 -0.3063 -0.9034
   39MOL   H13414650   6.584   4.135   1.177  0.6886 -1.5340 -0.1922
   39MOL   C13514651   5.984   3.720   0.908 -0.4563 -0.3977  0.1809
   39MOL   C13614652   5.890   3.799   0.818  0.5362  0.1246 -0.4787
   39MOL   C13714653   5.791   3.710   0.736 -0.1879 -0.3084  0.1939
   39MOL   C13814654   5.700   3.790   0.640  0.1080 -0.0315  0.2007
   39MOL   C13914655   5.571   3.707   0.603  0.0055  0.0911 -0.1176
   39MOL   C14014656   5.484   3.788   0.499  0.5025 -0.2361 -0.1174
   39MOL   O14114657   5.961   3.862   0.711  0.2042  0.7576  0.0941
   39MOL   H14214658   6.068   3.677   0.855 -0.1991  2.8068 -2.1198
   39MOL   H14314659   5.927   3.644   0.962 -0.3848  0.4208  1.4441
   39MOL   H14414660   5.839   3.881   0.869  1.9041 -0.2946  1.6207
   39MOL   H14514661   5.847   3.634   0.681 -2.1363 -0.3682 -1.7800
   39MOL   H14614662   5.731   3.650   0.804 -1.1685 -0.1797 -0.5527
   39MOL   H14714663   5.753   3.804   0.546  0.8998 -1.7340  0.3820
   39MOL   H14814664   5.669   3.880   0.693 -0.3646  0.4279 -0.8280
   39MOL   H14914665   5.515   3.690   0.695  0.8629  0.8798  0.5492
   39MOL   H15014666   5.597   3.606   0.572 -0.3720 -0.3567  1.0129
   39MOL   H15114667   5.473   3.892   0.528  1.5335 -0.1188 -0.1581
   39MOL   H15214668   5.528   3.786   0.399  0.8131  3.8737 -0.1203
   39MOL   H15314669   5.381   3.750   0.503  0.5861 -0.2883  1.6474
   39MOL   C15414670   6.005   3.997   0.741 -0.2023 -0.6010  1.4077
   39MOL   C15514671   5.911   4.096   0.664  0.2641  0.5052 -0.0290
   39MOL   C15614672   5.893   4.231   0.739 -0.1733 -0.4160 -0.4106
   39MOL   C15714673   5.821   4.214   0.875 -0.0273 -0.1310  0.0149
   39MOL   C15814674   5.818   4.332   0.962 -0.0794 -0.3663 -0.0286
   39MOL   C15914675   5.951   4.349   1.036 -0.2498  0.3579 -0.5138
   39MOL   O16014676   5.962   4.121   0.538  0.1276 -0.5381  0.0546
   39MOL   H16114677   6.105   3.996   0.696 -0.1216  0.6565  1.5239
   39MOL   H16214678   6.025   4.002   0.848  0.6086 -2.7093  1.3715
   39MOL   H16314679   5.813   4.051   0.651 -0.2064  1.7157 -0.7865
   39MOL   H16414680   5.840   4.304   0.678 -0.9825  1.5498  2.5137
   39MOL   H16514681   5.994   4.271   0.749  0.8827 -3.5413  2.1985
   39MOL   H16614682   5.868   4.132   0.929 -0.1142 -2.0848 -2.7786
   39MOL   H16714683   5.718   4.188   0.853 -0.3822  1.0504  0.2545
   39MOL   H16814684   5.803   4.415   0.892 -3.2562 -1.7912 -1.1188
   39MOL   H16914685   5.733   4.333   1.030 -0.9260 -2.9993 -1.0037
   39MOL   H17014686   5.956   4.254   1.090 -0.5190  0.1634 -0.8349
   39MOL   H17114687   5.955   4.429   1.110  0.3686 -0.1213 -0.0136
   39MOL   H17214688   6.045   4.353   0.982 -0.9594  1.8718 -1.6550
   39MOL   C17314689   5.951   4.017   0.442 -0.0753 -0.0298  0.0451
   39MOL   C17414690   5.995   4.092   0.314  0.1146  0.3135 -0.0492
   39MOL   C17514691   5.989   3.998   0.196 -0.3971  0.2702 -0.8446
   39MOL   C17614692   6.046   4.066   0.066  0.1022 -0.1234  0.0045
   39MOL   C17714693   6.036   3.975   7.730  0.5407  0.2853 -0.3358
   39MOL   C17814694   6.157   3.882   7.729  0.2558  0.1418 -0.4022
   39MOL   O17914695   5.915   4.206   0.301 -0.3328 -0.3994 -0.1133
   39MOL   H18014696   5.847   3.985   0.435 -0.4181  0.2576  3.3414
   39MOL   H18114697   6.015   3.935   0.475  1.0860  0.4902 -0.8640
   39MOL   H18214698   6.100   4.118   0.317  0.1548  0.1818 -0.3325
   39MOL   H18314699   6.041   3.903   0.205 -1.4832 -0.3059 -0.5805
   39MOL   H18414700   5.887   3.965   0.175  0.3413 -1.4051 -1.8741
   39MOL   H18514701   5.977   4.147   0.042 -3.1139 -3.1027 -1.3952
   39MOL   H18614702   6.147   4.107   0.070 -0.4366  1.2330 -0.1597
   39MOL   H18714703   5.941   3.920   7.728  1.9832 -2.2908  0.1499
   39MOL   H18814704   6.020   4.039   7.644 -2.5267 -0.9205 -0.7528
   39MOL   H18914705   6.131   3.778   7.710 -0.1894  0.2485 -0.3758
   39MOL   H19014706   6.208   3.875   0.040 -1.1686 -2.1124  0.2216
   39MOL   H19114707   6.223   3.909   7.647 -2.0113 -0.4006 -2.4474
   39MOL   C19214708   5.973   4.333   0.278  0.4756 -0.3460  0.1092
   39MOL   C19314709   5.861   4.437   0.277  0.5318  0.0058  0.3202
   39MOL   C19414710   5.886   4.563   0.195  0.5935 -0.2294 -0.2126
   39MOL   C19514711   5.762   4.640   0.144  0.5967 -0.4886 -0.0940
   39MOL   C19614712   5.780   4.746   0.039  0.1496 -0.5805  0.1827
   39MOL   C19714713   5.633   4.810   0.035  0.4816  0.4756  0.1635
   39MOL   O19814714   5.843   4.480   0.409 -0.0429 -0.2609  0.3429
   39MOL   H19914715   6.035   4.363   0.363  1.3736 -0.1913 -0.5995
   39MOL   H20014716   6.036   4.341   0.190  0.6305  1.2238  0.3443
   39MOL   H20114717   5.777   4.388   0.228  0.8786 -0.2874  0.0121
   39MOL   H20214718   5.951   4.632   0.249  1.9493 -2.0320  0.5148
   39MOL   H20314719   5.940   4.536   0.104  0.1663  0.8101 -0.7826
   39MOL   H20414720   5.705   4.684   0.226 -1.2771  0.8974 -2.0702
   39MOL   H20514721   5.684   4.571   0.110  0.6176  0.1892 -1.5737
   39MOL   H20614722   5.865   4.810   0.061  0.0778 -0.4549  0.0998
   39MOL   H20714723   5.797   4.694   7.730  1.4853 -0.0489  0.1276
   39MOL   H20814724   5.559   4.736   0.006  1.0009  0.1135 -0.2488
   39MOL   H20914725   5.591   4.854   0.126 -0.5749 -0.5212  0.1692
   39MOL   H21014726   5.642   4.889   7.746  0.6238 -0.8558 -1.2462
   39MOL   C21114727   5.702   4.496   0.439 -0.3236 -0.3665 -0.5021
   39MOL   C21214728   5.685   4.588   0.568  0.2743  0.0099  0.0033
   39MOL   C21314729   5.567   4.547   0.645  0.2355  0.6553  0.2888
   39MOL   C21414730   5.551   4.613   0.787 -0.2661  0.6544  0.2311
   39MOL   C21514731   5.442   4.554   0.870  0.0594 -0.2546  0.5363
   39MOL   C21614732   5.452   4.600   1.016  0.4604 -0.4709 -0.1270
   39MOL   O21714733   5.673   4.723   0.524 -0.4603  0.3642  0.4321
   39MOL   H21814734   5.664   4.396   0.460 -1.2712 -0.3993 -2.3173
   39MOL   H21914735   5.636   4.532   0.360 -2.9075 -0.0701  1.7306
   39MOL   H22014736   5.771   4.566   0.631 -1.2670 -0.4155  1.9831
   39MOL   H22114737   5.474   4.560   0.591  0.4797  0.0152 -0.2920
   39MOL   H22214738   5.562   4.439   0.655  1.5944  0.7888  2.9835
   39MOL   H22314739   5.644   4.597   0.842 -0.8519 -0.0449  1.0321
   39MOL   H22414740   5.524   4.719   0.784 -2.0918  0.1723 -1.2877
   39MOL   H22514741   5.347   4.583   0.825  1.1450  0.2966 -1.4526
   39MOL   H22614742   5.461   4.447   0.875 -0.0698 -0.2639  0.8691
   39MOL   H22714743   5.364   4.567   1.072  1.2443 -0.5113  1.1073
   39MOL   H22814744   5.459   4.709   1.017  1.6802 -0.5311 -1.8189
   39MOL   H22914745   5.540   4.573   1.073 -1.4929 -2.4387  2.0831
   39MOL   C23014746   5.802   4.775   0.515 -0.2595  0.0871  0.1899
   39MOL   C23114747   5.795   4.911   0.441  0.2363 -0.8333  0.4143
   39MOL   C23214748   5.935   4.949   0.387 -0.3451  0.6802 -0.4231
   39MOL   C23314749   5.926   5.056   0.268  0.0750 -0.3448  0.1750
   39MOL   C23414750   6.063   5.092   0.204 -0.0627 -0.1520 -1.1478
   39MOL   C23514751   6.138   4.977   0.139 -0.0407 -0.0840  0.4944
   39MOL   O23614752   5.772   5.014   0.538 -0.6696  0.2210 -0.1559
   39MOL   H23714753   5.848   4.797   0.611  0.3453 -0.1674 -0.0345
   39MOL   H23814754   5.861   4.711   0.450  0.2234  0.4749  0.2389
   39MOL   H23914755   5.735   4.901   0.351  1.0851 -0.7996 -0.1586
   39MOL   H24014756   5.994   4.860   0.363 -1.1418 -0.5151  1.8973
   39MOL   H24114757   6.002   4.990   0.463  1.0742 -1.5952 -0.4055
   39MOL   H24214758   5.881   5.153   0.290  2.4405  1.6334 -3.3276
   39MOL   H24314759   5.867   5.012   0.188 -0.5970 -1.2698  1.1617
   39MOL   H24414760   6.054   5.176   0.135  1.6984  0.2138 -0.9544
   39MOL   H24514761   6.125   5.133   0.283  1.1532 -1.1288 -1.5684
   39MOL   H24614762   6.209   5.023   0.071 -1.4967 -0.3189 -1.2139
   39MOL   H24714763   6.081   4.918   0.068  0.1590  2.2843 -1.7097
   39MOL   H24814764   6.199   4.919   0.208  0.7059 -1.9152 -1.6594
   39MOL   C24914765   5.650   5.012   0.610 -0.2263  0.5247  0.1348
   39MOL   C25014766   5.615   5.144   0.689 -0.6115 -0.5950  0.5603
   39MOL   C25114767   5.743   5.207   0.753  0.2044 -0.5816 -0.7110
   39MOL   C25214768   5.716   5.358   0.784 -0.9160 -0.4673  0.5478
   39MOL   C25314769   5.846   5.426   0.808  0.8729  0.1735  0.0930
   39MOL   C25414770   5.837   5.565   0.876 -0.2119 -1.0753  0.5182
   39MOL   O25514771   5.509   5.120   0.777  0.2473  0.0927  0.4403
   39MOL   H25614772   5.574   4.976   0.541  0.4784 -0.0993 -0.3178
   39MOL   H25714773   5.664   4.933   0.683 -2.7777  1.3282  1.5300
   39MOL   H25814774   5.581   5.206   0.606 -0.0314 -0.1461  0.6529
   39MOL   H25914775   5.771   5.157   0.846  0.3984  0.9106  0.0397
   39MOL   H26014776   5.832   5.208   0.690  0.4673 -3.0840 -0.4107
   39MOL   H26114777   5.680   5.411   0.695  0.7534 -0.2789 -0.0365
   39MOL   H26214778   5.646   5.369   0.867 -0.6887  0.0261  0.6763
   39MOL   H26314779   5.904   5.364   0.877 -2.6351 -2.1540  1.1573
   39MOL   H26414780   5.907   5.440   0.720  1.0555  1.0353  0.3505
   39MOL   H26514781   5.798   5.643   0.811 -1.2999 -1.1840  1.0358
   39MOL   H26614782   5.935   5.593   0.917 -0.6200 -2.2091  2.3204
   39MOL   H26714783   5.776   5.562   0.966  0.3076 -2.3000  0.8389
   39MOL   C26814784   5.390   5.115   0.703  0.4578 -0.2444 -0.5299
   39MOL   C26914785   5.274   5.103   0.803 -0.4978  0.0688  0.6437
   39MOL   C27014786   5.159   5.030   0.738  0.2301 -0.7313  0.2098
   39MOL   C27114787   5.039   5.021   0.830 -0.5158 -0.6787 -0.5559
   39MOL   C27214788   4.917   4.941   0.777 -0.7111  0.9685  0.8324
   39MOL   C27314789   4.793   4.960   0.858  0.0916  0.0934 -0.2395
   39MOL   O27414790   5.243   5.237   0.842 -0.0713 -0.1059 -0.1219
   39MOL   H27514791   5.386   5.028   0.637  0.1545 -0.1967 -0.5746
   39MOL   H27614792   5.382   5.214   0.657  0.2046  0.5912  1.2726
   39MOL   H27714793   5.308   5.035   0.881 -1.2351  0.6342  1.4775
   39MOL   H27814794   5.121   5.087   0.653 -1.9280 -0.7225  1.1458
   39MOL   H27914795   5.190   4.936   0.692 -0.3748 -0.7772 -0.1133
   39MOL   H28014796   5.078   4.980   0.923  1.4518  1.6415 -0.3056
   39MOL   H28114797   5.001   5.121   0.850  3.4519  0.2226  3.0843
   39MOL   H28214798   4.891   4.968   0.675 -0.9573  0.5385  0.7819
   39MOL   H28314799   4.931   4.833   0.771  0.4911  1.0842  1.2576
   39MOL   H28414800   4.791   4.915   0.958 -1.5342  2.7035  0.9487
   39MOL   H28514801   4.771   5.065   0.876  1.4766 -0.0866  2.9159
   39MOL   H28614802   4.703   4.911   0.822  0.0356 -0.8925  1.1933
   39MOL   C28714803   5.331   5.295   0.938 -0.6431  0.6237  0.8561
   39MOL   C28814804   5.296   5.448   0.952  0.7439 -0.0895  0.0472
   39MOL   C28914805   5.418   5.510   1.026  0.0971 -0.9277  0.5725
   39MOL   C29014806   5.421   5.664   1.018 -0.0316 -1.0430 -0.0016
   39MOL   C29114807   5.545   5.728   1.087 -0.5280  0.4464 -0.3954
   39MOL   C29214808   5.560   5.879   1.053 -0.4170 -0.1946  0.6552
   39MOL   O29314809   5.197   5.459   1.046 -0.7684  0.2082 -0.6046
   39MOL   H29414810   5.435   5.282   0.908 -0.7956  1.3375 -0.0283
   39MOL   H29514811   5.307   5.240   1.028 -1.6202 -3.2047 -1.6416
   39MOL   H29614812   5.270   5.499   0.859 -2.4487 -2.3738 -0.4082
   39MOL   H29714813   5.413   5.471   1.127 -0.0865  1.6345  1.6060
   39MOL   H29814814   5.505   5.478   0.970  1.2216 -1.2441  2.4780
   39MOL   H29914815   5.428   5.703   0.917  0.7887  1.0303  0.8307
   39MOL   H30014816   5.336   5.721   1.054 -0.5447 -0.1568 -2.4863
   39MOL   H30114817   5.636   5.673   1.065 -0.8808 -0.0009 -0.7469
   39MOL   H30214818   5.523   5.713   1.193 -0.1822  2.6016 -0.0065
   39MOL   H30314819   5.655   5.919   1.089 -1.3810  0.9733  2.0026
   39MOL   H30414820   5.570   5.887   0.945  0.5840 -3.7982  0.4271
   39MOL   H30514821   5.488   5.951   1.094  3.6307  4.0936  0.6718
   39MOL   C30614822   5.078   5.511   1.006  0.1598  0.9992 -0.5128
   39MOL   C30714823   4.964   5.408   0.998  0.1005  0.1874  0.3904
   39MOL   C30814824   4.826   5.471   0.972 -0.5048  0.1075 -0.0694
   39MOL   C30914825   4.701   5.382   0.949 -0.0886  0.2087  0.7210
   39MOL   C31014826   4.582   5.453   0.877 -0.3079  0.3423 -0.3117
   39MOL   C31114827   4.450   5.381   0.896  0.1735 -0.0711  0.2487
   39MOL   O31214828   4.954   5.338   1.113  0.0487 -0.3341 -0.4520
   39MOL   H31314829   5.043   5.582   1.081  2.8022 -0.0129  1.7368
   39MOL   H31414830   5.081   5.573   0.917  2.1972 -0.5968 -1.6150
   39MOL   H31514831   4.996   5.342   0.917 -1.3415 -3.1240  2.3904
   39MOL   H31614832   4.842   5.543   0.892 -0.2061  2.0474  1.6904
   39MOL   H31714833   4.793   5.529   1.058 -2.0789 -0.9558  0.0638
   39MOL   H31814834   4.727   5.294   0.891  0.9608  0.0572  1.4089
   39MOL   H31914835   4.668   5.351   1.048  1.6326 -0.6300  1.0423
   39MOL   H32014836   4.584   5.472   0.770  0.7281  0.1251 -0.3386
   39MOL   H32114837   4.557   5.551   0.918 -3.6453  0.2071 -1.8452
   39MOL   H32214838   4.365   5.409   0.834 -0.6511  0.0365  1.4105
   39MOL   H32314839   4.454   5.273   0.883  0.9059  0.0881 -0.9190
   39MOL   H32414840   4.420   5.382   1.001 -0.7155  2.8696  0.0024
   39MOL   C32514841   4.982   5.199   1.103 -0.5412  0.1425  0.0048
   39MOL   C32614842   5.024   5.127   1.234 -0.2337  0.5165 -0.2458
   39MOL   C32714843   5.104   5.002   1.200  0.2523  0.0415 -1.0466
   39MOL   C32814844   5.171   4.939   1.327 -0.1948  0.5930 -0.4828
   39MOL   C32914845   5.256   4.818   1.284 -0.0006  0.3171  0.3274
   39MOL   C33014846   5.304   4.728   1.402  0.1969  1.3342  0.6978
   39MOL   O33114847   4.906   5.081   1.296 -0.1179 -0.2418  0.1817
   39MOL   H33214848   5.068   5.194   1.035 -0.3805  0.7935  0.1535
   39MOL   H33314849   4.900   5.144   1.058 -0.7539  0.3629  0.1257
   39MOL   H33414850   5.082   5.202   1.290  1.2725 -0.8484  0.0472
   39MOL   H33514851   5.045   4.927   1.147 -0.7861 -0.5842  0.9316
   39MOL   H33614852   5.179   5.024   1.124  0.1637 -1.8970 -1.7300
   39MOL   H33714853   5.219   5.023   1.378  1.7546  1.3396 -3.3717
   39MOL   H33814854   5.082   4.912   1.382  0.6023  1.8662  1.4823
   39MOL   H33914855   5.205   4.746   1.220  0.7907 -0.5704  0.6772
   39MOL   H34014856   5.335   4.866   1.226 -0.4690 -1.9440 -2.2814
   39MOL   H34114857   5.225   4.701   1.472  2.4776  3.5205  4.2353
   39MOL   H34214858   5.349   4.636   1.363 -1.0884  1.2519 -0.6384
   39MOL   H34314859   5.379   4.773   1.466  1.9116 -0.2205 -0.1696
   39MOL   C34414860   4.849   5.175   1.399 -0.9269  0.3767  0.7476
   39MOL   C34514861   4.729   5.117   1.476  0.6362 -0.2146  0.1327
   39MOL   C34614862   4.701   5.182   1.614 -0.2616 -0.1119  0.4733
   39MOL   C34714863   4.586   5.129   1.697  0.6979  0.4327  0.0695
   39MOL   C34814864   4.543   5.204   1.821  0.4383 -1.1022  0.1035
   39MOL   C34914865   4.665   5.229   1.908  0.5149 -0.7699 -0.6797
   39MOL   O35014866   4.612   5.132   1.406  0.3358 -0.0382  0.2371
   39MOL   H35114867   4.827   5.274   1.360  0.5097  0.5623  0.3822
   39MOL   H35214868   4.933   5.183   1.468 -0.9809  0.8313  0.7615
   39MOL   H35314869   4.732   5.010   1.496 -0.5353  0.0215  1.6590
   39MOL   H35414870   4.693   5.289   1.598  2.7884 -0.4263 -4.1005
   39MOL   H35514871   4.789   5.171   1.678  0.3041  3.4013  0.4028
   39MOL   H35614872   4.605   5.024   1.720  0.6368  0.4187  0.0589
   39MOL   H35714873   4.497   5.130   1.634  0.4178  1.7043  0.4846
   39MOL   H35814874   4.458   5.156   1.869 -0.5713 -0.8970 -1.4380
   39MOL   H35914875   4.501   5.302   1.796 -2.2255 -2.6110 -1.5538
   39MOL   H36014876   4.722   5.319   1.885 -1.9479  0.9183 -0.3414
   39MOL   H36114877   4.727   5.139   1.912 -0.5305 -1.4987 -0.5795
   39MOL   H36214878   4.634   5.239   2.012  1.9647  0.6276 -0.3733
   39MOL   C36314879   4.583   5.032   1.305  0.0529  0.2358  0.9157
   39MOL   C36414880   4.425   5.021   1.296  0.1192  0.4084  0.5893
   39MOL   C36514881   4.345   5.006   1.426  0.3102 -0.3785 -0.0327
   39MOL   C36614882   4.403   4.893   1.512 -0.0077 -0.1149  0.2554
   39MOL   C36714883   4.315   4.886   1.634 -0.7611 -0.6974  0.1737
   39MOL   C36814884   4.358   4.784   1.741  0.1063 -0.1397 -0.4008
   39MOL   O36914885   4.398   5.145   1.233  0.3193  0.0819 -0.0592
   39MOL   H37014886   4.628   4.936   1.331 -0.6640 -0.8007 -1.5501
   39MOL   H37114887   4.635   5.064   1.215 -0.9867  1.7796  0.8394
   39MOL   H37214888   4.398   4.947   1.220  0.4083  2.4491 -1.5761
   39MOL   H37314889   4.334   5.102   1.477  0.3207  0.0301 -0.7777
   39MOL   H37414890   4.246   4.967   1.404 -0.2954  0.1842  1.6135
   39MOL   H37514891   4.419   4.806   1.448  1.3569  0.2987  0.0236
   39MOL   H37614892   4.508   4.899   1.542  0.6390 -2.4801 -1.3729
   39MOL   H37714893   4.306   4.984   1.680 -0.7448  0.3353 -1.9802
   39MOL   H37814894   4.214   4.856   1.610 -1.4318  2.0750 -0.5747
   39MOL   H37914895   4.298   4.694   1.727 -0.7644  0.3078  0.3858
   39MOL   H38014896   4.466   4.768   1.736  0.0596 -1.1772  1.5646
   39MOL   H38114897   4.344   4.830   1.838 -0.9321  0.4420 -0.8228
   39MOL   H38214898   4.454   5.207   1.277  0.8372  1.6077 -2.7572
   40MOL     C114899   0.619   7.538   3.192 -0.2902 -0.4374  0.0616
   40MOL     C214900   0.582   7.458   3.065 -0.3638  0.0977 -0.1447
   40MOL     C314901   0.461   7.372   3.092  0.0324 -0.5381 -0.3343
   40MOL     C414902   0.332   7.435   3.147 -0.1824  0.1190 -0.0436
   40MOL     C514903   0.217   7.339   3.169 -0.3177 -0.3122  0.6156
   40MOL     C614904   0.095   7.396   3.257 -0.0988 -0.7407  0.3470
   40MOL     O714905   0.571   7.552   2.968 -0.6383  0.3464 -0.0315
   40MOL     H814906   0.547   7.616   3.220  1.8479  1.6425 -0.1199
   40MOL     H914907   0.714   7.587   3.176  0.0983 -2.2150 -3.6117
   40MOL    H1014908   0.668   7.399   3.033 -0.5769  0.0781 -0.6749
   40MOL    H1114909   0.446   7.309   3.005 -0.7353 -0.3105 -0.3728
   40MOL    H1214910   0.479   7.309   3.179  1.9591  1.7442  0.9770
   40MOL    H1314911   0.350   7.472   3.248  0.7766 -2.8643  0.9416
   40MOL    H1414912   0.310   7.522   3.086 -2.5577 -0.4195  0.0057
   40MOL    H1514913   0.171   7.329   3.070 -0.8728  0.1346  0.8256
   40MOL    H1614914   0.250   7.238   3.191 -0.0347 -0.3237  0.1607
   40MOL    H1714915   0.131   7.436   3.351  0.5342  0.0671 -0.2361
   40MOL    H1814916   0.045   7.479   3.208  0.8393 -0.1754  0.3419
   40MOL    H1914917   0.011   7.329   3.276  0.5878 -2.7113 -3.0359
   40MOL    H2014918   0.638   7.472   3.277  0.6024 -2.0571 -1.3683
   40MOL    C2114919   0.562   7.507   2.829 -0.3998  0.5526  0.4561
   40MOL    C2214920   0.527   7.631   2.744 -0.2425  0.1759  0.1361
   40MOL    C2314921   0.570   7.612   2.599 -0.9917  0.4281  0.2738
   40MOL    C2414922   0.516   7.714   2.492 -0.6740  0.0819 -0.2902
   40MOL    C2514923   0.607   7.701   2.362  1.0071 -0.6687 -0.4869
   40MOL    C2614924   0.551   7.785   2.245 -1.1895 -0.7181  0.1423
   40MOL    O2714925   0.383   7.656   2.747 -0.0411  0.1997 -0.2996
   40MOL    H2814926   0.657   7.464   2.796 -0.4832  0.7188 -0.0069
   40MOL    H2914927   0.477   7.441   2.813 -0.7489  0.9066  0.8649
   40MOL    H3014928   0.572   7.722   2.784 -1.8242  0.5759  1.0347
   40MOL    H3114929   0.529   7.515   2.573 -1.8690  0.4655  1.4753
   40MOL    H3214930   0.679   7.613   2.597 -0.9738  1.0678  1.0933
   40MOL    H3314931   0.525   0.034   2.520  0.5659  0.0804 -0.6627
   40MOL    H3414932   0.411   7.698   2.466 -1.0769  0.1142  1.2879
   40MOL    H3514933   0.710   7.730   2.380  0.8326 -0.8556  0.8554
   40MOL    H3614934   0.618   7.594   2.344 -1.1561 -0.5696 -2.7414
   40MOL    H3714935   0.469   7.735   2.194 -1.2157 -0.1851 -0.3450
   40MOL    H3814936   0.625   0.028   2.170 -0.4491  0.7936  1.4107
   40MOL    H3914937   0.500   0.092   2.272  0.4509 -0.4162  2.4212
   40MOL    C4014938   0.334   7.755   2.842  0.0679 -0.5927  0.1587
   40MOL    C4114939   0.325   0.112   2.789 -0.3056  0.2724 -0.1881
   40MOL    C4214940   0.324   0.224   2.901  0.7942 -0.3329  0.4180
   40MOL    C4314941   0.315   0.361   2.842  0.0901 -0.0975  0.0896
   40MOL    C4414942   0.244   0.462   2.940  0.5054 -0.0809 -0.5775
   40MOL    C4514943   0.230   0.601   2.882 -0.2765 -0.0681  0.1904
   40MOL    O4614944   0.198   0.128   2.726 -0.1359  0.1590  0.3565
   40MOL    H4714945   0.380   7.747   2.941  0.3703  0.2905  0.0937
   40MOL    H4814946   0.229   7.741   2.864 -0.1756 -0.1489 -0.7089
   40MOL    H4914947   0.407   0.129   2.719 -0.3652 -0.7880 -0.5175
   40MOL    H5014948   0.243   0.218   2.974  1.3331  2.4659  1.2721
   40MOL    H5114949   0.416   0.215   2.957  0.9554 -1.4450 -0.0151
   40MOL    H5214950   0.248   0.354   2.757  2.2960  3.1372 -2.0196
   40MOL    H5314951   0.415   0.399   2.820  0.7224 -1.6350  0.2522
   40MOL    H5414952   0.151   0.418   2.973  0.9685 -1.8628 -1.5662
   40MOL    H5514953   0.305   0.455   3.030 -0.1826 -1.4946 -0.1988
   40MOL    H5614954   0.206   0.675   2.959  1.9283  0.3512  0.5075
   40MOL    H5714955   0.327   0.637   2.849 -0.7212  0.3934 -0.6496
   40MOL    H5814956   0.154   0.630   2.809  0.7215 -1.1388 -1.2854
   40MOL    C5914957   0.198   0.130   2.589 -0.1332 -0.4181 -0.1358
   40MOL    C6014958   0.065   0.142   2.517 -0.4029 -0.0996 -0.3516
   40MOL    C6114959   0.085   0.230   2.394  0.1514  1.3696 -0.4516
   40MOL    C6214960   0.157   0.166   2.277 -0.0817 -0.3893 -0.2018
   40MOL    C6314961   0.168   0.258   2.151  0.6285  0.1989  0.2711
   40MOL    C6414962   0.238   0.194   2.031 -0.1525  0.3370  0.1511
   40MOL    O6514963   0.029   0.009   2.471  0.1528  0.6741 -0.1238
   40MOL    H6614964   0.235   0.030   2.565 -0.8316 -0.6600 -0.2181
   40MOL    H6714965   0.266   0.209   2.559  0.8295 -1.1717  0.0488
   40MOL    H6814966   0.001   0.185   2.593  0.1452  0.4521 -0.2018
   40MOL    H6914967   0.133   0.324   2.422  0.6220  1.3916 -1.3226
   40MOL    H7014968   7.777   0.274   2.361 -0.3782  1.8240  1.5603
   40MOL    H7114969   0.119   0.067   2.253 -1.0748  0.0905 -0.6283
   40MOL    H7214970   0.253   0.137   2.319 -0.1950  0.0219  0.3621
   40MOL    H7314971   0.236   0.339   2.175 -1.3463  2.1622 -0.5277
   40MOL    H7414972   0.079   0.311   2.115 -0.0599 -1.9454 -1.2726
   40MOL    H7514973   0.266   0.263   1.951  0.0959  2.3840  1.9752
   40MOL    H7614974   0.332   0.140   2.049  0.2856  1.4469  1.2337
   40MOL    H7714975   0.174   0.116   1.990  0.8661  0.3062 -1.4143
   40MOL    C7814976   7.680   7.770   2.480 -0.0803 -0.5680 -0.4422
   40MOL    C7914977   7.638   7.633   2.421  0.1111 -0.0725  0.4756
   40MOL    C8014978   7.490   7.623   2.379  0.3022  0.0497 -0.4770
   40MOL    C8114979   7.444   7.694   2.259  0.9568 -0.2269 -0.2409
   40MOL    C8214980   7.297   7.663   2.232 -0.2523 -0.4865  0.0531
   40MOL    C8314981   7.248   7.713   2.097 -0.1733  0.6828  0.4090
   40MOL    O8414982   7.657   7.530   2.518  0.1163 -0.6121  0.3044
   40MOL    H8514983   7.626   0.063   2.426  1.9854  2.3900  1.6170
   40MOL    H8614984   7.638   7.770   2.580  0.3222 -1.9948 -0.2669
   40MOL    H8714985   7.693   7.605   2.331  0.2168 -1.0426  0.8418
   40MOL    H8814986   7.468   7.517   2.371 -0.6621  0.1293  0.9025
   40MOL    H8914987   7.421   7.634   2.464  0.8916  0.6589 -0.0657
   40MOL    H9014988   7.510   7.664   2.178  0.3489  0.3935 -0.9769
   40MOL    H9114989   7.462   0.016   2.265  0.3652 -0.1058 -0.6344
   40MOL    H9214990   7.283   7.555   2.230 -0.0472 -0.4938 -1.2676
   40MOL    H9314991   7.240   7.699   2.318  0.4138 -1.0840  0.7541
   40MOL    H9414992   7.232   0.035   2.098 -0.6539  0.6286 -0.4654
   40MOL    H9514993   7.157   7.659   2.072  0.6119 -0.6227  0.3262
   40MOL    H9614994   7.321   7.703   2.016  0.7327  1.0550  1.1643
   40MOL    C9714995   0.006   7.495   2.546 -0.2189  0.2260 -0.0656
   40MOL    C9814996   0.015   7.366   2.620  0.3649  0.6983 -0.9237
   40MOL    C9914997   7.722   7.386   2.752  0.1488 -0.3026  0.1604
   40MOL   C10014998   7.748   7.270   2.850 -0.0938 -0.1793 -0.4254
   40MOL   C10114999   7.656   7.273   2.974  0.0564  0.1257 -0.1185
   40MOL   C10215000   7.695   7.157   3.073  0.6060  0.2471 -0.2027
   40MOL   O10315001   7.746   7.257   2.547 -0.7342  0.0640  0.6063
   40MOL   H10415002   0.054   7.571   2.607  0.4164 -1.1563  1.2063
   40MOL   H10515003   0.069   7.481   2.458  2.1295  2.0138  1.2572
   40MOL   H10615004   0.119   7.348   2.648 -0.5311 -0.6653  1.7260
   40MOL   H10715005   7.616   7.398   2.728 -0.9275 -1.1976  4.0570
   40MOL   H10815006   7.742   7.482   2.801  1.6370  0.1414 -1.2765
   40MOL   H10915007   0.062   7.276   2.894 -0.0160 -3.2196 -0.0787
   40MOL   H11015008   7.738   7.174   2.801  0.4020 -1.3342  1.6745
   40MOL   H11115009   7.555   7.276   2.933  0.6039  2.4192 -1.4286
   40MOL   H11215010   7.670   7.371   3.020 -0.5204  0.2004 -0.1060
   40MOL   H11315011   7.704   7.061   3.022 -1.2200  1.4729 -2.9638
   40MOL   H11415012   7.781   7.174   3.137  0.8575  1.3686 -0.8290
   40MOL   H11515013   7.608   7.144   3.138 -0.0714  0.7431 -0.9979
   40MOL   C11615014   0.035   7.223   2.433  0.0466 -0.7901  0.0153
   40MOL   C11715015   0.006   7.076   2.394 -0.7681  0.0991 -0.2303
   40MOL   C11815016   0.127   6.988   2.369  0.2758 -0.7494  0.1120
   40MOL   C11915017   0.092   6.843   2.361 -0.8394 -0.7487 -0.5432
   40MOL   C12015018   0.196   6.766   2.287 -0.3175  0.0355 -0.1440
   40MOL   C12115019   0.165   6.615   2.280 -0.8580 -0.1662 -0.0292
   40MOL   O12215020   7.710   7.080   2.279 -0.2840  0.5223  0.0868
   40MOL   H12315021   0.012   7.287   2.347 -0.9236 -0.9621  0.1347
   40MOL   H12415022   0.138   7.253   2.448  0.0520 -1.1151  0.6328
   40MOL   H12515023   7.744   7.028   2.480  2.5953 -0.2768  1.4945
   40MOL   H12615024   0.179   7.016   2.278  1.0030 -3.1110 -0.2500
   40MOL   H12715025   0.204   6.987   2.446  0.2037 -0.3394  0.1876
   40MOL   H12815026   7.785   6.826   2.306 -1.3969 -0.5806  0.3193
   40MOL   H12915027   0.074   6.817   2.466  0.3370 -1.1584 -0.4360
   40MOL   H13015028   0.198   6.797   2.182  0.3818  2.4506  0.5282
   40MOL   H13115029   0.295   6.781   2.331 -1.7071  3.0544  2.1580
   40MOL   H13215030   0.241   6.565   2.219 -1.5114  0.1081 -1.0860
   40MOL   H13315031   0.174   6.575   2.381 -0.6346 -0.6549 -0.2399
   40MOL   H13415032   0.063   6.607   2.243 -0.8889  0.1679 -0.0143
   40MOL   C13515033   7.572   7.090   2.305  0.2815 -0.3100 -0.4372
   40MOL   C13615034   7.486   7.075   2.177 -0.1257  0.0572 -0.5968
   40MOL   C13715035   7.531   6.961   2.089 -0.0485 -0.0952 -0.4206
   40MOL   C13815036   7.445   6.935   1.968 -0.1497  0.4282  0.4480
   40MOL   C13915037   7.484   6.804   1.893 -0.6415 -0.1102 -0.2349
   40MOL   C14015038   7.434   6.683   1.973  0.0457  0.1106  0.6605
   40MOL   O14115039   7.473   7.191   2.105  0.0607 -0.3435  1.2932
   40MOL   H14215040   7.557   7.006   2.373 -3.9907 -1.2318 -2.2916
   40MOL   H14315041   7.548   7.180   2.362  1.5714 -2.2349  3.2999
   40MOL   H14415042   7.390   7.058   2.224  1.1025 -0.9009  1.6697
   40MOL   H14515043   7.630   6.981   2.050 -0.6365  0.3916 -1.7072
   40MOL   H14615044   7.545   6.871   2.148 -0.6769 -0.8021 -1.3355
   40MOL   H14715045   7.454   7.018   1.898  0.2899 -0.2645 -0.3200
   40MOL   H14815046   7.338   6.934   1.990 -0.4221  0.4365 -0.8265
   40MOL   H14915047   7.589   6.787   1.870 -0.5158  1.5185 -0.9561
   40MOL   H15015048   7.436   6.806   1.795 -0.8936  0.1173 -0.1072
   40MOL   H15115049   7.460   6.583   1.939 -2.4604 -0.7324  1.1327
   40MOL   H15215050   7.473   6.681   2.074 -0.1689  2.0980  0.8179
   40MOL   H15315051   7.326   6.687   1.987  0.1143  0.2650  1.1529
   40MOL   C15415052   7.596   7.260   2.074 -0.1478  0.2132 -0.4302
   40MOL   C15515053   7.550   7.376   1.985 -0.5226  0.5845 -0.5443
   40MOL   C15615054   7.655   7.487   1.989  0.4360  0.6135  0.9978
   40MOL   C15715055   7.633   7.591   1.879  1.0161  0.7825  0.1488
   40MOL   C15815056   7.719   7.720   1.890  0.1635 -0.2549  0.1490
   40MOL   C15915057   7.685   0.034   2.005  0.0155  0.8777  0.6611
   40MOL   O16015058   7.536   7.330   1.850  0.5950 -0.1719 -0.4665
   40MOL   H16115059   7.666   7.189   2.030 -0.6609 -0.3519 -0.3254
   40MOL   H16215060   7.634   7.301   2.168 -0.8654 -0.8982  0.3444
   40MOL   H16315061   7.461   7.417   2.032  0.0655 -1.0417  2.0616
   40MOL   H16415062   7.751   7.437   1.984 -0.2853 -0.8478  1.5384
   40MOL   H16515063   7.666   7.531   2.088  1.7878  0.3655  0.9665
   40MOL   H16615064   7.528   7.618   1.883  1.1822  1.5653 -0.6082
   40MOL   H16715065   7.660   7.540   1.786 -1.3077 -0.9926  0.4118
   40MOL   H16815066   0.038   7.695   1.904 -0.1611 -0.9696  1.3312
   40MOL   H16915067   7.709   7.775   1.796  1.9583  1.2353  0.7877
   40MOL   H17015068   7.715   0.138   1.991  2.6204 -0.0426 -0.8709
   40MOL   H17115069   7.724   7.778   2.098 -0.7378 -1.4966 -0.0387
   40MOL   H17215070   7.579   0.045   2.025 -0.4060  1.4690 -1.7954
   40MOL   C17315071   7.411   7.299   1.814  0.0916 -0.4526  0.7243
   40MOL   C17415072   7.397   7.239   1.669  0.3251  0.4386  0.6056
   40MOL   C17515073   7.429   7.082   1.658 -0.3304  0.8285 -0.5620
   40MOL   C17615074   7.413   7.045   1.503 -0.4261  0.0847  0.1946
   40MOL   C17715075   7.519   7.117   1.417 -0.3382  0.4937  0.4639
   40MOL   C17815076   7.518   7.070   1.274 -0.3852 -0.4838  0.1325
   40MOL   O17915077   7.261   7.262   1.620  0.1698 -0.0069  0.3565
   40MOL   H18015078   7.368   7.399   1.804  0.9088 -0.3498 -1.9493
   40MOL   H18115079   7.378   7.227   1.889  1.6906 -2.1424 -0.1608
   40MOL   H18215080   7.467   7.301   1.614  0.8269 -0.2750  0.4293
   40MOL   H18315081   7.531   7.069   1.697 -0.0857  1.7397 -0.8832
   40MOL   H18415082   7.351   7.022   1.705  0.5909  1.2326  1.5730
   40MOL   H18515083   7.439   6.939   1.497  2.6216  0.7868  0.7043
   40MOL   H18615084   7.306   7.055   1.482 -0.1485  2.1889 -0.3208
   40MOL   H18715085   7.493   7.223   1.419 -1.2213  0.2624  1.9052
   40MOL   H18815086   7.615   7.095   1.462  0.6769  2.0799 -0.8827
   40MOL   H18915087   7.527   6.961   1.277 -2.4524 -0.6435  1.1526
   40MOL   H19015088   7.595   7.111   1.208 -0.7648  0.8629  0.5235
   40MOL   H19115089   7.427   7.099   1.223  0.2134 -1.6182 -1.6398
   40MOL   C19215090   7.238   7.385   1.546  0.2303 -0.0719 -0.3897
   40MOL   C19315091   7.098   7.394   1.503 -0.1772 -0.5655 -0.0819
   40MOL   C19415092   7.077   7.516   1.412  0.0941 -0.2280  0.6829
   40MOL   C19515093   6.941   7.504   1.342 -0.6151  0.3654  0.4817
   40MOL   C19615094   6.889   7.641   1.290 -0.5470 -0.3199 -0.1588
   40MOL   C19715095   6.754   7.626   1.234 -0.2603 -0.2059  0.2089
   40MOL   O19815096   7.014   7.411   1.619  0.1662 -0.4190 -0.1196
   40MOL   H19915097   7.279   7.467   1.605  1.5432  0.5512 -2.1367
   40MOL   H20015098   7.299   7.371   1.457  0.0876  1.0551 -0.6791
   40MOL   H20115099   7.095   7.298   1.451  1.7591 -0.1880 -0.9005
   40MOL   H20215100   7.080   7.611   1.464  1.3491  0.1673 -0.0966
   40MOL   H20315101   7.152   7.511   1.334 -0.6272  1.9116 -0.2059
   40MOL   H20415102   6.862   7.474   1.410 -1.2287 -0.5147 -0.6147
   40MOL   H20515103   6.948   7.426   1.267  0.4760  2.7242 -1.9554
   40MOL   H20615104   6.879   7.715   1.369  0.8146 -1.5362  1.1672
   40MOL   H20715105   6.956   7.687   1.217 -0.7914  1.0639  0.4661
   40MOL   H20815106   6.708   7.723   1.221  1.6703  0.5199 -1.4453
   40MOL   H20915107   6.753   7.583   1.134  2.6408 -0.0809  0.0848
   40MOL   H21015108   6.692   7.559   1.294 -0.5159 -2.5176 -2.5421
   40MOL   C21115109   6.977   7.293   1.696  0.1271  0.3294  0.3004
   40MOL   C21215110   6.974   7.330   1.847 -0.5688 -0.2198 -0.2216
   40MOL   C21315111   7.033   7.204   1.925  0.0160  0.2960  0.0346
   40MOL   C21415112   7.034   7.233   2.077  0.3112 -0.0165  0.4275
   40MOL   C21515113   7.067   7.104   2.160  0.2548  0.2004  0.2496
   40MOL   C21615114   7.056   7.125   2.312 -0.3923 -0.8992 -0.0318
   40MOL   O21715115   6.835   7.361   1.889 -0.1769 -0.4326  0.1801
   40MOL   H21815116   7.044   7.209   1.675  1.9841  2.4717 -2.6904
   40MOL   H21915117   6.881   7.260   1.657  1.1197  0.9220 -2.7055
   40MOL   H22015118   7.042   7.415   1.858 -0.8822 -0.1501  1.3727
   40MOL   H22115119   6.984   7.114   1.887 -0.0224  0.8732 -1.3186
   40MOL   H22215120   7.136   7.184   1.893 -0.9183 -2.1811 -1.5677
   40MOL   H22315121   7.107   7.312   2.097  0.9607 -0.6707  0.6732
   40MOL   H22415122   6.940   7.278   2.109  0.9009  1.5731 -0.0403
   40MOL   H22515123   6.991   7.031   2.133 -0.6537  1.3989 -0.5092
   40MOL   H22615124   7.168   7.070   2.139  0.4510  0.7319  0.3206
   40MOL   H22715125   6.955   7.151   2.341 -1.3179 -3.3122 -0.9421
   40MOL   H22815126   7.118   7.204   2.355 -0.4341 -0.7410 -0.2612
   40MOL   H22915127   7.094   7.035   2.361  1.7541 -0.0110  0.0237
   40MOL   C23015128   6.815   7.499   1.929 -0.0099 -0.2185  0.3841
   40MOL   C23115129   6.800   7.583   1.799  0.2944  0.4161  0.3103
   40MOL   C23215130   6.868   7.721   1.813 -0.9813  0.6665  0.6004
   40MOL   C23315131   7.010   7.730   1.754 -0.7466  0.2523  0.3858
   40MOL   C23415132   7.077   0.083   1.752  0.4497  0.0186 -0.4945
   40MOL   C23515133   7.225   0.075   1.722 -0.6298 -0.4826  0.4678
   40MOL   O23615134   6.666   7.628   1.785 -0.1148  0.0297 -0.4311
   40MOL   H23715135   6.719   7.518   1.977  0.5192  2.0248  0.6320
   40MOL   H23815136   6.885   7.557   1.989 -1.0510  0.3718  1.0317
   40MOL   H23915137   6.844   7.541   1.708  3.0886  2.6990  0.5251
   40MOL   H24015138   6.872   7.747   1.918  0.7447  2.8149  0.0364
   40MOL   H24115139   6.806   0.015   1.771 -0.1027  0.1683 -1.7148
   40MOL   H24215140   7.021   7.687   1.655  1.5647  0.0224  0.7156
   40MOL   H24315141   7.063   7.664   1.822  0.7713  0.3387 -0.6750
   40MOL   H24415142   7.022   0.151   1.687  0.9527  1.0546  0.1620
   40MOL   H24515143   7.057   0.124   1.851 -0.6550 -1.8450  0.0929
   40MOL   H24615144   7.240   0.037   1.621  2.0897 -0.1591  0.7309
   40MOL   H24715145   7.276   0.020   1.801 -1.0289  2.4821  2.8757
   40MOL   H24815146   7.251   0.180   1.709 -1.1727  0.1094  3.6326
   40MOL   C24915147   6.575   7.536   1.737 -0.5400 -1.1536  0.4261
   40MOL   C25015148   6.456   7.599   1.654 -0.3526  0.4150 -0.4021
   40MOL   C25115149   6.518   7.705   1.561 -0.7577  0.5751 -0.5296
   40MOL   C25215150   6.409   7.754   1.462 -0.2951  0.2974  0.5844
   40MOL   C25315151   6.447   0.085   1.372 -0.0282  0.0228 -0.6206
   40MOL   C25415152   6.353   0.116   1.262  0.0139  0.1252 -0.3097
   40MOL   O25515153   6.357   7.664   1.733  0.0337 -0.4443 -0.5873
   40MOL   H25615154   6.637   7.502   1.654  0.7945 -3.1208  2.1852
   40MOL   H25715155   6.535   7.459   1.802 -0.3584  1.0211  3.2086
   40MOL   H25815156   6.416   7.512   1.602 -1.3913  0.1632  0.7960
   40MOL   H25915157   6.557   0.006   1.614 -0.6478  0.2991 -0.1549
   40MOL   H26015158   6.601   7.653   1.512 -1.6123 -0.3516 -0.9980
   40MOL   H26115159   6.372   7.673   1.398 -0.0612  0.9094 -0.3406
   40MOL   H26215160   6.323   0.005   1.518  0.7418  2.6726  0.6619
   40MOL   H26315161   6.451   0.180   1.424 -1.2314  0.5605 -1.4780
   40MOL   H26415162   6.544   0.072   1.325  0.8367  0.5502  0.9904
   40MOL   H26515163   6.250   0.128   1.296 -0.1967  1.4840 -1.3805
   40MOL   H26615164   6.353   0.037   1.187 -0.6904 -0.0387 -0.1389
   40MOL   H26715165   6.397   0.203   1.213  0.6301 -0.0455 -0.0663
   40MOL   C26815166   6.316   7.609   1.852 -0.6487  0.1955  0.2456
   40MOL   C26915167   6.240   7.703   1.940 -0.5464  0.1415  0.0589
   40MOL   C27015168   6.245   7.645   2.086 -0.1039  0.1325 -0.3902
   40MOL   C27115169   6.184   7.737   2.193  0.0190 -0.7768  0.8357
   40MOL   C27215170   6.199   7.691   2.338 -0.2772 -0.1112 -0.3350
   40MOL   C27315171   6.146   0.006   2.437 -0.9453 -0.1161  0.7118
   40MOL   O27415172   6.106   7.692   1.894  0.0616 -0.0045  0.6634
   40MOL   H27515173   6.405   7.589   1.911 -0.1366  0.8985 -0.2794
   40MOL   H27615174   6.268   7.512   1.839  1.1180 -0.8057  1.0116
   40MOL   H27715175   6.291   0.014   1.931  0.5982 -0.4970 -0.5362
   40MOL   H27815176   6.199   7.546   2.090  2.3200 -1.0882 -1.4456
   40MOL   H27915177   6.349   7.637   2.116 -1.0984  0.9117  3.4891
   40MOL   H28015178   6.229   0.050   2.185  0.3636 -0.9089  1.1926
   40MOL   H28115179   6.078   7.753   2.171  0.3898  1.1247  0.3655
   40MOL   H28215180   6.139   7.600   2.348  1.5523 -1.2719  0.3523
   40MOL   H28315181   6.301   7.669   2.369 -0.9233  0.1940  2.1499
   40MOL   H28415182   6.181   7.758   2.534 -1.8183 -0.1122  1.0306
   40MOL   H28515183   6.173   0.110   2.422  0.8607 -0.7804 -0.8709
   40MOL   H28615184   6.039   7.774   2.441 -0.8402 -1.1785 -0.7893
   40MOL   C28715185   6.083   0.016   1.808  0.0314  0.1788 -0.2756
   40MOL   C28815186   5.941   7.783   1.737 -0.1802 -0.5474  0.6059
   40MOL   C28915187   5.935   0.076   1.598  0.2369  0.2860  0.8635
   40MOL   C29015188   5.808   0.030   1.515  0.0697  0.3974  0.3746
   40MOL   C29115189   5.789   0.126   1.403 -0.1394 -0.2680 -0.0847
   40MOL   C29215190   5.664   0.095   1.329  0.1786  0.2531  0.5469
   40MOL   O29315191   5.841   0.062   1.812 -0.1331  0.2800 -0.2953
   40MOL   H29415192   6.157   0.017   1.729  1.3278 -0.2311  0.9097
   40MOL   H29515193   6.076   0.114   1.856  0.3447 -0.7426  1.7314
   40MOL   H29615194   5.922   7.677   1.723 -0.7532 -0.2869 -0.6188
   40MOL   H29715195   5.918   0.182   1.617 -1.0793  0.8070 -2.7454
   40MOL   H29815196   6.019   0.066   1.530 -1.1569 -1.7366 -0.6558
   40MOL   H29915197   5.828   7.713   1.485 -0.5551  0.7557 -1.2826
   40MOL   H30015198   5.721   0.026   1.579  0.7473  0.9873  1.3486
   40MOL   H30115199   5.874   0.133   1.334 -0.7285 -0.2147 -0.8053
   40MOL   H30215200   5.779   0.226   1.446 -2.2692 -0.9239  1.0011
   40MOL   H30315201   5.579   0.076   1.395  0.6422  1.8874  1.6489
   40MOL   H30415202   5.642   0.167   1.250 -0.1031 -0.5276 -0.0955
   40MOL   H30515203   5.672   7.785   1.277 -1.0977  0.1850  0.4625
   40MOL   C30615204   5.809   7.785   1.937 -0.1435 -0.0613 -0.6390
   40MOL   C30715205   5.699   0.091   2.004 -0.3905  0.7383  1.0273
   40MOL   C30815206   5.696   0.075   2.152  0.1351  0.2443 -0.5608
   40MOL   C30915207   5.623   0.183   2.230 -0.5013 -0.0649  0.4056
   40MOL   C31015208   5.643   0.178   2.378  0.4364 -0.1254 -0.3487
   40MOL   C31115209   5.616   0.037   2.434 -0.4121  0.6395  0.0926
   40MOL   O31215210   5.574   0.052   1.953  0.1813 -0.1123 -0.2914
   40MOL   H31315211   5.769   7.688   1.907 -0.4436  0.5525 -2.2797
   40MOL   H31415212   5.894   7.772   2.004 -1.9361  1.7238  2.1037
   40MOL   H31515213   5.716   0.198   1.998 -2.4687  1.1459  2.0318
   40MOL   H31615214   5.801   0.084   2.180 -0.1276 -1.1900  1.0226
   40MOL   H31715215   5.662   7.759   2.173  0.6299  0.0435 -0.7241
   40MOL   H31815216   5.661   0.276   2.188  0.5126 -0.4160  0.5400
   40MOL   H31915217   5.518   0.169   2.203  0.0950 -3.3318 -0.3512
   40MOL   H32015218   5.582   0.251   2.431  0.6471 -0.6220  0.5969
   40MOL   H32115219   5.750   0.196   2.394  0.6003  1.5379 -3.0796
   40MOL   H32215220   5.527   7.779   2.390  1.1257  0.1172 -2.6867
   40MOL   H32315221   5.692   7.760   2.387  0.3487 -0.8060  3.1191
   40MOL   H32415222   5.613   0.016   2.540 -1.9875 -0.8317 -0.2259
   40MOL   C32515223   5.544   0.079   1.817  0.0654  0.2902 -0.0648
   40MOL   C32615224   5.402   0.120   1.799 -0.5371 -0.3363  0.5884
   40MOL   C32715225   5.361   0.088   1.645 -0.1678 -0.0258 -0.0149
   40MOL   C32815226   5.206   0.115   1.633  0.4668  0.7150  0.8035
   40MOL   C32915227   5.155   0.094   1.483 -0.1028 -0.1103 -0.1077
   40MOL   C33015228   5.006   0.109   1.475  0.2120 -0.1039  0.5424
   40MOL   O33115229   5.387   0.262   1.820 -0.4392  0.1824 -0.2198
   40MOL   H33215230   5.577   7.779   1.759  0.9161 -0.8025  1.9777
   40MOL   H33315231   5.604   0.164   1.784 -0.2586  0.9837  1.0911
   40MOL   H33415232   5.341   0.073   1.876 -0.3199 -1.0394  0.3415
   40MOL   H33515233   5.435   0.137   1.581  1.2828 -2.5754 -0.3958
   40MOL   H33615234   5.383   7.768   1.631  0.0994 -0.0750  0.7384
   40MOL   H33715235   5.161   0.050   1.708 -1.2036  0.7377 -0.1374
   40MOL   H33815236   5.172   0.212   1.670 -0.1937  0.3670  1.1062
   40MOL   H33915237   5.199   0.164   1.411  1.9811 -0.2049  1.0398
   40MOL   H34015238   5.179   7.777   1.456  0.7608 -0.0952  0.5620
   40MOL   H34115239   4.957   0.039   1.542 -1.0490 -0.2070 -0.4678
   40MOL   H34215240   4.983   0.212   1.504  0.1551 -1.0162  3.8941
   40MOL   H34315241   4.960   0.097   1.377  0.5733  0.5820  0.2827
   40MOL   C34415242   5.397   0.300   1.955 -0.5870  1.1720 -0.6431
   40MOL   C34515243   5.355   0.440   1.959 -0.5060 -0.4282 -0.5492
   40MOL   C34615244   5.211   0.459   1.903 -0.9215  0.0067 -1.2500
   40MOL   C34715245   5.088   0.373   1.949 -0.1791 -0.3727  0.3220
   40MOL   C34815246   4.948   0.413   1.917  0.2114  0.6947 -0.3546
   40MOL   C34915247   4.922   0.382   1.766 -0.7317 -0.0071 -0.2558
   40MOL   O35015248   5.362   0.464   2.094 -0.3862 -0.4261  0.1617
   40MOL   H35115249   5.501   0.306   1.989 -0.8147 -0.9731  0.5547
   40MOL   H35215250   5.354   0.241   2.036  0.8640 -0.3315 -0.9401
   40MOL   H35315251   5.432   0.502   1.912  1.3972 -2.3445 -0.0327
   40MOL   H35415252   5.231   0.473   1.796  1.8208  2.9326 -0.4451
   40MOL   H35515253   5.183   0.561   1.929  1.3220  0.1950  0.5898
   40MOL   H35615254   5.096   0.370   2.058 -0.0977  1.6820  0.4034
   40MOL   H35715255   5.107   0.270   1.921 -1.0913 -0.4819  0.0924
   40MOL   H35815256   4.930   0.516   1.949 -0.3238  0.3943  0.3230
   40MOL   H35915257   4.880   0.352   1.976 -0.0771  0.2349 -1.1556
   40MOL   H36015258   4.902   0.275   1.759 -0.2402 -0.1413  0.3346
   40MOL   H36115259   5.010   0.412   1.710 -0.7685  1.4824  0.4563
   40MOL   H36215260   4.837   0.441   1.730 -0.8990  0.9540  1.6782
   40MOL   C36315261   5.382   0.613   2.118 -0.0141  0.4585  0.8875
   40MOL   C36415262   5.393   0.638   2.272 -0.0386  0.1877 -0.6371
   40MOL   C36515263   5.268   0.607   2.349 -0.8616  0.0607 -0.1238
   40MOL   C36615264   5.284   0.663   2.492 -0.4952  0.2796 -0.4328
   40MOL   C36715265   5.159   0.655   2.571  0.7036 -0.2195 -0.4234
   40MOL   C36815266   5.197   0.648   2.718 -0.5002  0.5950  0.3064
   40MOL   O36915267   5.502   0.567   2.328 -0.0459  0.0007 -0.3853
   40MOL   H37015268   5.300   0.671   2.076 -1.7483 -2.8473 -0.4998
   40MOL   H37115269   5.480   0.645   2.082 -0.8232 -0.1672 -2.0000
   40MOL   H37215270   5.409   0.745   2.285  0.2963  0.0131  0.4629
   40MOL   H37315271   5.181   0.658   2.308 -0.5771  1.1146  0.5915
   40MOL   H37415272   5.238   0.502   2.340 -1.8519  0.5200 -2.8302
   40MOL   H37515273   5.372   0.616   2.537  0.8325  1.2527 -1.9794
   40MOL   H37615274   5.308   0.769   2.486 -2.6952  0.7717 -0.8095
   40MOL   H37715275   5.078   0.727   2.560 -1.7892 -2.9543 -0.5713
   40MOL   H37815276   5.104   0.565   2.544  0.2611 -0.2421  0.5288
   40MOL   H37915277   5.273   0.570   2.724 -1.3770 -0.5237 -2.2985
   40MOL   H38015278   5.246   0.743   2.740 -0.0752  0.9212 -1.8642
   40MOL   H38115279   5.105   0.631   2.774 -2.1008  1.8000 -1.8344
   40MOL   H38215280   5.507   0.484   2.283 -1.0400 -0.2963  0.0184
   41MOL     C115281   5.009   2.815   5.900 -0.0625 -0.1011 -0.5195
   41MOL     C215282   4.956   2.920   5.810 -0.0751  0.0468 -0.4778
   41MOL     C315283   4.842   2.860   5.719 -0.6748 -0.7939 -0.0662
   41MOL     C415284   4.768   2.974   5.650  0.0597 -0.3345 -0.3447
   41MOL     C515285   4.650   2.934   5.559 -0.0567  0.4189  0.0272
   41MOL     C615286   4.693   2.863   5.432 -0.3826  0.9107 -0.9524
   41MOL     O715287   4.907   3.031   5.895 -0.5993 -0.0385  0.3744
   41MOL     H815288   4.931   2.801   5.975 -0.5441  0.1824 -0.9621
   41MOL     H915289   5.099   2.845   5.954 -1.5290  1.5623  1.0820
   41MOL    H1015290   5.038   2.948   5.744 -2.4697  2.6058 -2.4913
   41MOL    H1115291   4.897   2.815   5.636  1.0024  1.1308 -0.0318
   41MOL    H1215292   4.774   2.799   5.778  0.7872 -1.7663  0.6355
   41MOL    H1315293   4.733   3.048   5.723  0.3623 -0.5127 -0.0191
   41MOL    H1415294   4.840   3.029   5.590 -0.3751 -2.1550 -2.6217
   41MOL    H1515295   4.584   2.872   5.620  1.8302 -0.4662  1.2150
   41MOL    H1615296   4.597   3.027   5.539 -0.0988  0.5752  0.8170
   41MOL    H1715297   4.732   2.762   5.441 -1.9868  0.5179  2.0080
   41MOL    H1815298   4.604   2.850   5.370 -1.0860 -1.1457  0.4496
   41MOL    H1915299   4.767   2.919   5.375 -0.9037  2.0684 -0.5190
   41MOL    H2015300   5.030   2.722   5.847 -0.5361 -0.3013 -0.3582
   41MOL    C2115301   4.986   3.151   5.891  0.1286  0.4345  0.3613
   41MOL    C2215302   4.936   3.243   6.000  0.2267  0.1335  0.3421
   41MOL    C2315303   5.035   3.359   6.043  0.3247 -1.0684 -0.2101
   41MOL    C2415304   5.069   3.453   5.927  0.5971  0.1283  0.5648
   41MOL    C2515305   5.185   3.551   5.959  0.1066  0.3030 -0.3571
   41MOL    C2615306   5.220   3.628   5.836 -0.0547 -0.0263  0.6095
   41MOL    O2715307   4.806   3.292   5.964 -0.3797  0.2844  0.0831
   41MOL    H2815308   5.093   3.135   5.907 -0.1870 -0.3024  1.8661
   41MOL    H2915309   4.984   3.204   5.796 -1.9400  1.2682  0.8392
   41MOL    H3015310   4.921   3.174   6.083 -3.5376  1.0504  0.5111
   41MOL    H3115311   5.127   3.316   6.083  0.6296  1.0396  1.4608
   41MOL    H3215312   4.999   3.412   6.131  1.7864 -0.1435 -0.1341
   41MOL    H3315313   4.979   3.505   5.895  1.1736  0.3678 -0.7200
   41MOL    H3415314   5.096   3.401   5.836 -1.2498  0.1996 -0.0276
   41MOL    H3515315   5.146   3.625   6.030 -0.5619  0.1536 -0.5670
   41MOL    H3615316   5.260   3.490   6.009  0.2615 -1.1473 -2.3173
   41MOL    H3715317   5.269   3.570   5.758 -3.0906 -0.8621 -0.7749
   41MOL    H3815318   5.297   3.697   5.871 -0.2772  0.0440  0.9544
   41MOL    H3915319   5.132   3.679   5.795 -0.7580 -2.0148 -0.4482
   41MOL    C4015320   4.730   3.333   6.071 -0.3410 -0.2218  0.3315
   41MOL    C4115321   4.600   3.397   6.012 -1.5493  0.8092  1.0415
   41MOL    C4215322   4.552   3.513   6.095 -0.6306 -0.8470 -0.0377
   41MOL    C4315323   4.439   3.584   6.029 -0.3662  0.2961  0.2310
   41MOL    C4415324   4.392   3.711   6.103  0.2167 -0.1109 -0.1906
   41MOL    C4515325   4.318   3.667   6.229 -0.4765 -0.7013  0.3279
   41MOL    O4615326   4.504   3.299   6.010 -0.0785  0.2623  0.1395
   41MOL    H4715327   4.779   3.420   6.114 -1.8151  1.7478 -1.8363
   41MOL    H4815328   4.716   3.268   6.158  1.6498 -1.1790 -0.0473
   41MOL    H4915329   4.621   3.441   5.914  2.3219 -1.5389  0.6793
   41MOL    H5015330   4.528   3.458   6.187  0.9158  0.0582  0.9256
   41MOL    H5115331   4.635   3.576   6.126  0.0338 -1.8886  0.3532
   41MOL    H5215332   4.354   3.516   6.020  0.9615 -1.1337 -1.8983
   41MOL    H5315333   4.468   3.616   5.929 -0.4450  0.1699  0.1660
   41MOL    H5415334   4.476   3.777   6.121 -0.7701  1.5975 -1.6031
   41MOL    H5515335   4.316   3.770   6.050 -1.9340 -0.7864  2.0139
   41MOL    H5615336   4.258   3.744   6.278 -1.2692  0.1571 -1.9136
   41MOL    H5715337   4.233   3.600   6.214 -1.0581  0.2150 -0.5663
   41MOL    H5815338   4.390   3.631   6.302  1.0489 -0.9666 -1.2598
   41MOL    C5915339   4.501   3.225   5.888  0.2123  0.1271  0.1529
   41MOL    C6015340   4.407   3.109   5.916 -0.1616 -0.4453 -0.4826
   41MOL    C6115341   4.330   3.070   5.783 -0.3222 -0.0322 -0.2971
   41MOL    C6215342   4.219   2.965   5.794  0.1274  0.9434  0.6108
   41MOL    C6315343   4.176   2.919   5.655 -0.4855  0.0959  0.3322
   41MOL    C6415344   4.079   3.030   5.599  0.6810  0.3483 -0.1359
   41MOL    O6515345   4.475   2.988   5.937 -0.2739 -0.0227  0.2551
   41MOL    H6615346   4.600   3.195   5.853  0.3628 -0.2259  0.8518
   41MOL    H6715347   4.448   3.284   5.814  1.4102 -1.4774 -2.0308
   41MOL    H6815348   4.343   3.133   6.001 -1.4033 -0.2930 -1.4473
   41MOL    H6915349   4.405   3.039   5.709 -0.9566  2.3231 -1.9844
   41MOL    H7015350   4.295   3.161   5.735 -0.2353  0.8948  1.3669
   41MOL    H7115351   4.145   3.006   5.862  0.8771  0.7106  1.5702
   41MOL    H7215352   4.256   2.881   5.854 -0.5126  0.9119  0.9669
   41MOL    H7315353   4.125   2.824   5.671  0.5526 -0.9959 -2.4894
   41MOL    H7415354   4.254   2.900   5.582  0.9483 -1.3951  2.1788
   41MOL    H7515355   3.986   3.049   5.653  1.5305 -0.4654  1.6497
   41MOL    H7615356   4.129   3.127   5.591 -1.8482  1.9584  2.7278
   41MOL    H7715357   4.039   3.000   5.502  1.0795  2.3035 -0.9468
   41MOL    C7815358   4.555   2.970   6.050 -0.5774  0.0095  0.1359
   41MOL    C7915359   4.583   2.821   6.073 -0.5019 -0.1320 -0.2605
   41MOL    C8015360   4.449   2.739   6.031  0.4428  0.5032  0.0327
   41MOL    C8115361   4.473   2.595   6.041 -0.3364 -0.0016 -0.5159
   41MOL    C8215362   4.355   2.511   6.095  0.5795 -0.2686  0.3600
   41MOL    C8315363   4.230   2.513   6.013  0.1955 -0.2000  0.1735
   41MOL    O8415364   4.621   2.782   6.208 -0.0566 -0.2623 -0.5189
   41MOL    H8515365   4.490   3.000   6.132 -0.0710 -0.4638  0.7191
   41MOL    H8615366   4.637   3.041   6.044  0.1413 -0.8175  0.1081
   41MOL    H8715367   4.660   2.792   6.001  0.4998  0.5962  0.5025
   41MOL    H8815368   4.364   2.768   6.093 -0.2939  0.2835 -0.8531
   41MOL    H8915369   4.417   2.764   5.930  0.4607 -1.9716 -0.6260
   41MOL    H9015370   4.551   2.584   6.117 -0.6587  0.7845 -0.0699
   41MOL    H9115371   4.518   2.549   5.953  0.5658 -1.4051  0.6414
   41MOL    H9215372   4.382   2.406   6.101 -0.2458 -0.5418 -0.5258
   41MOL    H9315373   4.330   2.527   6.200 -2.8541  0.0097 -0.4254
   41MOL    H9415374   4.249   2.476   5.913  0.6966  0.3556  0.0598
   41MOL    H9515375   4.181   2.607   5.990 -2.4173 -1.7414 -0.7095
   41MOL    H9615376   4.153   2.450   6.058  1.1196 -2.3297 -1.1748
   41MOL    C9715377   4.715   2.855   6.278  0.1854 -0.6591  0.7601
   41MOL    C9815378   4.709   2.807   6.425 -0.1565 -0.0012  0.1489
   41MOL    C9915379   4.833   2.850   6.501  0.4304  0.1504 -0.7845
   41MOL   C10015380   4.839   2.808   6.652  0.1559 -0.2096 -0.5569
   41MOL   C10115381   4.977   2.824   6.711 -0.4098 -0.6731  0.7738
   41MOL   C10215382   4.988   2.777   6.858  0.5403  0.0980 -0.1908
   41MOL   O10315383   4.587   2.858   6.472 -0.1995 -0.0404 -0.2490
   41MOL   H10415384   4.716   2.962   6.258 -0.0614 -1.0410 -1.4326
   41MOL   H10515385   4.807   2.821   6.230  0.3481  1.0545 -0.1832
   41MOL   H10615386   4.704   2.699   6.420  0.8654 -0.0256 -0.5426
   41MOL   H10715387   4.842   2.958   6.493  0.0285  0.4592  2.4389
   41MOL   H10815388   4.920   2.807   6.450  0.7464  0.6887 -0.6988
   41MOL   H10915389   4.814   2.702   6.656 -2.3582  0.3789 -0.2346
   41MOL   H11015390   4.762   2.862   6.707 -1.4405 -0.8523 -2.1135
   41MOL   H11115391   5.001   2.930   6.715 -1.5903 -0.3906  0.6795
   41MOL   H11215392   5.060   2.774   6.661 -1.9762 -1.3468 -1.2303
   41MOL   H11315393   5.091   2.761   6.889  0.7336  1.5455 -0.0625
   41MOL   H11415394   4.941   2.839   6.934 -0.3290 -1.8784  0.9285
   41MOL   H11515395   4.929   2.685   6.854  0.7539  0.0456 -2.5776
   41MOL   C11615396   4.499   2.763   6.533 -0.1227 -0.2280  0.1135
   41MOL   C11715397   4.383   2.827   6.598 -0.5483 -0.3178 -0.0116
   41MOL   C11815398   4.433   2.903   6.729  1.0795 -0.1635  0.5799
   41MOL   C11915399   4.319   2.975   6.797  0.2886  1.2887 -1.1019
   41MOL   C12015400   4.353   3.019   6.940  0.1032  0.4620 -0.3488
   41MOL   C12115401   4.225   3.092   7.001  0.7230 -0.2526 -0.0311
   41MOL   O12215402   4.281   2.733   6.637 -0.1128  0.2223  0.0983
   41MOL   H12315403   4.462   2.712   6.444 -1.1610  0.1674  0.3120
   41MOL   H12415404   4.552   2.698   6.603 -0.8684 -0.8378  0.1227
   41MOL   H12515405   4.329   2.902   6.541  1.0916  2.3350  1.7688
   41MOL   H12615406   4.470   2.828   6.799  0.6054 -0.8840  0.0660
   41MOL   H12715407   4.517   2.970   6.709 -1.7481  2.8455 -1.9041
   41MOL   H12815408   4.233   2.909   6.806  0.1186  1.2827 -2.6755
   41MOL   H12915409   4.292   3.055   6.728 -0.3387  0.7348 -1.5124
   41MOL   H13015410   4.385   2.942   7.010  1.0818  2.3329  1.3270
   41MOL   H13115411   4.431   3.095   6.936  0.1833  0.4123  0.2047
   41MOL   H13215412   4.241   3.129   7.102  0.8313 -1.1488  0.2840
   41MOL   H13315413   4.204   3.183   6.944 -1.0486 -0.2865  0.5441
   41MOL   H13415414   4.132   3.037   6.985  0.3088  0.9995 -2.1049
   41MOL   C13515415   4.187   2.699   6.529 -0.6430  0.1671  0.1301
   41MOL   C13615416   4.087   2.585   6.566  0.3702 -0.2252 -0.3811
   41MOL   C13715417   4.145   2.450   6.598 -0.8042 -0.1692  0.4303
   41MOL   C13815418   4.048   2.331   6.593  0.4956 -0.8544 -0.0197
   41MOL   C13915419   4.124   2.220   6.671  0.0978 -0.0490 -0.5828
   41MOL   C14015420   4.047   2.084   6.666  0.6348 -0.8705 -0.4907
   41MOL   O14115421   3.998   2.568   6.457 -0.1331  0.4107  1.0103
   41MOL   H14215422   4.125   2.784   6.501 -0.3960  0.4267  0.3593
   41MOL   H14315423   4.241   2.696   6.434 -0.4378  0.7302  0.2246
   41MOL   H14415424   4.034   2.628   6.651  0.1582 -1.2574  0.0075
   41MOL   H14515425   4.231   2.422   6.537 -0.0079  1.4921  0.7540
   41MOL   H14615426   4.185   2.470   6.697  1.3661  1.3150 -0.7006
   41MOL   H14715427   4.044   2.302   6.488 -0.5002 -0.3637 -0.1284
   41MOL   H14815428   3.944   2.344   6.623  0.3342  0.3436 -1.0543
   41MOL   H14915429   4.133   2.257   6.774  1.2700 -1.7070 -0.0660
   41MOL   H15015430   4.226   2.196   6.640 -0.1906 -1.1314 -0.6944
   41MOL   H15115431   3.953   2.085   6.721  0.6949  0.5713 -0.4011
   41MOL   H15215432   4.019   2.047   6.568 -0.4730 -2.1288  0.2835
   41MOL   H15315433   4.112   2.014   6.719  1.6103 -0.2856 -0.8990
   41MOL   C15415434   3.870   2.619   6.476  0.0576  0.4709 -0.5772
   41MOL   C15515435   3.769   2.579   6.359  0.6173  0.7410 -1.0947
   41MOL   C15615436   3.614   2.582   6.396  0.4036 -0.1441  0.1245
   41MOL   C15715437   3.516   2.502   6.296 -0.1325  0.5375 -0.0164
   41MOL   C15815438   3.375   2.480   6.350 -0.5625 -0.5260  0.1787
   41MOL   C15915439   3.276   2.427   6.251  0.4347 -0.2512 -0.1373
   41MOL   O16015440   3.788   2.666   6.247 -0.2518 -0.4892 -0.8963
   41MOL   H16115441   3.866   2.727   6.489 -0.6154  0.1709  1.9950
   41MOL   H16215442   3.823   2.581   6.566  1.4808  0.9811  0.4047
   41MOL   H16315443   3.785   2.475   6.331  0.4026  0.5761 -0.5918
   41MOL   H16415444   3.587   2.686   6.410  2.5595  0.4457  0.0744
   41MOL   H16515445   3.617   2.544   6.498 -1.4105 -0.4560  0.0834
   41MOL   H16615446   3.559   2.403   6.280 -1.3392  0.3843 -2.5750
   41MOL   H16715447   3.519   2.552   6.199 -1.0928  0.4993 -0.0685
   41MOL   H16815448   3.386   2.412   6.434  0.6464 -1.1794 -0.4976
   41MOL   H16915449   3.345   2.573   6.399  1.1871  0.3444 -0.3295
   41MOL   H17015450   3.175   2.438   6.291  0.1818 -0.5456 -0.6948
   41MOL   H17115451   3.291   2.320   6.234  0.5411 -0.4118  0.8949
   41MOL   H17215452   3.282   2.479   6.156  1.4214  0.3339  0.2449
   41MOL   C17315453   3.895   2.635   6.159  0.2155  0.3575 -0.0242
   41MOL   C17415454   3.901   2.750   6.053 -0.0167  0.0572 -0.0207
   41MOL   C17515455   3.777   2.748   5.968  0.3587 -0.7799  0.6662
   41MOL   C17615456   3.799   2.832   5.841  0.5376 -0.2241 -0.3520
   41MOL   C17715457   3.683   2.834   5.739  0.1291 -0.1786 -0.7454
   41MOL   C17815458   3.659   2.693   5.678  0.4067 -0.3583  0.2776
   41MOL   O17915459   3.925   2.886   6.092 -0.0242 -0.1093 -0.1325
   41MOL   H18015460   3.897   2.537   6.111 -0.7757  0.3342 -0.0166
   41MOL   H18115461   3.983   2.631   6.224  0.1117 -2.8840 -0.0148
   41MOL   H18215462   3.974   2.721   5.977 -0.0228  0.6963 -0.2747
   41MOL   H18315463   3.755   2.649   5.929 -3.3611 -0.1236  0.8769
   41MOL   H18415464   3.695   2.786   6.029 -0.1597  0.1776 -0.5994
   41MOL   H18515465   3.812   2.937   5.866 -2.4162 -0.6245  3.3821
   41MOL   H18615466   3.890   2.801   5.790 -0.2602 -3.7311  0.1758
   41MOL   H18715467   3.590   2.875   5.778  0.4995 -1.1454  1.1560
   41MOL   H18815468   3.708   2.894   5.651 -0.5458  1.3869  0.1071
   41MOL   H18915469   3.594   2.703   5.591 -0.5884  1.4933  1.2130
   41MOL   H19015470   3.625   2.620   5.751 -0.8978 -0.5498 -0.5019
   41MOL   H19115471   3.748   2.641   5.640  0.5386  0.6438 -0.8168
   41MOL   C19215472   4.055   2.902   6.157  0.8292  0.2737  0.7648
   41MOL   C19315473   4.039   3.034   6.233 -0.0370 -0.1459  0.5608
   41MOL   C19415474   4.179   3.084   6.275 -0.4281  0.8421  0.0136
   41MOL   C19515475   4.159   3.215   6.349 -0.4961  0.2657  0.1096
   41MOL   C19615476   4.284   3.268   6.408 -0.6567  0.5337  0.6283
   41MOL   C19715477   4.264   3.401   6.482 -0.0055  0.2648  0.5072
   41MOL   O19815478   3.965   3.010   6.359 -0.3222  0.3594  0.5931
   41MOL   H19915479   4.070   2.820   6.227  1.4263 -0.3473 -0.0752
   41MOL   H20015480   4.133   2.911   6.081  0.6259  1.8477  0.7283
   41MOL   H20115481   3.986   3.099   6.163 -1.0219 -0.6452  0.8317
   41MOL   H20215482   4.239   3.019   6.339 -1.6481 -0.1328  0.1662
   41MOL   H20315483   4.241   3.096   6.186 -0.6349  3.1723  0.1362
   41MOL   H20415484   4.091   3.195   6.432 -1.4319  1.6723 -0.2902
   41MOL   H20515485   4.115   3.292   6.286 -1.2087  0.1040  0.3973
   41MOL   H20615486   4.330   3.187   6.466 -0.0775 -0.0054 -0.5604
   41MOL   H20715487   4.359   3.288   6.331 -1.5764 -0.5762 -0.5848
   41MOL   H20815488   4.356   3.451   6.513 -0.7433  1.7069  0.4135
   41MOL   H20915489   4.195   3.471   6.436 -0.8201 -0.4176  0.6897
   41MOL   H21015490   4.219   3.370   6.576 -1.5498 -2.0911 -0.9892
   41MOL   C21115491   3.825   3.018   6.340  0.0272 -0.2069  0.5083
   41MOL   C21215492   3.763   3.074   6.476 -0.2290  0.1443 -0.1077
   41MOL   C21315493   3.855   3.176   6.545  0.2888  1.0242  0.0190
   41MOL   C21415494   3.791   3.262   6.656  0.4569 -0.7276 -0.5785
   41MOL   C21515495   3.869   3.392   6.682  0.0573  0.3123  0.3738
   41MOL   C21615496   3.809   3.470   6.795  0.5385  0.0682  0.2920
   41MOL   O21715497   3.740   2.959   6.557 -0.7918  0.1486  0.1374
   41MOL   H21815498   3.790   2.916   6.328 -0.2410 -0.0535 -0.0185
   41MOL   H21915499   3.799   3.086   6.259 -0.5629 -0.7150  0.2719
   41MOL   H22015500   3.665   3.118   6.456 -1.7521 -2.7611  0.5728
   41MOL   H22115501   3.944   3.133   6.590 -0.7486 -1.5618 -0.3525
   41MOL   H22215502   3.881   3.245   6.464 -2.1018 -0.0042 -1.7074
   41MOL   H22315503   3.691   3.280   6.617  0.4024  0.7785  0.2420
   41MOL   H22415504   3.780   3.210   6.751  2.0632  0.9960  0.5899
   41MOL   H22515505   3.970   3.364   6.711  0.5503  1.2593 -0.3952
   41MOL   H22615506   3.881   3.452   6.591 -0.3813 -0.0200  0.0962
   41MOL   H22715507   3.757   3.556   6.751  0.1886 -0.3127 -0.0478
   41MOL   H22815508   3.885   3.514   6.860 -0.1366 -0.4589  1.4494
   41MOL   H22915509   3.741   3.407   6.852  0.6042  0.1333  0.4417
   41MOL   C23015510   3.621   2.954   6.635 -0.7738  0.5382  0.6757
   41MOL   C23115511   3.599   2.812   6.691 -0.2786 -0.6121  0.1701
   41MOL   C23215512   3.448   2.774   6.712  0.5258 -0.1626  0.4641
   41MOL   C23315513   3.411   2.625   6.737  0.0028 -0.1470  0.1925
   41MOL   C23415514   3.263   2.599   6.763  0.4969  0.0428  0.4682
   41MOL   C23515515   3.249   2.447   6.780  0.0734 -0.5481 -0.4207
   41MOL   O23615516   3.666   2.786   6.819 -0.5095  0.0411  0.0167
   41MOL   H23715517   3.605   3.029   6.712  1.1050 -0.5266  2.1490
   41MOL   H23815518   3.541   2.968   6.562  0.9479 -2.2638 -1.8454
   41MOL   H23915519   3.637   2.737   6.622 -1.1134 -1.4456  0.6027
   41MOL   H24015520   3.394   2.803   6.622  1.0336 -0.0339  0.2011
   41MOL   H24115521   3.405   2.837   6.790  0.2010  0.4188 -0.1740
   41MOL   H24215522   3.465   2.601   6.829 -0.0194  3.2687  1.1623
   41MOL   H24315523   3.449   2.554   6.664 -0.0881 -0.6271  0.6061
   41MOL   H24415524   3.222   2.660   6.844 -3.8437  0.2034 -1.7224
   41MOL   H24515525   3.203   2.633   6.679  2.2454  1.0208 -0.4057
   41MOL   H24615526   3.305   2.385   6.711  0.9779 -0.1581 -0.0359
   41MOL   H24715527   3.142   2.429   6.767 -0.1622  1.6559 -1.8385
   41MOL   H24815528   3.294   2.425   6.877  2.1242  1.3837 -0.9131
   41MOL   C24915529   3.811   2.787   6.818  0.4375 -0.0533  0.2030
   41MOL   C25015530   3.868   2.696   6.925  0.2159  0.1175  0.2697
   41MOL   C25115531   4.016   2.729   6.942 -0.4107 -0.0339  0.0906
   41MOL   C25215532   4.078   2.671   7.067 -0.2469  0.6234 -0.0149
   41MOL   C25315533   4.222   2.706   7.089  0.6342  0.3977 -0.1407
   41MOL   C25415534   4.289   2.627   7.199  0.6335 -0.1465  0.9090
   41MOL   O25515535   3.862   2.557   6.888 -0.3923 -0.2077 -0.7879
   41MOL   H25615536   3.840   2.750   6.719  0.9283  0.4175  0.1660
   41MOL   H25715537   3.855   2.887   6.821 -2.4438  1.2553  0.0447
   41MOL   H25815538   3.809   2.725   7.012  2.0388  1.1036  1.1948
   41MOL   H25915539   4.079   2.702   6.857 -1.4018  0.9116 -0.9743
   41MOL   H26015540   4.030   2.837   6.951 -0.7411 -0.0320  0.6118
   41MOL   H26115541   4.007   2.703   7.144  1.3552  1.5735  1.0967
   41MOL   H26215542   4.076   2.563   7.051 -0.5415  0.8040 -1.2520
   41MOL   H26315543   4.287   2.681   7.005  0.6034  1.0304 -0.3558
   41MOL   H26415544   4.232   2.811   7.115 -2.7596  0.0640  2.9498
   41MOL   H26515545   4.214   2.583   7.265 -1.0896  1.5503  0.1246
   41MOL   H26615546   4.361   2.681   7.260  1.6770 -2.5258  1.8405
   41MOL   H26715547   4.339   2.540   7.157 -0.3885  0.5621 -1.8468
   41MOL   C26815548   3.741   2.493   6.892  0.9829 -0.1396 -0.1401
   41MOL   C26915549   3.750   2.344   6.861  0.2196 -0.5854  0.7116
   41MOL   C27015550   3.631   2.296   6.772  0.4498 -0.5735 -0.3835
   41MOL   C27115551   3.646   2.145   6.716 -0.3823 -0.3984 -0.0331
   41MOL   C27215552   3.539   2.109   6.613  0.3917 -0.2041 -0.2188
   41MOL   C27315553   3.547   2.180   6.476 -0.4156 -0.2483  0.2216
   41MOL   O27415554   3.765   2.272   6.980 -0.5197  0.1995  0.0701
   41MOL   H27515555   3.678   2.545   6.820  0.1147 -1.2200 -0.1823
   41MOL   H27615556   3.697   2.504   6.991  0.0223 -0.5961 -0.5117
   41MOL   H27715557   3.844   2.333   6.807  0.6248  1.3436  0.9937
   41MOL   H27815558   3.534   2.302   6.822 -0.8563  0.1446 -2.8761
   41MOL   H27915559   3.632   2.366   6.688 -1.2599 -0.2891 -0.1894
   41MOL   H28015560   3.747   2.128   6.681 -0.7491 -0.5854 -0.9920
   41MOL   H28115561   3.626   2.084   6.804  2.5828  0.9434  1.6430
   41MOL   H28215562   3.556   2.002   6.603 -0.7531 -0.3486 -0.5964
   41MOL   H28315563   3.443   2.124   6.662  1.0535 -1.1092  1.3908
   41MOL   H28415564   3.539   2.286   6.503  1.7764  0.1324 -0.5283
   41MOL   H28515565   3.645   2.171   6.429 -0.2797 -1.0879  0.6580
   41MOL   H28615566   3.474   2.151   6.400  1.1701  0.9345 -1.8164
   41MOL   C28715567   3.899   2.243   7.013  0.2089  0.0300 -0.1910
   41MOL   C28815568   3.910   2.161   7.146 -0.1316  0.0142  0.4605
   41MOL   C28915569   3.806   2.041   7.150  0.3621 -0.0324  0.4636
   41MOL   C29015570   3.797   1.952   7.273 -0.0516 -0.5410  0.3770
   41MOL   C29115571   3.897   1.846   7.262 -0.2158  0.0220 -0.2838
   41MOL   C29215572   3.910   1.769   7.395 -0.9095 -0.5216  0.0360
   41MOL   O29315573   3.876   2.250   7.253 -0.1451 -0.6990  0.1467
   41MOL   H29415574   3.962   2.332   7.021  1.0901 -0.6588  0.6278
   41MOL   H29515575   3.937   2.179   6.933  0.2992 -0.5780  0.3353
   41MOL   H29615576   4.008   2.113   7.156 -0.0186  0.3723  1.0968
   41MOL   H29715577   3.709   2.087   7.132  2.2077  2.5633 -3.5324
   41MOL   H29815578   3.817   1.978   7.062  0.5379 -0.1293  0.5535
   41MOL   H29915579   3.814   2.021   7.356 -0.1586  0.0633 -0.1026
   41MOL   H30015580   3.699   1.905   7.275 -0.3991  0.1321 -0.3727
   41MOL   H30115581   3.992   1.888   7.229 -0.5775  1.1186  0.0341
   41MOL   H30215582   3.871   1.771   7.188  1.8857 -1.3242  0.2957
   41MOL   H30315583   3.836   1.689   7.404 -0.4107 -1.2073 -1.7994
   41MOL   H30415584   4.002   1.711   7.388  0.2082  1.1899  0.1291
   41MOL   H30515585   3.898   1.823   7.489 -0.4746  0.4594 -0.4734
   41MOL   C30615586   3.962   2.358   7.299 -0.4528  0.2897 -0.1867
   41MOL   C30715587   3.890   2.480   7.357 -0.3141 -0.4949  0.2118
   41MOL   C30815588   3.783   2.522   7.267 -0.2627 -0.1388  0.6449
   41MOL   C30915589   3.691   2.636   7.328 -0.2083 -0.2080 -0.0300
   41MOL   C31015590   3.589   2.683   7.226 -0.9250 -0.4833  0.5068
   41MOL   C31115591   3.482   2.576   7.182  0.3676 -0.6076 -0.1760
   41MOL   O31215592   3.971   2.591   7.395  0.5912 -0.4786  0.5390
   41MOL   H31315593   4.051   2.322   7.352  0.9015  1.6573 -1.4753
   41MOL   H31415594   4.018   2.393   7.212 -1.6926  1.0973 -0.6694
   41MOL   H31515595   3.849   2.442   7.451 -0.7690  2.0626  1.0684
   41MOL   H31615596   3.723   2.434   7.242 -0.9347  0.0636  1.5145
   41MOL   H31715597   3.822   2.562   7.174  0.8219 -0.1190  1.1093
   41MOL   H31815598   3.644   2.601   7.419 -1.4060 -0.6390 -0.8006
   41MOL   H31915599   3.765   2.711   7.354 -0.1724 -0.4148  0.4645
   41MOL   H32015600   3.625   2.704   7.126  2.1974 -0.9908  1.4823
   41MOL   H32115601   3.537   2.770   7.267 -0.2222  0.1794  0.0045
   41MOL   H32215602   3.400   2.631   7.137  0.7747  0.6260  0.5771
   41MOL   H32315603   3.526   2.512   7.105  2.6254  2.5044 -1.6050
   41MOL   H32415604   3.456   2.513   7.267 -1.5096 -0.5137 -0.6539
   41MOL   C32515605   4.071   2.558   7.495  0.5376  0.8938 -0.1991
   41MOL   C32615606   4.014   2.514   7.634 -0.4144  0.5612  0.2261
   41MOL   C32715607   3.921   2.618   7.697  0.5312  0.1714  0.3455
   41MOL   C32815608   3.862   2.573   0.049 -0.3326  0.4015 -0.3613
   41MOL   C32915609   3.744   2.656   0.105  0.6674  0.6439  0.5522
   41MOL   C33015610   3.780   2.790   0.154  0.3732  0.5449 -0.0845
   41MOL   O33115611   4.115   2.492   7.726  0.0235 -0.2843  0.2053
   41MOL   H33215612   4.126   2.651   7.513  0.6303  0.6934  0.5526
   41MOL   H33315613   4.145   2.484   7.464  2.2612  3.0215 -1.3121
   41MOL   H33415614   3.970   2.415   7.631  1.4372 -0.2698 -0.6609
   41MOL   H33515615   3.990   2.701   7.712  1.7670 -0.7355 -0.1460
   41MOL   H33615616   3.852   2.644   7.617 -2.4072 -3.0730  1.7124
   41MOL   H33715617   3.840   2.466   0.049  0.1721  0.2820  1.3271
   41MOL   H33815618   3.941   2.584   0.122 -0.9464 -0.4760  0.4381
   41MOL   H33915619   3.671   2.665   0.025 -0.2561  2.3027  1.5651
   41MOL   H34015620   3.687   2.601   0.180  1.0414  0.6491  0.8436
   41MOL   H34115621   3.689   2.850   0.162  0.4361  0.8293 -1.3475
   41MOL   H34215622   3.817   2.787   0.256 -1.4418  4.4365  0.7490
   41MOL   H34315623   3.854   2.844   0.095 -0.8679  0.3050 -1.8942
   41MOL   C34415624   4.188   2.372   7.713 -0.2274 -0.8026 -0.3790
   41MOL   C34515625   4.298   2.354   0.033 -0.1868 -0.3139  0.2569
   41MOL   C34615626   4.349   2.204   0.044 -0.1487  0.8652 -0.0836
   41MOL   C34715627   4.235   2.109   0.075  0.7865  0.6788  0.3812
   41MOL   C34815628   4.269   1.984   0.156  0.0783 -0.1333  0.1340
   41MOL   C34915629   4.155   1.889   0.200  0.5372  0.7519  0.2842
   41MOL   O35015630   4.420   2.429   7.776  1.0674  0.1909 -0.8697
   41MOL   H35115631   4.245   2.370   7.620  0.5968 -2.0366  0.1449
   41MOL   H35215632   4.119   2.287   7.710 -0.6056 -0.4443 -2.4209
   41MOL   H35315633   4.267   2.390   0.131  1.5772  1.0779  0.3211
   41MOL   H35415634   4.410   2.209   0.134 -0.2992  2.0075 -0.0348
   41MOL   H35515635   4.406   2.176   7.741  1.3613  4.0157 -0.2030
   41MOL   H35615636   4.189   2.080   7.767  1.8589  0.3909 -0.0677
   41MOL   H35715637   4.158   2.150   0.141  2.3567  0.4171  2.4503
   41MOL   H35815638   4.309   2.015   0.252 -0.3277 -1.4097  0.7291
   41MOL   H35915639   4.348   1.921   0.112 -0.8025 -1.8057  0.9095
   41MOL   H36015640   4.061   1.942   0.217  0.2036  0.5488 -0.8248
   41MOL   H36115641   4.175   1.847   0.298  1.4256  2.8480  1.0320
   41MOL   H36215642   4.131   1.814   0.124 -2.3890  1.0569  0.8470
   41MOL   C36315643   4.406   2.570   0.005  0.0319 -0.2282  0.0730
   41MOL   C36415644   4.529   2.654   7.754 -0.1625  0.4327 -0.0907
   41MOL   C36515645   4.497   2.804   7.765 -0.0350  0.1600  0.1127
   41MOL   C36615646   4.625   2.880   7.731  0.7278 -0.2427 -0.0487
   41MOL   C36715647   4.602   3.026   7.689 -0.2293  0.2486  0.2620
   41MOL   C36815648   4.718   3.095   7.630  0.4045 -0.6413  0.2774
   41MOL   O36915649   4.625   2.624   0.066 -0.1123 -0.0605 -0.0111
   41MOL   H37015650   4.361   2.606   0.097  2.4562 -2.4004  2.1971
   41MOL   H37115651   4.343   2.602   7.708 -1.4865  0.0397  1.3180
   41MOL   H37215652   4.558   2.642   7.650 -0.1170  1.9531 -0.2645
   41MOL   H37315653   4.422   2.832   7.691 -0.2561 -0.7110  0.0094
   41MOL   H37415654   4.448   2.844   0.068 -0.9298  0.5829 -0.5548
   41MOL   H37515655   4.688   2.873   0.035 -1.6530  1.3890  1.8181
   41MOL   H37615656   4.678   2.826   7.652  1.0179  0.6898 -0.4974
   41MOL   H37715657   4.534   3.024   7.604  2.7317 -1.0354 -2.1846
   41MOL   H37815658   4.556   3.082   7.771  0.0171  2.0388 -0.7908
   41MOL   H37915659   4.774   3.026   7.568  0.3065  0.9175 -1.6152
   41MOL   H38015660   4.689   3.186   7.577  0.2891 -1.2120 -0.6369
   41MOL   H38115661   4.771   3.132   7.718 -1.5373  0.8155  0.8614
   41MOL   H38215662   4.587   2.578   0.139 -0.0527  0.6072  0.4470
   42MOL     C115663   3.641   7.533   1.387  0.0714  0.1951  0.2675
   42MOL     C215664   3.725   7.458   1.281  0.5917 -0.6716  0.3485
   42MOL     C315665   3.707   7.511   1.140 -0.3430 -0.1520  0.2860
   42MOL     C415666   3.569   7.524   1.083  0.3019  0.1031  0.1766
   42MOL     C515667   3.559   7.590   0.939  0.2394  0.1124  0.0669
   42MOL     C615668   3.411   7.595   0.878 -0.9624  0.2152 -0.4871
   42MOL     O715669   3.864   7.475   1.315  0.1235  0.1990  0.4956
   42MOL     H815670   3.674   7.635   1.409  1.6143  0.3772 -2.6750
   42MOL     H915671   3.650   7.489   1.487  1.7300 -1.1217 -0.4298
   42MOL    H1015672   3.701   7.352   1.294  0.8662 -0.8677 -0.6590
   42MOL    H1115673   3.760   7.604   1.122 -0.4007 -0.4974 -1.8248
   42MOL    H1215674   3.764   7.441   1.080  0.1724 -0.6295  1.3237
   42MOL    H1315675   3.528   7.424   1.096 -0.5523  0.1407 -2.0413
   42MOL    H1415676   3.519   7.590   1.154  1.4910  0.6445  0.5243
   42MOL    H1515677   3.592   7.694   0.940 -1.7395  0.8408 -3.0594
   42MOL    H1615678   3.625   7.532   0.876  0.6092  0.6416 -0.0386
   42MOL    H1715679   3.338   7.640   0.945 -0.8504 -0.0015 -0.2171
   42MOL    H1815680   3.412   7.653   0.786 -0.5931  1.3247  0.2016
   42MOL    H1915681   3.377   7.494   0.857 -0.6667  0.0809 -0.3359
   42MOL    H2015682   3.535   7.520   1.367  0.5615 -2.0507 -0.9864
   42MOL    C2115683   3.939   7.360   1.334  0.3939  0.3057  0.5299
   42MOL    C2215684   3.951   7.310   1.482  0.2357 -0.6060 -0.7954
   42MOL    C2315685   3.985   7.423   1.579  0.0264 -0.2934 -0.2328
   42MOL    C2415686   4.004   7.380   1.724  0.3688 -0.7961  0.3087
   42MOL    C2515687   4.026   7.501   1.809 -0.1858 -0.2876 -0.2457
   42MOL    C2615688   4.060   7.460   1.955 -0.3173 -0.8906  0.0839
   42MOL    O2715689   3.822   7.257   1.523  0.1805 -0.2770 -0.5109
   42MOL    H2815690   3.893   7.274   1.286  1.2025 -0.2363  0.7204
   42MOL    H2915691   4.039   7.375   1.292  0.7448  0.0278  1.2470
   42MOL    H3015692   4.022   7.228   1.477  0.6623 -0.2560 -0.4651
   42MOL    H3115693   3.912   7.502   1.566 -0.4635 -0.6965  0.0380
   42MOL    H3215694   4.083   7.457   1.545 -1.2101  1.0589 -2.5536
   42MOL    H3315695   4.087   7.308   1.722 -0.9660 -2.3462 -2.1349
   42MOL    H3415696   3.923   7.317   1.759  2.4081 -2.6962  1.7763
   42MOL    H3515697   4.095   7.578   1.775  1.0642 -0.5635  1.5929
   42MOL    H3615698   3.929   7.548   1.825 -0.2657 -0.4674 -0.1913
   42MOL    H3715699   4.135   7.384   1.978  1.2572  0.3639 -0.7891
   42MOL    H3815700   3.965   7.433   2.002 -0.8172  1.0390  0.2447
   42MOL    H3915701   4.088   7.548   2.013  0.9308  0.0514 -1.9062
   42MOL    C4015702   3.810   7.115   1.504 -0.1485 -0.5730 -0.3419
   42MOL    C4115703   3.675   7.052   1.551 -0.1326  0.3836 -0.5524
   42MOL    C4215704   3.552   7.145   1.541  0.4746  0.9568  0.5037
   42MOL    C4315705   3.410   7.082   1.540 -0.1598  0.0167 -0.7775
   42MOL    C4415706   3.291   7.179   1.505  0.0571  0.6213 -0.3415
   42MOL    C4515707   3.281   7.208   1.352 -0.0848  0.2217 -0.3478
   42MOL    O4615708   3.694   6.984   1.676 -0.5322 -0.6392  0.6087
   42MOL    H4715709   3.897   7.070   1.552 -1.1884 -2.7288 -0.3797
   42MOL    H4815710   3.833   7.094   1.399  3.3000 -2.5326  0.7074
   42MOL    H4915711   3.675   6.967   1.483  2.3046 -1.3535  1.4948
   42MOL    H5015712   3.561   7.219   1.621  0.3619  1.0171  0.4604
   42MOL    H5115713   3.563   7.205   1.451  1.1554  2.5284  1.6128
   42MOL    H5215714   3.389   7.039   1.638  2.2877 -0.6395 -0.5131
   42MOL    H5315715   3.398   6.992   1.479 -0.7399  0.5981 -1.5332
   42MOL    H5415716   3.201   7.127   1.537 -0.2859  2.2327  1.4018
   42MOL    H5515717   3.300   7.274   1.558  0.0633  0.8023 -0.6614
   42MOL    H5615718   3.204   7.284   1.340  0.7481  1.5093  2.1009
   42MOL    H5715719   3.377   7.240   1.310 -0.2156  0.7290 -0.2568
   42MOL    H5815720   3.245   7.126   1.288 -1.5067  3.2668 -3.6349
   42MOL    C5915721   3.717   7.071   1.789  0.3848  0.3450  0.1748
   42MOL    C6015722   3.742   6.997   1.926 -0.4998  0.3015  0.3837
   42MOL    C6115723   3.795   7.108   2.015  0.4264  0.0887  0.2080
   42MOL    C6215724   3.862   7.063   2.146 -0.0798 -0.5108 -0.0189
   42MOL    C6315725   3.926   7.193   2.214  0.2370  0.0148  0.8103
   42MOL    C6415726   4.009   7.148   2.326 -0.0754  0.3192  0.3840
   42MOL    O6515727   3.636   6.914   1.977 -0.3661  0.8926  0.1377
   42MOL    H6615728   3.624   7.127   1.803 -0.0342 -0.9291  2.8182
   42MOL    H6715729   3.797   7.139   1.760  0.2157  1.2929  1.8314
   42MOL    H6815730   3.825   6.927   1.910  0.0936  1.5878 -2.4248
   42MOL    H6915731   3.727   7.192   2.029 -3.1209 -2.7543  0.9095
   42MOL    H7015732   3.881   7.151   1.963  1.0954 -0.3092  0.9706
   42MOL    H7115733   3.944   6.994   2.127  1.2622  0.7387  1.0679
   42MOL    H7215734   3.783   7.013   2.203  0.4178 -0.1813  0.9830
   42MOL    H7315735   3.849   7.258   2.255  1.1476  1.4019  0.3395
   42MOL    H7415736   3.986   7.241   2.136 -3.5241  0.4265 -1.9657
   42MOL    H7515737   4.081   7.081   2.280 -1.2638 -0.3161 -0.5756
   42MOL    H7615738   4.060   7.231   2.374  2.9981  0.2303 -2.6254
   42MOL    H7715739   3.952   7.082   2.393  0.7527  0.2699  1.0476
   42MOL    C7815740   3.592   6.800   1.906 -0.0790  0.2114  0.7072
   42MOL    C7915741   3.475   6.730   1.987  0.6087 -0.2854  0.5628
   42MOL    C8015742   3.342   6.808   2.000 -0.4429 -0.4521 -0.5817
   42MOL    C8115743   3.278   6.876   1.873 -0.3911 -0.1349 -0.9873
   42MOL    C8215744   3.131   6.918   1.895  0.0328 -0.3512 -0.0935
   42MOL    C8315745   3.088   7.025   1.797  0.1349 -0.2500  0.1259
   42MOL    O8415746   3.501   6.678   2.114 -0.2803  0.0650  0.2765
   42MOL    H8515747   3.674   6.729   1.906  0.6769  1.0779  0.2354
   42MOL    H8615748   3.566   6.811   1.801 -1.1009  2.3127  1.1547
   42MOL    H8715749   3.458   6.642   1.924 -1.3000  0.6327 -0.2315
   42MOL    H8815750   3.264   6.740   2.035  0.3640 -0.7196  0.6969
   42MOL    H8915751   3.355   6.882   2.079 -0.6866 -1.3280  0.2891
   42MOL    H9015752   3.292   6.811   1.786 -1.2087  1.1486 -2.1049
   42MOL    H9115753   3.342   6.963   1.856  0.7834 -0.7732  0.0814
   42MOL    H9215754   3.068   6.830   1.876 -0.0032 -0.1424 -0.9412
   42MOL    H9315755   3.103   6.947   1.996  1.0779  0.4816 -0.0382
   42MOL    H9415756   3.124   6.990   1.701  2.6094  1.0206  0.5448
   42MOL    H9515757   3.154   7.104   1.834  0.1903 -0.2902  0.1131
   42MOL    H9615758   2.984   7.057   1.790  0.1433 -0.4216 -0.8267
   42MOL    C9715759   3.628   6.604   2.131  0.0618  0.0262 -0.6548
   42MOL    C9815760   3.646   6.567   2.280 -0.2147 -0.1267 -0.5082
   42MOL    C9915761   3.733   6.442   2.285  0.6518 -0.5681  0.7658
   42MOL   C10015762   3.777   6.411   2.438  0.2316 -0.2122  0.3581
   42MOL   C10115763   3.825   6.267   2.450 -0.3479 -0.5355 -0.3041
   42MOL   C10215764   3.951   6.233   2.360 -0.7585 -0.5759 -0.2364
   42MOL   O10315765   3.719   6.664   2.351  0.1664  0.8127 -0.3411
   42MOL   H10415766   3.720   6.658   2.106 -0.2472  1.3628  1.0088
   42MOL   H10515767   3.613   6.521   2.062 -0.0961 -0.1148 -0.4487
   42MOL   H10615768   3.549   6.548   2.327  0.3699 -3.3937 -0.4939
   42MOL   H10715769   3.824   6.455   2.227  0.0297 -0.3682 -0.1788
   42MOL   H10815770   3.683   6.368   2.223 -0.5292  2.2286 -1.7841
   42MOL   H10915771   3.690   6.421   2.502  0.5103 -0.3700  0.7707
   42MOL   H11015772   3.837   6.494   2.475 -1.3982  1.3288 -0.3825
   42MOL   H11115773   3.735   6.209   2.428 -1.1916  1.1820 -1.5470
   42MOL   H11215774   3.842   6.245   2.555 -0.8012  1.6756  0.2567
   42MOL   H11315775   4.036   6.286   2.403 -0.3968  0.1409 -1.8238
   42MOL   H11415776   3.979   6.129   2.379  0.6364 -0.6574 -2.6192
   42MOL   H11515777   3.949   6.246   2.252  1.6096 -0.7900 -0.3212
   42MOL   C11615778   3.663   6.798   2.356  0.0235  0.6001 -0.1208
   42MOL   C11715779   3.581   6.831   2.478 -0.5327  0.4457  0.2311
   42MOL   C11815780   3.665   6.835   2.602  0.3278  0.0845 -0.4046
   42MOL   C11915781   3.766   6.951   2.613 -0.1804  0.2010  0.1539
   42MOL   C12015782   3.798   6.980   2.755 -0.4266  0.0715  0.7449
   42MOL   C12115783   3.903   7.090   2.782 -0.4050 -0.1868  0.1376
   42MOL   O12215784   3.484   6.732   2.491 -0.4064  0.7497  0.4112
   42MOL   H12315785   3.752   6.861   2.354 -0.8238  1.8183  0.1734
   42MOL   H12415786   3.594   6.826   2.277 -2.1051  1.0350  1.8406
   42MOL   H12515787   3.538   6.931   2.478 -3.8424 -0.9038 -1.2932
   42MOL   H12615788   3.589   6.832   2.680 -0.1323 -2.4252 -0.9010
   42MOL   H12715789   3.711   6.738   2.625 -2.1045 -0.8034  0.9298
   42MOL   H12815790   3.729   7.048   2.580 -0.5675  0.7578  2.1734
   42MOL   H12915791   3.857   6.925   2.558  0.4742 -1.4146  1.9575
   42MOL   H13015792   3.709   6.996   2.816 -1.3468  0.8888 -0.8011
   42MOL   H13115793   3.844   6.890   2.797  1.0796  0.6523  0.3734
   42MOL   H13215794   3.983   7.073   2.710 -1.6305 -0.2337 -1.2404
   42MOL   H13315795   3.859   7.187   2.760 -0.6087  0.0846  1.7040
   42MOL   H13415796   3.940   7.101   2.884  0.6424 -0.1778 -0.2335
   42MOL   C13515797   3.360   6.778   2.453 -0.5764  0.0789  0.0546
   42MOL   C13615798   3.272   6.654   2.450 -0.1318  1.0943 -0.0949
   42MOL   C13715799   3.151   6.663   2.358  0.2372 -0.0287  0.0827
   42MOL   C13815800   3.051   6.551   2.374 -0.7257 -0.5417  0.0925
   42MOL   C13915801   2.937   6.561   2.473  0.0440 -1.0662  0.4322
   42MOL   C14015802   2.850   6.434   2.475  0.0288  0.3045 -0.3522
   42MOL   O14115803   3.227   6.631   2.586 -0.2287  0.5688 -0.3702
   42MOL   H14215804   3.322   6.864   2.508  1.1586  2.3153 -2.1353
   42MOL   H14315805   3.366   6.818   2.351  1.5954 -1.3364 -0.4023
   42MOL   H14415806   3.337   6.574   2.414 -1.8596 -1.0129  1.3243
   42MOL   H14515807   3.097   6.757   2.364 -1.1566 -0.8502  0.7140
   42MOL   H14615808   3.193   6.662   2.258  1.0211  1.1647  0.3925
   42MOL   H14715809   3.103   6.464   2.413 -1.0013 -1.9708 -2.6494
   42MOL   H14815810   3.003   6.531   2.279 -1.5042  0.4050  0.2744
   42MOL   H14915811   2.880   6.648   2.437  1.8153 -0.7828 -1.8083
   42MOL   H15015812   2.973   6.592   2.571 -0.3109 -2.1476  0.9169
   42MOL   H15115813   2.904   6.346   2.512 -1.9622 -0.1121  1.7442
   42MOL   H15215814   2.765   6.451   2.542 -0.5971 -5.2588  0.5509
   42MOL   H15315815   2.807   6.411   2.378 -2.6098  1.7990  0.4144
   42MOL   C15415816   3.320   6.572   2.674  0.3458 -0.9771 -0.0745
   42MOL   C15515817   3.240   6.534   2.800 -0.8174 -0.5297  0.8434
   42MOL   C15615818   3.198   6.388   2.809  0.3937 -0.0077 -0.0544
   42MOL   C15715819   3.315   6.288   2.814 -0.0599  0.1642  0.6263
   42MOL   C15815820   3.269   6.143   2.817 -0.3194  0.2046  0.1566
   42MOL   C15915821   3.184   6.097   2.704 -0.8807 -0.1059 -0.1813
   42MOL   O16015822   3.325   6.577   2.908 -0.2831  0.3402 -0.8225
   42MOL   H16115823   3.401   6.643   2.695  2.0365 -2.6140 -0.8446
   42MOL   H16215824   3.375   6.489   2.630  1.5313  0.3050 -1.0609
   42MOL   H16315825   3.165   6.613   2.807 -0.2567  0.2343 -1.5851
   42MOL   H16415826   3.131   6.374   2.723  1.2823  2.8734 -1.2751
   42MOL   H16515827   3.132   6.368   2.894  1.4696 -0.1066  0.7597
   42MOL   H16615828   3.382   6.308   2.898  0.8372  0.8327 -0.2402
   42MOL   H16715829   3.369   6.292   2.720 -0.3701 -1.1173  0.3768
   42MOL   H16815830   3.360   6.085   2.829 -0.8667 -1.2245 -2.3552
   42MOL   H16915831   3.218   6.133   2.913 -0.0522  2.6225  0.5885
   42MOL   H17015832   3.093   6.152   2.683 -1.4321 -0.4123  1.3635
   42MOL   H17115833   3.161   5.992   2.723 -0.8656  0.0212  0.5449
   42MOL   H17215834   3.249   6.095   2.616  0.3101  1.4236  0.6437
   42MOL   C17315835   3.267   6.619   3.032 -0.1048 -0.4631 -0.6239
   42MOL   C17415836   3.246   6.772   3.035 -0.3942  0.3210  0.3028
   42MOL   C17515837   3.148   6.813   3.151  0.2825 -0.3386  0.2737
   42MOL   C17615838   3.132   6.962   3.154  0.3270 -0.4535 -0.0481
   42MOL   C17715839   3.020   7.015   3.242  0.8193 -0.7910 -0.4543
   42MOL   C17815840   3.067   7.004   3.386 -0.2702  0.2455  0.3991
   42MOL   O17915841   3.371   6.837   3.054  0.1799 -0.3126  0.4429
   42MOL   H18015842   3.344   6.593   3.104 -0.8584  0.0823  0.3870
   42MOL   H18115843   3.173   6.572   3.060 -0.4721  0.9507  0.5783
   42MOL   H18215844   3.187   6.789   2.945  0.8548 -1.3677 -0.8565
   42MOL   H18315845   3.049   6.770   3.133  0.4721 -0.2185 -1.0976
   42MOL   H18415846   3.176   6.772   3.248 -1.0584 -0.6585  0.5393
   42MOL   H18515847   3.221   7.023   3.174 -1.4567  2.2993 -0.1911
   42MOL   H18615848   3.107   6.984   3.050 -0.2761 -0.1998  0.1476
   42MOL   H18715849   2.996   7.119   3.221 -0.3428 -1.4619 -2.5077
   42MOL   H18815850   2.930   6.953   3.239  1.0808 -1.1862 -0.3069
   42MOL   H18915851   3.086   6.901   3.416 -2.7891 -0.5918 -0.7506
   42MOL   H19015852   2.984   7.037   3.449 -0.3138 -1.6857  1.3982
   42MOL   H19115853   3.161   7.053   3.410  0.6103 -2.1107  1.9524
   42MOL   C19215854   3.431   6.875   2.932  0.5895  1.2825 -0.4547
   42MOL   C19315855   3.390   7.012   2.889  0.8959 -0.2982  0.4401
   42MOL   C19415856   3.422   7.112   2.995 -0.5064 -0.1213 -0.6538
   42MOL   C19515857   3.365   7.251   2.975 -0.6356 -0.1257  0.4747
   42MOL   C19615858   3.457   7.356   3.040 -0.0877  0.7304 -0.1710
   42MOL   C19715859   3.407   7.500   3.015 -0.0813  0.3427  0.0898
   42MOL   O19815860   3.246   7.031   2.868  0.1725  0.5957 -0.5380
   42MOL   H19915861   3.538   6.878   2.948  0.6308 -0.1850 -0.3957
   42MOL   H20015862   3.427   6.806   2.847 -0.8922 -0.2939  0.8535
   42MOL   H20115863   3.455   7.037   2.806  1.7067  1.1643  1.4969
   42MOL   H20215864   3.398   7.088   3.098  2.4661 -0.6834 -0.0394
   42MOL   H20315865   3.531   7.114   3.001 -0.1519 -2.1905 -4.4221
   42MOL   H20415866   3.259   7.265   2.994 -0.6795  1.3088 -0.7681
   42MOL   H20515867   3.365   7.265   2.867 -0.1444 -0.4579  0.4296
   42MOL   H20615868   3.459   7.339   3.147  1.8525  1.7092 -0.0243
   42MOL   H20715869   3.564   7.352   3.018  0.1572  0.1607  1.1069
   42MOL   H20815870   3.436   7.567   3.097 -1.5608  0.4956  0.5007
   42MOL   H20915871   3.439   7.534   2.916  3.1493 -0.8531  0.6509
   42MOL   H21015872   3.299   7.502   3.024 -0.1790  2.3296 -1.2365
   42MOL   C21115873   3.186   6.978   2.747  0.5081  0.0910 -0.1318
   42MOL   C21215874   3.034   7.008   2.733  0.2210  0.0253  0.2011
   42MOL   C21315875   2.977   6.906   2.631  0.1886  0.9629  0.7111
   42MOL   C21415876   2.830   6.924   2.613  0.3182 -0.6986 -0.2941
   42MOL   C21515877   2.759   6.832   2.716  0.0540 -0.2378 -0.1190
   42MOL   C21615878   2.610   6.854   2.722 -0.0605  0.3243  0.3596
   42MOL   O21715879   2.998   7.140   2.680 -0.2396  0.1803  0.5529
   42MOL   H21815880   3.207   6.871   2.742  0.0123 -0.0418  0.5040
   42MOL   H21915881   3.236   7.015   2.657  2.5753  0.7889  1.2756
   42MOL   H22015882   2.985   6.989   2.828 -2.4646  0.8193 -0.9728
   42MOL   H22115883   3.023   6.925   2.534  1.1197  0.1112  0.9794
   42MOL   H22215884   3.005   6.806   2.662 -0.0527  0.9644  0.9426
   42MOL   H22315885   2.793   7.026   2.625 -1.0191 -1.0422 -1.3539
   42MOL   H22415886   2.794   6.881   2.520  0.6428 -2.7608  0.5215
   42MOL   H22515887   2.779   6.733   2.676 -1.7671 -0.3356 -0.8548
   42MOL   H22615888   2.805   6.838   2.815  1.9501 -0.4280 -0.9817
   42MOL   H22715889   2.561   6.862   2.625  2.0391  0.6228 -0.7032
   42MOL   H22815890   2.597   6.951   2.769  1.5876  1.1659 -0.8383
   42MOL   H22915891   2.550   6.789   2.785  1.5800 -2.3147 -0.6782
   42MOL   C23015892   3.052   7.246   2.751  0.3659 -0.1365  0.0177
   42MOL   C23115893   2.991   7.375   2.706 -0.1843 -0.3580 -0.7606
   42MOL   C23215894   3.079   7.497   2.765  0.3975 -0.0286 -0.3008
   42MOL   C23315895   3.041   7.641   2.710  0.5563  0.1637  0.4749
   42MOL   C23415896   3.139   7.745   2.775  0.2889 -0.7965  0.0297
   42MOL   C23515897   3.119   0.106   2.718  0.7547  0.0187 -0.4064
   42MOL   O23615898   2.863   7.406   2.762 -0.2074  0.2710  0.0443
   42MOL   H23715899   3.038   7.244   2.859 -2.2380  1.2376 -0.2715
   42MOL   H23815900   3.159   7.252   2.728  0.1018  1.2219 -0.9076
   42MOL   H23915901   2.993   7.386   2.598  1.4747 -0.2563 -0.7340
   42MOL   H24015902   3.185   7.479   2.746  0.5176  1.0878 -0.7600
   42MOL   H24115903   3.065   7.497   2.873 -0.2739 -0.4600 -0.3856
   42MOL   H24215904   2.938   7.665   2.739 -0.3018 -2.1825 -0.4958
   42MOL   H24315905   3.039   7.653   2.601 -0.4136  1.2302  0.5996
   42MOL   H24415906   3.129   7.736   2.883  2.6343  0.8337  0.4345
   42MOL   H24515907   3.242   7.720   2.745 -0.2831 -0.4293 -2.3569
   42MOL   H24615908   3.016   0.138   2.731  0.8409 -0.3167  1.3008
   42MOL   H24715909   3.134   0.115   2.611  2.5550  0.3753 -0.1374
   42MOL   H24815910   3.182   0.180   2.768 -1.3876 -0.5796  3.3434
   42MOL   C24915911   2.755   7.374   2.671  0.8121 -0.3188  0.0552
   42MOL   C25015912   2.625   7.363   2.756  0.4723 -0.0860 -0.1152
   42MOL   C25115913   2.510   7.283   2.695 -0.3995 -0.8109 -0.1096
   42MOL   C25215914   2.384   7.262   2.788 -0.7411 -0.2151 -0.0475
   42MOL   C25315915   2.272   7.212   2.701 -0.6062 -0.1945  0.0970
   42MOL   C25415916   2.138   7.217   2.788  0.0009 -0.2048  0.1831
   42MOL   O25515917   2.561   7.494   2.772  0.1807  0.0921  0.1849
   42MOL   H25615918   2.740   7.462   2.610  0.8347  0.2043  0.7966
   42MOL   H25715919   2.767   7.282   2.614 -0.1188  0.5951 -1.6621
   42MOL   H25815920   2.645   7.311   2.850  0.8862  1.7646  0.8445
   42MOL   H25915921   2.483   7.336   2.603  0.8941  1.9901  1.0565
   42MOL   H26015922   2.543   7.186   2.660  0.2949  0.2141 -2.4217
   42MOL   H26115923   2.396   7.176   2.854 -0.7058 -2.3803 -2.8120
   42MOL   H26215924   2.346   7.348   2.843  2.4447  1.5018 -0.4516
   42MOL   H26315925   2.257   7.273   2.612  1.5653  3.3867  2.0677
   42MOL   H26415926   2.295   7.110   2.671 -0.9032 -0.7204  1.5729
   42MOL   H26515927   2.132   7.136   2.860  0.6587  1.0626  1.6895
   42MOL   H26615928   2.064   7.195   2.711 -0.3689  0.0835  0.4591
   42MOL   H26715929   2.110   7.312   2.834 -0.2811 -0.8045  1.2451
   42MOL   C26815930   2.644   7.575   2.855  0.4365  0.1262  0.0629
   42MOL   C26915931   2.548   7.688   2.894  0.4422  0.0701 -0.0359
   42MOL   C27015932   2.610   0.042   2.878  0.6836  0.4584  0.2087
   42MOL   C27115933   2.746   0.074   2.944 -0.2603 -0.2179 -0.0830
   42MOL   C27215934   2.783   0.227   2.940 -0.0742 -0.4135  0.4060
   42MOL   C27315935   2.888   0.262   3.039  0.9602  0.7132  0.1894
   42MOL   O27415936   2.507   7.695   3.029  0.3182  0.1839 -0.0251
   42MOL   H27515937   2.730   7.614   2.800  0.3754  2.3926  1.5039
   42MOL   H27615938   2.679   7.511   2.936 -1.9053 -0.3098  0.7453
   42MOL   H27715939   2.453   7.689   2.841  1.5047  1.1716 -2.0018
   42MOL   H27815940   2.613   0.056   2.770  0.0388  1.9399  0.3694
   42MOL   H27915941   2.533   0.112   2.913  1.1688  0.2366  1.7540
   42MOL   H28015942   2.723   0.036   3.044 -0.3048  0.6307  0.2375
   42MOL   H28115943   2.828   0.011   2.910  0.8056  0.8217  0.5160
   42MOL   H28215944   2.826   0.260   2.845 -1.0697  1.8676  0.7198
   42MOL   H28315945   2.703   0.294   2.969  0.4591  0.8134 -0.8809
   42MOL   H28415946   2.904   0.369   3.021 -0.4432  0.9848  0.5182
   42MOL   H28515947   2.855   0.248   3.142  0.7626  1.7918  0.2785
   42MOL   H28615948   2.979   0.202   3.037  0.0452 -0.7483  1.4007
   42MOL   C28715949   2.442   7.578   3.070  0.4583  0.3641  0.3530
   42MOL   C28815950   2.401   7.592   3.221  0.5502 -1.3151  0.7811
   42MOL   C28915951   2.517   7.651   3.303  0.3121  0.3381 -0.7888
   42MOL   C29015952   2.493   7.648   3.453  0.3169 -0.6341  0.1449
   42MOL   C29115953   2.611   7.716   3.518 -0.3673 -0.3053  0.8280
   42MOL   C29215954   2.626   0.082   3.489 -0.7943  0.0564 -0.0454
   42MOL   O29315955   2.368   7.461   3.259 -0.3623  0.3055 -0.4805
   42MOL   H29415956   2.494   7.482   3.064 -1.1812 -0.5256  0.1919
   42MOL   H29515957   2.350   7.564   3.012  0.8618  0.9081 -0.4354
   42MOL   H29615958   2.314   7.657   3.227  0.0741 -1.8125 -0.4766
   42MOL   H29715959   2.602   7.588   3.277  0.0694 -0.8449  1.2087
   42MOL   H29815960   2.534   7.755   3.274 -0.3595  0.6122 -0.2238
   42MOL   H29915961   2.407   7.708   3.483  1.5807  0.9643  0.6094
   42MOL   H30015962   2.471   7.549   3.495 -2.1117  0.0778  0.6140
   42MOL   H30115963   2.705   7.666   3.495 -0.5867 -0.3510  0.0080
   42MOL   H30215964   2.599   7.715   3.626 -0.3952  1.5491  0.8644
   42MOL   H30315965   2.719   0.120   3.531 -0.0054  0.0141 -1.7178
   42MOL   H30415966   2.634   0.124   3.389 -1.1887  0.9825  0.3043
   42MOL   H30515967   2.551   0.137   3.546  0.7939  1.2801  0.8880
   42MOL   C30615968   2.231   7.440   3.294 -0.5748 -0.0599  0.0536
   42MOL   C30715969   2.199   7.295   3.312 -1.0546  0.2230  0.2415
   42MOL   C30815970   2.054   7.254   3.295 -0.4194  0.3091  1.0436
   42MOL   C30915971   1.993   7.300   3.156 -0.1530 -0.2840  0.6533
   42MOL   C31015972   1.842   7.288   3.157 -0.0148  0.6078  0.0420
   42MOL   C31115973   1.788   7.342   3.025 -0.1701 -0.1830  0.2450
   42MOL   O31215974   2.239   7.247   3.434 -0.5883 -0.0038  0.5839
   42MOL   H31315975   2.209   7.484   3.391  2.1437 -2.3069  1.7535
   42MOL   H31415976   2.174   7.488   3.213 -1.3014  0.0583  0.6318
   42MOL   H31515977   2.247   7.233   3.236 -1.6128  0.2571 -0.1437
   42MOL   H31615978   1.992   7.288   3.378 -0.1641  0.7307  1.0652
   42MOL   H31715979   2.043   7.146   3.298 -1.0584  0.2735 -1.4034
   42MOL   H31815980   1.991   7.408   3.141 -1.5344 -0.4881 -0.7479
   42MOL   H31915981   2.052   7.256   3.076  0.7621 -0.5516  1.4675
   42MOL   H32015982   1.799   7.342   3.242  0.8511  0.4330  0.5985
   42MOL   H32115983   1.803   7.187   3.166 -1.1566  1.0828  0.5653
   42MOL   H32215984   1.815   7.266   2.951  1.0499  1.9911 -1.6090
   42MOL   H32315985   1.680   7.361   3.021  0.1563  1.9130  0.9904
   42MOL   H32415986   1.839   7.433   2.995 -1.1295  0.9222  1.8713
   42MOL   C32515987   2.371   7.187   3.441 -0.8078  0.4918 -0.5286
   42MOL   C32615988   2.444   7.226   3.573 -0.9144 -0.0303  0.3984
   42MOL   C32715989   2.588   7.162   3.570  0.5170 -0.3798  0.1486
   42MOL   C32815990   2.672   7.191   3.694 -0.5555  0.3673  0.0366
   42MOL   C32915991   2.822   7.144   3.673 -0.7284  0.8069 -0.1229
   42MOL   C33015992   2.904   7.247   3.597 -1.0876  0.3749 -0.0548
   42MOL   O33115993   2.370   7.162   3.684 -0.0047 -0.9033  0.2141
   42MOL   H33215994   2.431   7.229   3.360 -0.9724 -1.1026 -1.5091
   42MOL   H33315995   2.373   7.081   3.417  0.9224  0.4071 -0.0458
   42MOL   H33415996   2.446   7.335   3.583 -0.1648  0.1253 -1.3315
   42MOL   H33515997   2.583   7.054   3.562 -1.3119 -0.1682 -2.0375
   42MOL   H33615998   2.634   7.211   3.485 -0.0828  1.2770  0.7387
   42MOL   H33715999   2.660   7.295   3.725 -1.5011 -0.4194  2.3835
   42MOL   H33816000   2.635   7.135   3.780 -1.4006  1.4994  0.4175
   42MOL   H33916001   2.867   7.144   3.772 -0.9596  3.3560  0.0044
   42MOL   H34016002   2.820   7.044   3.629 -2.1217  0.6396  0.3030
   42MOL   H34116003   2.921   7.340   3.652  2.9527 -0.0828 -0.3788
   42MOL   H34216004   2.999   7.205   3.564 -1.4201 -0.9060  0.5969
   42MOL   H34316005   2.841   7.270   3.511  0.1683  0.1986 -1.0268
   42MOL   C34416006   2.258   7.231   3.742  0.3680 -1.0364 -0.3249
   42MOL   C34516007   2.296   7.331   3.858  0.1559 -0.5809 -0.3941
   42MOL   C34616008   2.197   7.443   3.862  0.2249 -0.0259  0.0836
   42MOL   C34716009   2.228   7.546   3.758  0.4326 -0.0242  0.1233
   42MOL   C34816010   2.128   7.661   3.767 -0.1557  0.0196  0.0777
   42MOL   C34916011   2.160   7.753   3.650  0.4016 -0.3385 -0.0330
   42MOL   O35016012   2.269   7.258   3.984 -0.1341 -0.1196 -0.2833
   42MOL   H35116013   2.181   7.165   3.782 -0.4936 -1.3291 -2.4097
   42MOL   H35216014   2.205   7.287   3.665  0.5888 -0.8106 -0.3179
   42MOL   H35316015   2.400   7.362   3.847  0.2156  0.0183  1.7151
   42MOL   H35416016   2.197   7.484   3.963 -2.9330 -0.4322  0.2800
   42MOL   H35516017   2.100   7.397   3.845  0.2646  0.7882 -2.5244
   42MOL   H35616018   2.223   7.513   3.654  0.8716  0.0109  0.0913
   42MOL   H35716019   2.331   7.578   3.775  0.0437  1.1571  0.3361
   42MOL   H35816020   2.133   7.720   3.859  1.3470  0.0535 -0.0060
   42MOL   H35916021   2.025   7.628   3.760 -0.0457 -0.3950  0.4114
   42MOL   H36016022   2.263   7.785   3.660  0.1694  0.3650  0.1168
   42MOL   H36116023   2.100   0.058   3.657 -0.0130 -0.5684 -0.5604
   42MOL   H36216024   2.154   7.695   3.557  2.9566 -0.9404  0.1525
   42MOL   C36316025   2.374   7.154   4.017  0.1511 -0.0679  0.7743
   42MOL   C36416026   2.316   7.063   4.129  0.1124 -0.2622  0.3775
   42MOL   C36516027   2.420   6.964   4.178  0.1869  0.2574  0.0481
   42MOL   C36616028   2.375   6.876   4.297 -0.3795  0.5646 -0.4916
   42MOL   C36716029   2.467   6.757   4.335 -0.0943 -1.0911  0.8936
   42MOL   C36816030   2.416   6.683   4.454  0.0486  0.2656  0.1424
   42MOL   O36916031   2.304   7.154   4.238  0.4047  0.3778 -0.1792
   42MOL   H37016032   2.475   7.184   4.045  0.6684  0.0376 -1.1348
   42MOL   H37116033   2.386   7.085   3.933  0.7568 -1.0741  1.6799
   42MOL   H37216034   2.227   7.013   4.091 -0.5463  0.2594  1.2078
   42MOL   H37316035   2.456   6.901   4.096 -2.8661  1.3892 -2.2869
   42MOL   H37416036   2.506   7.018   4.216 -0.0404  0.8343 -0.2552
   42MOL   H37516037   2.366   6.930   4.391  2.8246 -2.8591  1.9470
   42MOL   H37616038   2.272   6.844   4.284 -0.4034  0.2215  0.4426
   42MOL   H37716039   2.481   6.696   4.245  1.3081 -0.4797  0.6850
   42MOL   H37816040   2.560   6.807   4.363 -1.8602  1.7183  1.8454
   42MOL   H37916041   2.426   6.743   4.544  1.3266 -0.7701  0.7024
   42MOL   H38016042   2.308   6.668   4.441  0.2252 -1.5471  0.6399
   42MOL   H38116043   2.468   6.590   4.472  0.7216  0.8157  1.0682
   42MOL   H38216044   2.290   7.240   4.200  0.1447 -0.2774 -1.6005
   43MOL     C116045   2.305   2.131   2.444  0.6751 -0.4511  0.3529
   43MOL     C216046   2.385   2.091   2.574  0.3020  0.7423 -0.9042
   43MOL     C316047   2.303   1.997   2.664  0.1763  0.3962  0.1070
   43MOL     C416048   2.176   2.049   2.711  0.1683  0.1114 -0.0962
   43MOL     C516049   2.104   1.942   2.804  0.9094  0.0510  0.1397
   43MOL     C616050   1.969   2.003   2.849 -0.5232  0.1224 -0.1312
   43MOL     O716051   2.520   2.037   2.549 -0.3925  0.5274 -0.5228
   43MOL     H816052   2.219   2.193   2.468  1.1525  0.6975 -0.7761
   43MOL     H916053   2.270   2.044   2.389  0.0157  1.2355 -1.9976
   43MOL    H1016054   2.397   2.178   2.638 -0.1810  1.2216 -1.4613
   43MOL    H1116055   2.284   1.908   2.604 -1.1226  0.5348  0.3024
   43MOL    H1216056   2.364   1.973   2.751 -0.3294 -0.8888  0.1116
   43MOL    H1316057   2.193   2.144   2.764 -1.2839 -0.5447  1.6203
   43MOL    H1416058   2.122   2.052   2.617  2.3919  0.3896 -1.3956
   43MOL    H1516059   2.087   1.846   2.756 -1.7567  1.3986 -1.7397
   43MOL    H1616060   2.154   1.935   2.900  0.5138 -0.4132  0.3112
   43MOL    H1716061   1.897   2.026   2.771 -1.8125 -1.0269  0.6918
   43MOL    H1816062   1.918   1.930   2.912  1.9675 -0.9856  0.7064
   43MOL    H1916063   1.992   2.098   2.897  1.0864 -0.7420  0.8457
   43MOL    H2016064   2.368   2.179   2.368  1.6385 -0.2070  1.2917
   43MOL    C2116065   2.607   2.140   2.533  0.7493  0.0249  0.2283
   43MOL    C2216066   2.708   2.151   2.649 -0.2004  0.7159 -0.1868
   43MOL    C2316067   2.818   2.248   2.593 -0.2373  0.1518  0.3884
   43MOL    C2416068   2.941   2.265   2.689 -0.1461  0.1973  0.5731
   43MOL    C2516069   3.059   2.325   2.613 -0.1660  0.0774  1.1183
   43MOL    C2616070   3.181   2.361   2.707  0.4854  0.0565 -0.2619
   43MOL    O2716071   2.646   2.223   2.756 -0.3256  0.0471 -0.1104
   43MOL    H2816072   2.664   2.105   2.447 -0.5352  1.0081 -1.0530
   43MOL    H2916073   2.574   2.239   2.501  0.1450 -0.2671 -0.0404
   43MOL    H3016074   2.748   2.052   2.670 -0.8309  0.5861  0.3992
   43MOL    H3116075   2.782   2.350   2.577 -2.2321 -0.4913  0.6289
   43MOL    H3216076   2.858   2.214   2.497 -0.8438 -0.3115  0.2987
   43MOL    H3316077   2.975   2.173   2.736  2.4867  1.1330  0.5588
   43MOL    H3416078   2.913   2.330   2.772 -1.1068  0.1824  0.2634
   43MOL    H3516079   3.078   2.247   2.539 -1.7820 -2.3486  3.1825
   43MOL    H3616080   3.047   2.414   2.552  0.1945  0.0960  1.0725
   43MOL    H3716081   3.146   2.436   2.778 -0.3050 -1.2231  0.7233
   43MOL    H3816082   3.279   2.388   2.669  2.0286 -0.4385  3.1915
   43MOL    H3916083   3.203   2.281   2.778  0.4607 -0.9704 -1.4005
   43MOL    C4016084   2.635   2.153   2.878 -0.3094 -0.8376  0.4242
   43MOL    C4116085   2.588   2.253   2.991  0.4218  0.5945  0.0222
   43MOL    C4216086   2.703   2.326   3.057  0.2398  0.0192 -0.1497
   43MOL    C4316087   2.663   2.471   3.099 -0.6455 -0.3687 -0.1647
   43MOL    C4416088   2.770   2.571   3.151  0.0941 -0.0399 -0.5292
   43MOL    C4516089   2.890   2.568   3.062  0.0079 -0.1967 -0.0169
   43MOL    O4616090   2.516   2.199   3.103 -0.0579  0.4368  0.3160
   43MOL    H4716091   2.739   2.127   2.899 -0.4435 -0.4106  1.6575
   43MOL    H4816092   2.574   2.062   2.878 -0.2013 -0.9146 -0.1771
   43MOL    H4916093   2.524   2.329   2.945  2.3331  0.9444 -2.1398
   43MOL    H5016094   2.726   2.272   3.149  1.4222  0.2896 -0.2787
   43MOL    H5116095   2.794   2.325   2.997  1.5534 -0.8462  1.7935
   43MOL    H5216096   2.578   2.476   3.168  0.7303 -0.5308  1.5761
   43MOL    H5316097   2.632   2.520   3.007 -0.1752 -0.1816 -0.2212
   43MOL    H5416098   2.732   2.672   3.134 -0.6538 -0.5467 -1.9070
   43MOL    H5516099   2.794   2.551   3.255 -2.6388 -1.9257 -0.2241
   43MOL    H5616100   2.866   2.577   2.957 -2.8573 -2.5659  0.3732
   43MOL    H5716101   2.964   2.641   3.094  1.6528 -1.6564 -0.3882
   43MOL    H5816102   2.940   2.471   3.075 -1.5643 -0.9456  0.4823
   43MOL    C5916103   2.396   2.133   3.063  0.8178 -0.4785  0.1333
   43MOL    C6016104   2.275   2.208   3.129 -0.1781 -0.7140 -0.8268
   43MOL    C6116105   2.308   2.189   3.283  0.3445  0.0281  0.1948
   43MOL    C6216106   2.179   2.215   3.360 -1.3354 -0.2168 -0.2541
   43MOL    C6316107   2.210   2.182   3.508  0.5023 -0.4025  0.2178
   43MOL    C6416108   2.089   2.165   3.610 -0.1728 -0.3081 -0.2240
   43MOL    O6516109   2.277   2.348   3.104  0.6600  0.0160 -0.6333
   43MOL    H6616110   2.396   2.031   3.101 -0.7923 -0.8879 -0.9211
   43MOL    H6716111   2.377   2.127   2.955 -0.1628  1.2110  0.1976
   43MOL    H6816112   2.191   2.148   3.093  0.7539 -1.2930 -2.0749
   43MOL    H6916113   2.383   2.260   3.320  0.0654  1.9376 -2.6911
   43MOL    H7016114   2.342   2.088   3.303 -0.8362 -0.1112  1.5327
   43MOL    H7116115   2.102   2.146   3.325 -1.3454 -0.9700  1.1995
   43MOL    H7216116   2.143   2.317   3.346  0.6376  0.7989  1.8567
   43MOL    H7316117   2.286   2.246   3.553 -0.2736  0.3601  0.4736
   43MOL    H7416118   2.265   2.089   3.518  2.2231  0.4378 -1.0121
   43MOL    H7516119   2.026   2.078   3.590  1.6515 -1.7263  0.1161
   43MOL    H7616120   2.115   2.172   3.715 -1.2918 -0.5481  0.0718
   43MOL    H7716121   2.019   2.248   3.602  2.5262  2.1863  1.1467
   43MOL    C7816122   2.223   2.385   2.971  0.5552  0.3576 -1.0120
   43MOL    C7916123   2.191   2.539   2.969  0.7042  0.5083  0.1476
   43MOL    C8016124   2.288   2.624   3.050  0.0713 -0.8863  0.5857
   43MOL    C8116125   2.248   2.771   3.035 -0.0318 -0.2453 -0.4156
   43MOL    C8216126   2.345   2.854   3.122  0.5916  0.2023  0.2256
   43MOL    C8316127   2.321   3.001   3.116  0.0898  0.0972  0.6441
   43MOL    O8416128   2.064   2.545   3.034 -0.7505  0.3596  0.5515
   43MOL    H8516129   2.138   2.321   2.951  1.2186 -2.3099  3.9705
   43MOL    H8616130   2.294   2.352   2.896 -0.4816 -1.5753 -1.1717
   43MOL    H8716131   2.181   2.576   2.867 -0.8808  0.2157  0.1834
   43MOL    H8816132   2.294   2.592   3.155 -2.4945 -3.9968 -0.1429
   43MOL    H8916133   2.392   2.620   3.016 -0.8153  0.0204 -2.3884
   43MOL    H9016134   2.144   2.774   3.068  0.2865 -0.0342  0.5810
   43MOL    H9116135   2.245   2.803   2.930 -0.2767 -1.1326 -0.6821
   43MOL    H9216136   2.337   2.831   3.228  3.2808  1.4873  0.7443
   43MOL    H9316137   2.449   2.833   3.096  0.9718  3.5007 -1.1523
   43MOL    H9416138   2.334   3.029   3.011  1.6123  1.6201  1.2255
   43MOL    H9516139   2.399   3.049   3.175  1.4974 -0.8505 -0.3941
   43MOL    H9616140   2.218   3.026   3.140 -0.5223 -2.1615  0.5009
   43MOL    C9716141   1.958   2.529   2.943  0.4293  0.3573 -0.2459
   43MOL    C9816142   1.824   2.539   3.024  0.6467  0.6074  0.1297
   43MOL    C9916143   1.709   2.576   2.935  0.2830  0.1639 -0.2325
   43MOL   C10016144   1.575   2.609   3.009  0.3035 -0.3960  0.7145
   43MOL   C10116145   1.480   2.686   2.910  0.4309 -0.2200 -0.7052
   43MOL   C10216146   1.331   2.707   2.958 -0.5370 -0.6002  0.4392
   43MOL   O10316147   1.794   2.405   3.075  0.0394  0.0132 -0.0378
   43MOL   H10416148   1.957   2.440   2.879  0.3000  0.6880 -0.7086
   43MOL   H10516149   1.961   2.603   2.863  0.8859  1.2587  0.6011
   43MOL   H10616150   1.846   2.615   3.099 -0.8773 -0.2924  1.5104
   43MOL   H10716151   1.704   2.503   2.854 -2.2007  1.0003 -0.8777
   43MOL   H10816152   1.735   2.669   2.885 -0.6599  1.1744  1.1145
   43MOL   H10916153   1.586   2.668   3.100  0.2955  0.3761  0.2160
   43MOL   H11016154   1.522   2.521   3.046 -0.6500 -0.3540 -0.5038
   43MOL   H11116155   1.474   2.632   2.815 -0.4850  0.6441 -1.1521
   43MOL   H11216156   1.526   2.781   2.884 -1.0752  0.6038 -0.3962
   43MOL   H11316157   1.269   2.619   2.943 -1.2753 -0.1285  0.6379
   43MOL   H11416158   1.337   2.723   3.066 -0.4785 -0.4371  0.4124
   43MOL   H11516159   1.289   2.790   2.900  0.0629 -0.1599  0.6277
   43MOL   C11616160   1.870   2.359   3.194  0.0981  0.4008 -0.1322
   43MOL   C11716161   1.843   2.420   3.333  0.1006  0.4300 -0.2043
   43MOL   C11816162   1.694   2.387   3.354 -0.3635  0.7175 -0.0408
   43MOL   C11916163   1.657   2.390   3.507 -0.2399 -0.2210 -0.3377
   43MOL   C12016164   1.518   2.336   3.546  0.0389 -0.7069 -0.0864
   43MOL   C12116165   1.472   2.360   3.686  0.8370 -0.1636 -0.2259
   43MOL   O12216166   1.860   2.559   3.346  0.4793  0.4999  0.2906
   43MOL   H12316167   1.861   2.250   3.195  1.7953  0.2543  1.8344
   43MOL   H12416168   1.977   2.363   3.174  0.4026  0.3855  1.4776
   43MOL   H12516169   1.896   2.361   3.407  1.8936  2.1107 -0.1096
   43MOL   H12616170   1.635   2.460   3.298  0.7042  1.3996 -0.3085
   43MOL   H12716171   1.655   2.299   3.304 -0.7541  1.4987 -1.1287
   43MOL   H12816172   1.659   2.492   3.547  1.2392  0.3541 -1.8065
   43MOL   H12916173   1.734   2.338   3.564 -0.5759  0.0527  0.3776
   43MOL   H13016174   1.444   2.384   3.482  0.8301 -0.7613 -1.0632
   43MOL   H13116175   1.516   2.231   3.515 -2.5289 -0.3393 -1.2229
   43MOL   H13216176   1.526   2.300   3.759 -1.0277 -3.0394 -1.1572
   43MOL   H13316177   1.470   2.463   3.723  1.9983 -1.0091  2.2726
   43MOL   H13416178   1.370   2.324   3.703  1.0047  0.0194  1.2864
   43MOL   C13516179   1.999   2.602   3.351  0.3472 -0.5494  0.1603
   43MOL   C13616180   2.005   2.727   3.444  0.0662 -0.5031  0.4727
   43MOL   C13716181   2.099   2.841   3.406  0.6047  0.2131 -0.3501
   43MOL   C13816182   2.068   2.971   3.479  0.4527 -0.4283  0.0899
   43MOL   C13916183   2.143   3.087   3.412  0.1768  0.0807  0.8174
   43MOL   C14016184   2.130   3.223   3.480  0.0368 -0.6591  0.3468
   43MOL   O14116185   2.030   2.697   3.586 -0.4461  0.4801  0.5841
   43MOL   H14216186   2.075   2.529   3.378 -0.7961 -1.2565  1.5536
   43MOL   H14316187   2.026   2.641   3.253  0.2131  1.6310  0.9491
   43MOL   H14416188   1.903   2.764   3.441  0.6003  1.0329  0.9602
   43MOL   H14516189   2.202   2.817   3.433 -0.0391  0.8277  2.9006
   43MOL   H14616190   2.093   2.867   3.300  0.2602  1.5975 -0.0053
   43MOL   H14716191   2.081   2.964   3.587 -0.3083 -0.2523  0.1954
   43MOL   H14816192   1.962   2.990   3.462 -0.0068 -1.4977  1.7011
   43MOL   H14916193   2.103   3.099   3.311 -1.4061 -0.6764  1.3330
   43MOL   H15016194   2.248   3.059   3.404  0.4673  0.4206  3.1492
   43MOL   H15116195   2.024   3.250   3.481  0.0527 -0.5465 -0.8119
   43MOL   H15216196   2.177   3.220   3.578  1.4437  2.9097 -0.1355
   43MOL   H15316197   2.183   3.294   3.416 -0.4623 -1.6469 -1.1993
   43MOL   C15416198   1.941   2.601   3.640 -0.0304  0.2229  0.1061
   43MOL   C15516199   1.935   2.624   3.786  0.3761 -1.0353  0.2230
   43MOL   C15616200   1.792   2.576   3.839  0.5524 -0.5310  0.1531
   43MOL   C15716201   1.767   2.561   3.990  0.0200 -0.0739 -0.3657
   43MOL   C15816202   1.624   2.529   4.025 -0.5370  0.2007  0.0942
   43MOL   C15916203   1.598   2.554   4.179 -0.5440  0.0416  0.2001
   43MOL   O16016204   2.028   2.540   3.855 -0.1721  0.0113  0.2167
   43MOL   H16116205   1.968   2.497   3.618 -0.4197  0.2238 -0.3881
   43MOL   H16216206   1.845   2.609   3.590  0.5437 -1.2823 -1.2798
   43MOL   H16316207   1.948   2.730   3.807  2.3225 -0.9990 -1.1369
   43MOL   H16416208   1.760   2.483   3.792  0.4856 -0.9224  0.9629
   43MOL   H16516209   1.721   2.653   3.808  0.4873 -0.5472  0.2601
   43MOL   H16616210   1.798   2.656   4.032 -0.5985  0.4755 -1.1346
   43MOL   H16716211   1.821   2.471   4.019  2.9915  0.2160 -4.5212
   43MOL   H16816212   1.554   2.600   3.981  0.4038  0.8078 -0.4258
   43MOL   H16916213   1.593   2.431   3.988 -1.7392  0.7530 -0.3620
   43MOL   H17016214   1.631   2.655   4.205 -1.7027  1.3730 -3.1775
   43MOL   H17116215   1.646   2.480   4.243 -0.7260  0.7673  1.1755
   43MOL   H17216216   1.492   2.544   4.201 -1.0577 -1.5789 -2.7887
   43MOL   C17316217   2.168   2.579   3.845  0.3199 -0.1036  0.6673
   43MOL   C17416218   2.230   2.617   3.983 -0.1159  0.3476 -0.2849
   43MOL   C17516219   2.136   2.718   4.054  0.8809 -0.2339  0.0606
   43MOL   C17616220   2.198   2.777   4.180  0.3657 -1.1634 -0.3151
   43MOL   C17716221   2.120   2.901   4.231  0.3892  0.6456  0.0011
   43MOL   C17816222   1.979   2.888   4.288  0.3148 -0.1312 -0.1249
   43MOL   O17916223   2.230   2.498   4.072  0.4725  0.5222 -0.1865
   43MOL   H18016224   2.176   2.666   3.780  2.3813 -1.3564 -0.7937
   43MOL   H18116225   2.226   2.502   3.794 -1.3633 -2.5344  2.3431
   43MOL   H18216226   2.331   2.657   3.983  0.5701 -1.2869  2.6794
   43MOL   H18316227   2.091   2.791   3.986  1.4726 -1.5857 -1.8153
   43MOL   H18416228   2.047   2.657   4.069  0.1909  0.4206 -1.3278
   43MOL   H18516229   2.200   2.695   4.252  2.7581  0.9873  2.1559
   43MOL   H18616230   2.302   2.801   4.157  0.6854  1.9999  3.8036
   43MOL   H18716231   2.171   2.953   4.312  0.3573  0.4820  0.1243
   43MOL   H18816232   2.117   2.979   4.154  2.0014 -0.0637 -0.8109
   43MOL   H18916233   1.947   2.988   4.319  0.1127 -0.0765 -0.5008
   43MOL   H19016234   1.963   2.818   4.369  1.0610  1.2545  1.2464
   43MOL   H19116235   1.901   2.869   4.214  1.8392  1.1516 -2.1311
   43MOL   C19216236   2.327   2.405   4.043  0.1170 -0.1834 -0.0437
   43MOL   C19316237   2.302   2.287   4.135 -0.2330 -0.2298  0.5955
   43MOL   C19416238   2.438   2.226   4.172  0.3883 -0.2371  0.0580
   43MOL   C19516239   2.424   2.109   4.265 -0.1363 -0.6059 -0.5416
   43MOL   C19616240   2.555   2.045   4.313  0.2563  0.4805  0.4729
   43MOL   C19716241   2.539   1.942   4.419 -0.4109  0.6520  0.0943
   43MOL   O19816242   2.221   2.193   4.067 -0.0103  0.1621  0.5236
   43MOL   H19916243   2.334   2.368   3.941 -2.7001 -2.6983  0.6165
   43MOL   H20016244   2.424   2.451   4.063 -0.1700  0.9677 -1.2471
   43MOL   H20116245   2.245   2.309   4.224  0.0725  1.3177  0.4182
   43MOL   H20216246   2.481   2.177   4.084  2.0902  2.1506 -0.4877
   43MOL   H20316247   2.506   2.298   4.218 -0.5355  0.2704  0.6367
   43MOL   H20416248   2.364   2.030   4.220 -1.1953 -0.3487  0.3928
   43MOL   H20516249   2.369   2.147   4.351 -0.6623  0.6489 -1.4211
   43MOL   H20616250   2.612   2.013   4.225  0.5398  0.0516  0.8104
   43MOL   H20716251   2.626   2.113   4.360  1.5772 -0.8530  0.4445
   43MOL   H20816252   2.535   1.990   4.517 -0.1160 -0.1600  0.5170
   43MOL   H20916253   2.461   1.866   4.410  0.2187  0.0053  0.0254
   43MOL   H21016254   2.625   1.874   4.418 -2.1766 -1.6779  0.8263
   43MOL   C21116255   2.083   2.228   4.048 -0.0853 -0.3613 -0.2639
   43MOL   C21216256   1.996   2.118   3.983 -0.0048 -0.2068  0.4226
   43MOL   C21316257   1.872   2.181   3.905 -0.7196  0.0757 -0.0751
   43MOL   C21416258   1.780   2.079   3.829  0.2788 -0.5869 -0.0910
   43MOL   C21516259   1.665   2.024   3.913  0.8433  0.4450  0.2790
   43MOL   C21616260   1.555   1.955   3.830 -0.2857 -0.5625  0.2005
   43MOL   O21716261   1.952   2.026   4.083  0.4713 -0.0673 -0.3366
   43MOL   H21816262   2.067   2.318   3.988 -1.3036  0.2515  0.9443
   43MOL   H21916263   2.039   2.264   4.141  0.5789  2.1664 -0.8792
   43MOL   H22016264   2.071   2.077   3.915  0.5355  1.0944  0.2196
   43MOL   H22116265   1.806   2.222   3.981 -1.3508 -2.3601  0.7189
   43MOL   H22216266   1.900   2.260   3.836  1.9175 -0.9246 -0.2024
   43MOL   H22316267   1.748   2.130   3.738 -0.3269  0.0628  0.4903
   43MOL   H22416268   1.851   2.001   3.800 -0.1854 -1.1440  0.2682
   43MOL   H22516269   1.691   1.944   3.982 -2.0682 -0.2435  0.6660
   43MOL   H22616270   1.620   2.108   3.967  0.2915 -0.6976  1.6041
   43MOL   H22716271   1.466   1.947   3.892 -0.3119  0.8379  0.3648
   43MOL   H22816272   1.595   1.863   3.787 -0.2329 -0.1617 -0.6164
   43MOL   H22916273   1.519   2.030   3.760  2.2559 -0.2888 -0.8978
   43MOL   C23016274   2.061   1.958   4.141  0.6117 -0.0964  0.9825
   43MOL   C23116275   2.011   1.827   4.192  0.6594  0.3451  0.2904
   43MOL   C23216276   2.100   1.757   4.297  0.0839 -0.3527  0.2843
   43MOL   C23316277   2.147   1.832   4.419  0.2079 -0.3748  0.2291
   43MOL   C23416278   2.205   1.742   4.532 -0.5789 -0.1982 -0.4812
   43MOL   C23516279   2.103   1.662   4.604  0.4462  0.3563  0.1206
   43MOL   O23616280   2.001   1.731   4.095  0.4025  0.5275 -0.5641
   43MOL   H23716281   2.133   1.933   4.062 -0.0514  2.3039 -0.4474
   43MOL   H23816282   2.106   2.027   4.212 -1.7467  0.4928  1.9370
   43MOL   H23916283   1.922   1.839   4.255 -0.4522 -0.1273 -1.1735
   43MOL   H24016284   2.181   1.710   4.242 -0.1054  0.0669 -0.3585
   43MOL   H24116285   2.034   1.676   4.329  2.0587 -1.1760  2.3755
   43MOL   H24216286   2.060   1.884   4.459  0.4794 -0.7018  1.2589
   43MOL   H24316287   2.217   1.906   4.381  3.4273 -3.6154 -0.3420
   43MOL   H24416288   2.268   1.674   4.475 -2.5463  0.0963 -3.1139
   43MOL   H24516289   2.273   1.794   4.599 -1.2692  0.2861 -0.1514
   43MOL   H24616290   2.156   1.576   4.646 -1.0634 -1.2459 -1.1769
   43MOL   H24716291   2.030   1.618   4.537 -1.4558  2.1093  1.0061
   43MOL   H24816292   2.047   1.717   4.679 -2.3316 -1.6271 -0.3903
   43MOL   C24916293   1.905   1.737   3.992  0.0261  0.5160  0.6048
   43MOL   C25016294   1.902   1.609   3.903  0.1397  0.0416  0.5411
   43MOL   C25116295   1.852   1.490   3.985 -0.1361 -0.6171 -0.0538
   43MOL   C25216296   1.812   1.372   3.899 -0.1558  0.5211 -0.0180
   43MOL   C25316297   1.736   1.262   3.979  0.2888  0.0054  0.1886
   43MOL   C25416298   1.822   1.190   4.066 -0.4087  0.4366  0.5026
   43MOL   O25516299   2.030   1.589   3.846 -0.1839 -0.3888  0.0375
   43MOL   H25616300   1.806   1.748   4.036  1.4259  1.6696  3.6037
   43MOL   H25716301   1.918   1.827   3.932 -0.5481  0.1264 -0.1203
   43MOL   H25816302   1.827   1.631   3.828 -1.6996 -0.0392  2.3320
   43MOL   H25916303   1.944   1.465   4.037  0.5775 -0.3297 -1.1596
   43MOL   H26016304   1.775   1.520   4.057  0.6304 -0.7936  0.8455
   43MOL   H26116305   1.763   1.396   3.805  1.4669  2.9833 -0.2826
   43MOL   H26216306   1.908   1.345   3.853 -0.5385  1.6948 -1.5476
   43MOL   H26316307   1.656   1.307   4.037  2.1226  2.7653  0.6755
   43MOL   H26416308   1.690   1.193   3.909  0.0031  0.5676 -0.1863
   43MOL   H26516309   1.915   1.163   4.015 -1.6645  0.8458 -2.0201
   43MOL   H26616310   1.765   1.101   4.095 -2.6614  1.7925  0.2650
   43MOL   H26716311   1.848   1.241   4.159  1.6528  1.6806 -0.7198
   43MOL   C26816312   2.071   1.683   3.745  0.2771 -0.5482 -0.2798
   43MOL   C26916313   2.161   1.622   3.633 -0.1872 -0.3025 -0.2273
   43MOL   C27016314   2.244   1.728   3.561  0.0749 -0.0268 -0.6970
   43MOL   C27116315   2.313   1.663   3.439  0.4403 -0.1385 -0.3604
   43MOL   C27216316   2.447   1.730   3.408 -0.0138 -0.5669 -0.3625
   43MOL   C27316317   2.540   1.645   3.320  0.2826  0.1480  0.1321
   43MOL   O27416318   2.066   1.574   3.536 -0.0075 -0.4010 -0.1290
   43MOL   H27516319   2.125   1.762   3.795 -0.1977 -1.3247  1.4940
   43MOL   H27616320   1.987   1.726   3.689 -0.8740 -0.0935  1.7430
   43MOL   H27716321   2.235   1.553   3.673 -0.5300  0.2301  1.3498
   43MOL   H27816322   2.180   1.810   3.531  1.8860  1.6557 -0.1204
   43MOL   H27916323   2.320   1.750   3.637 -0.8063 -0.8115  0.4452
   43MOL   H28016324   2.338   1.557   3.452 -1.6731 -0.5792  0.2019
   43MOL   H28116325   2.245   1.671   3.355  1.8504  1.7127 -1.3419
   43MOL   H28216326   2.426   1.825   3.360  0.2209  0.1243  0.8901
   43MOL   H28316327   2.498   1.748   3.503 -0.0764 -1.0881 -0.2264
   43MOL   H28416328   2.646   1.670   3.326  0.5981 -0.7327 -1.4773
   43MOL   H28516329   2.552   1.542   3.354  0.6407 -0.3351 -1.4121
   43MOL   H28616330   2.520   1.649   3.213  1.9751  2.7333 -0.1467
   43MOL   C28716331   2.053   1.431   3.543 -0.3518  0.3769  0.4878
   43MOL   C28816332   1.911   1.393   3.470  0.4110 -0.1145  0.0754
   43MOL   C28916333   1.860   1.253   3.504 -0.2423  0.2763  0.4992
   43MOL   C29016334   1.710   1.230   3.458  0.5653  0.3557  0.8184
   43MOL   C29116335   1.672   1.081   3.461  0.7613 -0.1900 -0.0931
   43MOL   C29216336   1.650   1.042   3.606  0.3447 -0.1765 -0.2434
   43MOL   O29316337   1.910   1.395   3.331 -0.7797  0.4931  0.4222
   43MOL   H29416338   2.044   1.381   3.640 -2.3504 -1.9869 -0.8606
   43MOL   H29516339   2.138   1.379   3.499 -0.2584  0.7985  0.1636
   43MOL   H29616340   1.833   1.461   3.503 -0.3609 -1.7739  1.8006
   43MOL   H29716341   1.932   1.180   3.466 -2.9322 -2.1430 -0.1133
   43MOL   H29816342   1.875   1.233   3.610  1.4198  1.1325  0.4438
   43MOL   H29916343   1.644   1.296   3.513 -0.5822 -0.3524  0.3061
   43MOL   H30016344   1.689   1.266   3.358 -3.2210 -2.1817  0.6184
   43MOL   H30116345   1.746   1.011   3.421  0.0565  0.0278 -1.8679
   43MOL   H30216346   1.581   1.054   3.406 -0.4207 -1.9653  2.6547
   43MOL   H30316347   1.617   0.939   3.616 -0.6822  0.3410  1.7505
   43MOL   H30416348   1.746   1.045   3.659 -0.5740 -0.9122  1.4816
   43MOL   H30516349   1.586   1.112   3.659  2.3807  1.9599 -0.5013
   43MOL   C30616350   1.906   1.530   3.277  0.1867 -0.5000  0.1619
   43MOL   C30716351   1.867   1.518   3.125  0.4576  0.3576  0.5091
   43MOL   C30816352   1.775   1.400   3.094 -0.4378 -0.0976  0.4984
   43MOL   C30916353   1.702   1.414   2.963  0.6180 -0.5132  0.1483
   43MOL   C31016354   1.602   1.305   2.929  0.0372 -0.3054 -0.1906
   43MOL   C31116355   1.479   1.307   3.016  0.0154  0.0695 -0.5544
   43MOL   O31216356   1.976   1.528   3.032  0.3547 -0.2545 -0.2779
   43MOL   H31316357   1.833   1.583   3.337  0.0240 -1.3169  0.7044
   43MOL   H31416358   2.002   1.582   3.286 -0.2575  0.5496 -1.0362
   43MOL   H31516359   1.801   1.602   3.104 -0.8556 -0.7580  0.1083
   43MOL   H31616360   1.703   1.409   3.174  0.2671  2.7381  0.8905
   43MOL   H31716361   1.814   1.299   3.100  0.0991  0.0314 -0.5510
   43MOL   H31816362   1.659   1.515   2.960 -0.6307 -1.0051  0.9804
   43MOL   H31916363   1.782   1.415   2.889  1.6655 -1.3167  1.2460
   43MOL   H32016364   1.643   1.204   2.937  0.1076 -0.3020 -0.5179
   43MOL   H32116365   1.565   1.323   2.828  2.3469  2.6241 -0.5877
   43MOL   H32216366   1.435   1.407   3.011 -3.9743 -1.5764  0.4313
   43MOL   H32316367   1.409   1.238   2.970  1.8528 -1.9833 -0.3275
   43MOL   H32416368   1.488   1.266   3.116 -3.8942 -1.4331 -0.7394
   43MOL   C32516369   2.086   1.435   3.046 -0.3455  0.4453  0.1765
   43MOL   C32616370   2.197   1.474   2.948 -0.4300  0.2823 -0.1545
   43MOL   C32716371   2.270   1.609   2.973 -0.3161 -0.4298  0.6034
   43MOL   C32816372   2.383   1.627   2.877 -0.3411 -0.6137  0.0789
   43MOL   C32916373   2.493   1.716   2.933 -0.2154  0.0642 -0.0045
   43MOL   C33016374   2.596   1.758   2.834  0.2220  0.0039 -0.3889
   43MOL   O33116375   2.153   1.478   2.813  0.7467 -0.3548 -0.8925
   43MOL   H33216376   2.051   1.331   3.038 -0.9392  0.8017 -2.6325
   43MOL   H33316377   2.123   1.425   3.148 -1.7137  0.6896  0.7153
   43MOL   H33416378   2.269   1.392   2.959 -1.5742 -0.9952 -1.8487
   43MOL   H33516379   2.196   1.689   2.968  0.8135  0.6571  0.8938
   43MOL   H33616380   2.313   1.622   3.072 -0.4230  0.5732  0.5242
   43MOL   H33716381   2.420   1.534   2.833  0.6268 -1.4826  2.6487
   43MOL   H33816382   2.333   1.679   2.795  1.5396  2.1986  0.6500
   43MOL   H33916383   2.460   1.803   2.991  0.0061 -0.0351  0.2735
   43MOL   H34016384   2.535   1.644   3.003 -0.9792 -3.1225 -2.7311
   43MOL   H34116385   2.657   1.671   2.810  1.4347  0.3881  1.1599
   43MOL   H34216386   2.555   1.807   2.746  0.3388  2.7705  1.0399
   43MOL   H34316387   2.660   1.830   2.885 -2.6392  1.6220  1.0309
   43MOL   C34416388   2.108   1.357   2.756  0.1733  0.6959  0.1368
   43MOL   C34516389   2.061   1.400   2.617 -0.4351 -0.4885  0.0430
   43MOL   C34616390   2.065   1.277   2.521  0.7540  0.0076  0.6885
   43MOL   C34716391   2.076   1.317   2.369  0.4772 -0.3167  0.8607
   43MOL   C34816392   2.057   1.200   2.269  0.6752  0.5293 -0.3096
   43MOL   C34916393   2.178   1.115   2.257  0.8034  0.1896 -0.9590
   43MOL   O35016394   1.934   1.451   2.626  0.3275  0.1321  0.6267
   43MOL   H35116395   2.022   1.304   2.797 -1.1398  1.1937 -1.8841
   43MOL   H35216396   2.196   1.292   2.760 -0.3680  0.0341  1.9878
   43MOL   H35316397   2.136   1.469   2.578 -1.2196 -0.3103 -1.1609
   43MOL   H35416398   1.971   1.229   2.549  0.2968 -0.8653 -2.1180
   43MOL   H35516399   2.133   1.194   2.544  0.2527 -0.1094  1.7688
   43MOL   H35616400   2.181   1.344   2.365  0.6983 -1.3951 -2.0122
   43MOL   H35716401   2.007   1.395   2.338  1.0215  0.7654  2.3101
   43MOL   H35816402   2.038   1.240   2.169 -1.7600 -0.2240 -0.1939
   43MOL   H35916403   1.966   1.142   2.286  1.8622 -0.8904  1.3676
   43MOL   H36016404   2.209   1.086   2.358 -0.1880 -0.6205 -0.8788
   43MOL   H36116405   2.259   1.165   2.205 -1.3371  2.4881 -2.2032
   43MOL   H36216406   2.154   1.028   2.195 -1.2973 -0.1025  0.2068
   43MOL   C36316407   1.930   1.592   2.653 -0.4611  0.1737 -0.7369
   43MOL   C36416408   1.921   1.655   2.514  0.2358  0.1014  0.2211
   43MOL   C36516409   1.828   1.775   2.516 -0.4674 -0.1845 -0.1243
   43MOL   C36616410   1.785   1.824   2.377 -0.0819  1.2053  0.2419
   43MOL   C36716411   1.695   1.954   2.387 -0.0101  0.1112 -0.1588
   43MOL   C36816412   1.685   2.021   2.253 -0.0411  0.3201 -0.7656
   43MOL   O36916413   2.043   1.710   2.466  0.7316 -0.2874 -0.5136
   43MOL   H37016414   2.015   1.626   2.713 -0.9777 -1.2203  0.8313
   43MOL   H37116415   1.838   1.592   2.711  0.1354 -2.1455  0.2998
   43MOL   H37216416   1.874   1.578   2.454  1.5140 -0.2758 -0.3086
   43MOL   H37316417   1.734   1.762   2.570 -2.5750  1.9063 -3.1701
   43MOL   H37416418   1.879   1.849   2.579 -1.0889  0.0027  0.1662
   43MOL   H37516419   1.866   1.841   2.307 -0.1049  3.5319  0.7538
   43MOL   H37616420   1.735   1.746   2.320  1.2050  1.2953 -1.0301
   43MOL   H37716421   1.597   1.929   2.429  0.2755 -2.1899 -0.7981
   43MOL   H37816422   1.739   2.022   2.460  0.3755  0.5429 -0.7950
   43MOL   H37916423   1.638   1.950   2.184 -0.1310 -1.3278  0.9504
   43MOL   H38016424   1.618   2.106   2.264  0.4176  0.4711  1.0635
   43MOL   H38116425   1.778   2.060   2.212  1.9976 -2.5172  0.9952
   43MOL   H38216426   2.106   1.681   2.530  0.6752  0.5055 -0.0901
   44MOL     C116427   3.345   5.686   2.245 -0.9075  0.1856 -0.3830
   44MOL     C216428   3.445   5.676   2.363  0.3039  0.0861  0.5793
   44MOL     C316429   3.441   5.792   2.458 -0.0545 -0.2062 -0.0311
   44MOL     C416430   3.562   5.831   2.536  0.2074 -0.1581 -0.3370
   44MOL     C516431   3.536   5.938   2.646 -0.3239 -0.0326 -0.0136
   44MOL     C616432   3.668   5.977   2.719 -1.1414 -0.0001  0.0331
   44MOL     O716433   3.416   5.563   2.433  0.3973 -0.0424  0.2514
   44MOL     H816434   3.344   5.601   2.178  0.3230  0.6208 -0.9656
   44MOL     H916435   3.358   5.785   2.201  0.2752  0.0056 -0.4653
   44MOL    H1016436   3.542   5.669   2.314 -0.5168 -0.7944 -0.9695
   44MOL    H1116437   3.403   5.882   2.411  1.0154  0.7427  0.9137
   44MOL    H1216438   3.353   5.773   2.520 -1.3380 -0.4411 -1.8701
   44MOL    H1316439   3.605   5.742   2.582  0.5555  0.3447  0.3351
   44MOL    H1416440   3.625   5.876   2.459 -1.0927  0.3138 -1.1303
   44MOL    H1516441   3.487   6.029   2.610 -2.4958 -1.3679 -0.5503
   44MOL    H1616442   3.466   5.896   2.718  0.5411 -1.1074  0.2074
   44MOL    H1716443   3.739   6.035   2.659 -1.0026  1.7317  1.8151
   44MOL    H1816444   3.638   6.045   2.799 -1.2037 -0.4654  0.4069
   44MOL    H1916445   3.716   5.894   2.771 -2.0338 -1.7927 -1.9666
   44MOL    H2016446   3.243   5.686   2.284 -0.9576  0.9162 -0.5044
   44MOL    C2116447   3.520   5.468   2.432 -0.1024 -0.6830  1.0368
   44MOL    C2216448   3.448   5.332   2.445  0.7096  0.2817 -0.3341
   44MOL    C2316449   3.393   5.282   2.309 -0.6328  0.3423  0.0014
   44MOL    C2416450   3.274   5.187   2.322  0.0505 -0.2338 -0.1818
   44MOL    C2516451   3.194   5.148   2.194 -0.2995  0.3862 -0.3416
   44MOL    C2616452   3.073   5.055   2.226 -0.3467  0.0595  0.1850
   44MOL    O2716453   3.548   5.240   2.487 -0.4056 -0.0884  0.0771
   44MOL    H2816454   3.597   5.467   2.354  0.2800  0.5108  1.3922
   44MOL    H2916455   3.583   5.483   2.520 -0.9920 -1.1443  1.7571
   44MOL    H3016456   3.369   5.339   2.520  0.3662 -0.1907 -0.6508
   44MOL    H3116457   3.468   5.248   2.237 -1.1484  0.7891 -0.7451
   44MOL    H3216458   3.357   5.370   2.258  0.1136  1.2601  1.0320
   44MOL    H3316459   3.205   5.239   2.389 -0.2088  1.0138 -1.3954
   44MOL    H3416460   3.299   5.098   2.380  1.3160 -0.1343 -0.5616
   44MOL    H3516461   3.166   5.242   2.147  0.7383 -0.1988 -2.1869
   44MOL    H3616462   3.255   5.089   2.125 -0.1568  0.8497 -0.6123
   44MOL    H3716463   3.006   5.053   2.140 -0.3569 -0.3160  0.2001
   44MOL    H3816464   3.003   5.091   2.301 -0.0869  1.7036 -0.3427
   44MOL    H3916465   3.097   4.953   2.256  0.0070 -0.2647 -1.1686
   44MOL    C4016466   3.525   5.188   2.616 -0.1634 -0.9856 -0.2421
   44MOL    C4116467   3.610   5.061   2.637 -0.2878  0.3777  0.2717
   44MOL    C4216468   3.539   4.943   2.708  0.4950  0.7755 -0.3118
   44MOL    C4316469   3.617   4.819   2.725 -0.9868  1.2270  0.5092
   44MOL    C4416470   3.540   4.694   2.773  0.0404  0.9544 -0.5249
   44MOL    C4516471   3.441   4.715   2.898  0.3756  0.3897  0.1764
   44MOL    O4616472   3.726   5.077   2.719  0.6170  0.2955 -1.0363
   44MOL    H4716473   3.418   5.167   2.629 -0.8691  0.8094 -2.7183
   44MOL    H4816474   3.550   5.261   2.692  0.8741 -1.3664 -0.2165
   44MOL    H4916475   3.642   5.019   2.542 -1.7912  0.2518 -0.1965
   44MOL    H5016476   3.521   4.975   2.811  0.2718  1.4608 -0.5611
   44MOL    H5116477   3.450   4.909   2.655 -0.0021 -1.2997  1.7682
   44MOL    H5216478   3.695   4.830   2.800 -1.1282  0.5604  0.7576
   44MOL    H5316479   3.658   4.801   2.626  1.4787 -1.5662  1.9947
   44MOL    H5416480   3.492   4.651   2.685  1.2909  1.5361 -1.5014
   44MOL    H5516481   3.608   4.616   2.807  0.4395  2.7851  3.2264
   44MOL    H5616482   3.416   4.630   2.961  0.9189  1.6210  2.0824
   44MOL    H5716483   3.488   4.777   2.974  0.3109  2.7219 -1.6458
   44MOL    H5816484   3.346   4.760   2.868  0.9494  0.7459 -1.1117
   44MOL    C5916485   3.826   5.158   2.657 -0.1257 -0.0737 -0.4207
   44MOL    C6016486   3.959   5.107   2.718  0.6158  0.3544 -0.2227
   44MOL    C6116487   4.083   5.183   2.665  0.1919 -0.0295 -0.2040
   44MOL    C6216488   4.208   5.104   2.691  0.2957 -0.3701  0.5458
   44MOL    C6316489   4.332   5.176   2.643  1.1721  0.6943 -0.7253
   44MOL    C6416490   4.462   5.103   2.640 -0.2241  0.4385 -0.8518
   44MOL    O6516491   3.961   5.117   2.861  0.0386 -0.1130  0.0378
   44MOL    H6616492   3.809   5.262   2.685 -1.3185 -0.4680  0.3641
   44MOL    H6716493   3.827   5.154   2.548 -0.2183  2.1719 -0.5199
   44MOL    H6816494   3.964   5.004   2.683  1.4046 -0.2136  1.5295
   44MOL    H6916495   4.098   5.273   2.724 -1.3390 -0.0660  0.2630
   44MOL    H7016496   4.075   5.198   2.557 -0.1334 -2.2126 -0.5012
   44MOL    H7116497   4.196   5.012   2.633 -1.2854 -0.8424  1.5944
   44MOL    H7216498   4.224   5.067   2.792 -1.9937  0.6479  1.3098
   44MOL    H7316499   4.345   5.268   2.700  1.9734  0.1976 -0.0961
   44MOL    H7416500   4.313   5.216   2.543  1.5845  1.5342 -0.4708
   44MOL    H7516501   4.471   5.059   2.739 -1.4848  0.9270 -0.5101
   44MOL    H7616502   4.485   5.037   2.557  1.7640  0.3686 -0.2585
   44MOL    H7716503   4.534   5.184   2.631 -0.0807  0.7015  2.1270
   44MOL    C7816504   3.939   4.999   2.930 -0.4901  0.8177 -0.1101
   44MOL    C7916505   3.944   5.032   3.079  0.5711 -0.1014  0.2207
   44MOL    C8016506   3.831   5.122   3.123 -0.1264 -0.1479  0.0610
   44MOL    C8116507   3.817   5.131   3.275 -0.1073  0.0584  0.2432
   44MOL    C8216508   3.720   5.241   3.312  0.0969  0.4917  0.5829
   44MOL    C8316509   3.699   5.250   3.465 -0.1257 -0.2521 -0.2901
   44MOL    O8416510   4.064   5.105   3.112  0.1204  0.4069 -0.8056
   44MOL    H8516511   4.011   4.922   2.903  0.0809  1.6249 -0.8770
   44MOL    H8616512   3.839   4.955   2.925 -0.5031  0.8174  0.1492
   44MOL    H8716513   3.946   4.940   3.137 -1.2205 -0.7489 -0.7049
   44MOL    H8816514   3.852   5.223   3.090 -2.5360  0.0479 -1.0150
   44MOL    H8916515   3.736   5.102   3.073 -0.3192  2.0637 -0.4710
   44MOL    H9016516   3.920   5.148   3.304  0.0184 -1.1439  0.5176
   44MOL    H9116517   3.786   5.041   3.328  3.0432 -1.5503 -0.5784
   44MOL    H9216518   3.770   5.335   3.289  1.4602 -0.7490 -1.6915
   44MOL    H9316519   3.630   5.250   3.252  0.9694  4.4505 -0.2762
   44MOL    H9416520   3.795   5.285   3.503 -0.7305  1.2011 -0.0938
   44MOL    H9516521   3.692   5.156   3.521 -3.1970 -0.3367 -0.7127
   44MOL    H9616522   3.624   5.325   3.490  1.5086  1.5096 -0.5630
   44MOL    C9716523   4.179   5.029   3.127 -0.8277 -0.0704 -0.4377
   44MOL    C9816524   4.181   4.958   3.266 -0.2759  0.3126  0.0584
   44MOL    C9916525   4.176   4.805   3.256  0.4747  0.3850  0.7065
   44MOL   C10016526   4.199   4.728   3.389  0.0903  0.4044 -0.0607
   44MOL   C10116527   4.273   4.587   3.371 -0.0596  0.3975  0.4488
   44MOL   C10216528   4.420   4.610   3.316  0.1440 -0.8209 -0.6144
   44MOL   O10316529   4.295   5.002   3.345  0.5141  0.5269 -0.5609
   44MOL   H10416530   4.265   5.095   3.112 -0.6804 -0.1395  0.1116
   44MOL   H10516531   4.193   4.949   3.054 -0.3303 -0.0732 -0.3428
   44MOL   H10616532   4.090   4.984   3.321 -0.7405 -0.4751 -0.3240
   44MOL   H10716533   4.245   4.772   3.179 -0.7076 -1.3263  0.3444
   44MOL   H10816534   4.074   4.789   3.221  0.5758  1.1735  0.0413
   44MOL   H10916535   4.099   4.706   3.425  0.4534 -0.6534  0.3375
   44MOL   H11016536   4.239   4.791   3.469 -0.9494 -0.3129  1.0542
   44MOL   H11116537   4.219   4.519   3.306 -1.3524  1.6593  0.1709
   44MOL   H11216538   4.274   4.537   3.468 -0.4446 -1.8331 -0.6612
   44MOL   H11316539   4.471   4.515   3.309  0.9883 -0.5883  1.9719
   44MOL   H11416540   4.409   4.654   3.217 -2.8269 -0.4909 -0.2053
   44MOL   H11516541   4.483   4.673   3.378 -1.1413 -0.1441  0.0402
   44MOL   C11616542   4.275   5.123   3.421  0.5900  0.7193  0.6929
   44MOL   C11716543   4.405   5.183   3.467  0.3063  0.2181 -0.0180
   44MOL   C11816544   4.519   5.169   3.371 -0.0837  0.1099  0.2314
   44MOL   C11916545   4.601   5.033   3.378  0.4228 -0.4872  0.1689
   44MOL   C12016546   4.712   5.008   3.263  0.2998 -0.1911 -0.6777
   44MOL   C12116547   4.649   4.987   3.125 -0.8050 -0.2052 -0.1859
   44MOL   O12216548   4.437   5.124   3.592 -0.6106 -0.2012  0.3294
   44MOL   H12316549   4.235   5.204   3.360 -0.8669 -0.1295  0.5156
   44MOL   H12416550   4.205   5.100   3.501 -1.9807 -0.7729 -1.9081
   44MOL   H12516551   4.391   5.289   3.489  2.0047 -0.2572  3.7681
   44MOL   H12616552   4.481   5.169   3.269 -0.8077  4.0817  0.4391
   44MOL   H12716553   4.591   5.249   3.388 -1.0771  0.9866  0.4099
   44MOL   H12816554   4.536   4.946   3.367 -0.1754 -0.1533  1.0104
   44MOL   H12916555   4.650   5.026   3.474  1.2560 -0.6701 -0.2706
   44MOL   H13016556   4.781   5.092   3.268  1.1693 -0.9672  0.7120
   44MOL   H13116557   4.768   4.918   3.287 -1.4734 -1.5385 -1.4907
   44MOL   H13216558   4.724   4.934   3.066  0.9093  1.6479  0.2352
   44MOL   H13316559   4.561   4.924   3.121 -1.1094  0.2557 -0.9065
   44MOL   H13416560   4.631   5.087   3.083  1.8344  0.2558 -0.3282
   44MOL   C13516561   4.531   5.183   3.679 -0.1498  0.3588 -0.9827
   44MOL   C13616562   4.488   5.156   3.826  0.0173  0.4833 -0.4117
   44MOL   C13716563   4.559   5.248   3.929 -0.2721  0.6196 -0.2056
   44MOL   C13816564   4.529   5.198   4.070  1.1419 -0.5971  0.7377
   44MOL   C13916565   4.599   5.258   4.190  0.1217 -0.2291  0.6096
   44MOL   C14016566   4.580   5.412   4.209 -0.0480  0.4748  0.1104
   44MOL   O14116567   4.512   5.017   3.844 -0.0877 -0.2233 -0.0593
   44MOL   H14216568   4.633   5.148   3.660  0.3290 -0.1362  2.2346
   44MOL   H14316569   4.515   5.291   3.670 -1.3657  0.2946  0.2464
   44MOL   H14416570   4.382   5.172   3.840 -0.1210  0.2351 -1.1631
   44MOL   H14516571   4.667   5.248   3.912  0.1819  1.8466  2.3784
   44MOL   H14616572   4.534   5.353   3.910 -2.3371  0.2446  0.3114
   44MOL   H14716573   4.543   5.090   4.077  1.2521 -0.4372  3.7763
   44MOL   H14816574   4.421   5.210   4.079  0.5119 -3.4453 -2.2027
   44MOL   H14916575   4.705   5.241   4.170  0.3304  1.9037 -0.1929
   44MOL   H15016576   4.568   5.191   4.270 -0.1997 -0.6014  0.1791
   44MOL   H15116577   4.500   5.441   4.277  0.7130 -0.5513  1.4731
   44MOL   H15216578   4.676   5.440   4.252 -0.3821  0.0332  1.1681
   44MOL   H15316579   4.577   5.461   4.112 -1.6587  0.7532  0.2920
   44MOL   C15416580   4.390   4.946   3.849 -0.5311 -0.0082  0.0229
   44MOL   C15516581   4.428   4.801   3.884 -0.4368 -0.5331  0.1322
   44MOL   C15616582   4.323   4.710   3.954  0.4821  0.4635  0.1506
   44MOL   C15716583   4.369   4.595   4.045  0.1025  0.9333  0.4919
   44MOL   C15816584   4.462   4.632   4.158  0.2730  0.0548 -0.2619
   44MOL   C15916585   4.500   4.528   4.254 -0.6527  0.0534 -0.2479
   44MOL   O16016586   4.470   4.734   3.769  0.2907 -0.3014 -0.4675
   44MOL   H16116587   4.330   4.950   3.759  0.3730 -0.5130 -0.6085
   44MOL   H16216588   4.329   4.990   3.929  1.0209  3.9836 -0.8961
   44MOL   H16316589   4.510   4.808   3.956  1.2091 -1.6677 -1.5660
   44MOL   H16416590   4.254   4.670   3.880 -1.2684  0.4606  1.7585
   44MOL   H16516591   4.250   4.763   4.015 -1.5010 -0.9651 -0.9435
   44MOL   H16616592   4.416   4.528   3.973 -0.5048  3.3308 -2.2276
   44MOL   H16716593   4.282   4.543   4.085  0.3313  0.0195 -0.1678
   44MOL   H16816594   4.557   4.650   4.108 -0.2892 -1.0515 -1.8022
   44MOL   H16916595   4.426   4.712   4.223 -2.0882  0.1538 -1.6370
   44MOL   H17016596   4.542   4.441   4.202  0.4697 -1.4312  3.0137
   44MOL   H17116597   4.414   4.493   4.310  0.9824 -0.5086  1.9617
   44MOL   H17216598   4.575   4.563   4.325 -1.9454 -1.1808  1.7470
   44MOL   C17316599   4.600   4.759   3.720 -0.2411 -0.1030 -0.3429
   44MOL   C17416600   4.650   4.628   3.650  0.7351 -0.1922 -0.1249
   44MOL   C17516601   4.774   4.647   3.561  0.3966 -0.6978 -0.4107
   44MOL   C17616602   4.817   4.515   3.498  0.3850 -0.5001  0.2220
   44MOL   C17716603   4.936   4.521   3.403 -0.0945  0.0627 -0.5987
   44MOL   C17816604   4.904   4.601   3.276 -0.4096 -0.4347  0.3158
   44MOL   O17916605   4.677   4.521   3.752  0.6423  0.1495  0.0939
   44MOL   H18016606   4.670   4.794   3.795  1.3444 -0.6361 -1.5336
   44MOL   H18116607   4.594   4.843   3.651 -0.6962  1.3518  1.4427
   44MOL   H18216608   4.573   4.576   3.594  0.3743  0.7546 -0.5143
   44MOL   H18316609   4.762   4.723   3.484 -1.0110 -0.4734  0.0098
   44MOL   H18416610   4.852   4.691   3.624  1.7729 -1.3304 -1.6640
   44MOL   H18516611   4.833   4.439   3.575 -0.7721 -0.6090  0.3689
   44MOL   H18616612   4.733   4.464   3.451 -0.2514 -0.5719  1.4039
   44MOL   H18716613   5.011   4.567   3.468 -2.1302 -0.7217  2.3886
   44MOL   H18816614   4.957   4.417   3.380  0.9376  0.4926 -1.6635
   44MOL   H18916615   4.908   4.710   3.286  1.6741 -0.3751 -0.8720
   44MOL   H19016616   4.803   4.598   3.235 -0.3152  1.7153 -0.1518
   44MOL   H19116617   4.969   4.576   3.192 -0.4394  1.8965 -0.4581
   44MOL   C19216618   4.754   4.566   3.865 -0.6103 -0.3762  0.2677
   44MOL   C19316619   4.802   4.446   3.947  0.2700 -0.8521  0.2276
   44MOL   C19416620   4.855   4.480   4.087  0.4432 -0.2039 -0.1667
   44MOL   C19516621   4.891   4.352   4.175 -0.0062 -0.3366  0.1658
   44MOL   C19616622   4.963   4.383   4.308  0.0248 -0.1876 -0.0638
   44MOL   C19716623   4.875   4.456   4.410 -0.6279 -0.6885  0.3586
   44MOL   O19816624   4.907   4.386   3.878  0.3239  0.0102  0.4964
   44MOL   H19916625   4.837   4.629   3.835  0.7166 -1.8084  0.8484
   44MOL   H20016626   4.693   4.630   3.928  1.4786  1.3779  0.5702
   44MOL   H20116627   4.721   4.375   3.960  1.0101 -1.7174  0.1150
   44MOL   H20216628   4.936   4.552   4.074  0.8854 -0.8069 -0.8556
   44MOL   H20316629   4.779   4.534   4.142  1.4322  0.6685  0.3619
   44MOL   H20416630   4.958   4.283   4.123 -1.0939 -0.8570 -0.5678
   44MOL   H20516631   4.800   4.296   4.196 -0.0565 -1.0370 -1.8213
   44MOL   H20616632   4.992   4.285   4.347 -0.2936  0.1718  1.1187
   44MOL   H20716633   5.050   4.446   4.292  0.2438 -1.0853 -2.5768
   44MOL   H20816634   4.832   4.547   4.367  0.6194 -1.8878 -3.6896
   44MOL   H20916635   4.795   4.393   4.447 -0.1621 -1.0642  0.7324
   44MOL   H21016636   4.941   4.483   4.492 -0.0631  0.0691 -0.3316
   44MOL   C21116637   4.879   4.245   3.844  0.0492 -0.2379 -0.0657
   44MOL   C21216638   5.008   4.188   3.778 -0.4759 -0.7722  0.3692
   44MOL   C21316639   5.028   4.218   3.635  0.7132 -0.4530 -0.1505
   44MOL   C21416640   5.173   4.178   3.597 -0.1105 -0.1826 -0.6402
   44MOL   C21516641   5.183   4.145   3.449 -0.0203  0.6130  0.7962
   44MOL   C21616642   5.331   4.109   3.418 -0.2568  0.3414 -1.0773
   44MOL   O21716643   5.009   4.040   3.805 -0.2326  0.5550  0.4262
   44MOL   H21816644   4.787   4.225   3.789 -0.9780 -0.2665  1.6326
   44MOL   H21916645   4.867   4.192   3.938  0.9694 -0.6104 -0.1558
   44MOL   H22016646   5.094   4.234   3.827 -0.8089 -1.3746  1.5327
   44MOL   H22116647   4.955   4.159   3.580  1.8271 -1.1395 -0.9121
   44MOL   H22216648   5.019   4.327   3.632  1.3293 -0.4079 -0.4116
   44MOL   H22316649   5.247   4.254   3.624 -1.3608  0.7254  0.2903
   44MOL   H22416650   5.207   4.094   3.657 -0.9821  0.3903  0.6665
   44MOL   H22516651   5.123   4.064   3.410  1.5007  0.5801 -1.6035
   44MOL   H22616652   5.159   4.234   3.390  1.9323  0.4761 -0.2367
   44MOL   H22716653   5.388   4.182   3.475  0.2936 -0.0891 -1.0685
   44MOL   H22816654   5.368   4.093   3.316  2.0718  0.3603 -0.2534
   44MOL   H22916655   5.352   4.016   3.472  1.8945  1.3441 -0.1498
   44MOL   C23016656   5.104   4.000   3.899 -0.3460 -0.1203  0.3397
   44MOL   C23116657   5.113   3.841   3.913  0.4270  0.5322 -0.0310
   44MOL   C23216658   4.989   3.774   3.989  0.6854  0.2467  0.1714
   44MOL   C23316659   5.000   3.623   3.977 -0.0877  0.0707 -0.2152
   44MOL   C23416660   4.885   3.549   4.053 -0.1183  0.0753  0.8629
   44MOL   C23516661   4.871   3.402   4.011  0.2123  0.1374 -0.7827
   44MOL   O23616662   5.233   3.802   3.988 -0.3097 -0.0869 -0.9993
   44MOL   H23716663   5.203   4.032   3.866  0.9123 -1.9034  2.2433
   44MOL   H23816664   5.086   4.046   3.996 -1.4763 -2.1819  1.1400
   44MOL   H23916665   5.108   3.812   3.808  3.5172  0.6323 -0.2424
   44MOL   H24016666   4.900   3.807   3.934 -0.2248  1.3445  2.2566
   44MOL   H24116667   4.957   3.817   4.083 -1.0127  1.2766 -0.8552
   44MOL   H24216668   5.097   3.576   3.995 -0.0070 -0.5045 -2.0701
   44MOL   H24316669   4.994   3.590   3.873 -1.0993 -2.1728  0.5392
   44MOL   H24416670   4.906   3.533   4.159  2.9476 -0.4080  0.2082
   44MOL   H24516671   4.789   3.601   4.048  0.2321  0.7813  1.4242
   44MOL   H24616672   4.788   3.357   4.065 -1.3776  1.5126 -2.0293
   44MOL   H24716673   4.953   3.342   4.051 -0.9646 -1.8009 -1.2144
   44MOL   H24816674   4.855   3.377   3.906 -0.8338 -2.3917 -0.0574
   44MOL   C24916675   5.337   3.752   3.897 -0.4883  0.2212  0.3887
   44MOL   C25016676   5.461   3.715   3.980  0.4664 -0.1956 -0.1095
   44MOL   C25116677   5.559   3.832   3.980  0.5769  0.7001  0.2563
   44MOL   C25216678   5.688   3.809   4.060 -0.1875 -0.0968  0.5635
   44MOL   C25316679   5.771   3.932   4.093 -0.1169  0.3372 -0.3751
   44MOL   C25416680   5.779   4.033   3.983  0.1717  0.5503 -0.0336
   44MOL   O25516681   5.521   3.604   3.915  0.4922  0.2514  0.1376
   44MOL   H25616682   5.311   3.661   3.842 -0.0318  0.1073  0.3629
   44MOL   H25716683   5.363   3.829   3.825  0.1026 -0.2791  0.0644
   44MOL   H25816684   5.436   3.682   4.080  0.4218 -0.6062 -0.2564
   44MOL   H25916685   5.584   3.863   3.878 -1.7998  1.0658 -0.2430
   44MOL   H26016686   5.504   3.911   4.032  0.7435 -0.3668  2.1000
   44MOL   H26116687   5.661   3.768   4.157 -0.9836 -1.9316 -0.4107
   44MOL   H26216688   5.747   3.746   3.993  0.0286  1.0745 -0.3816
   44MOL   H26316689   5.736   3.975   4.187  1.3220 -0.7935  0.7045
   44MOL   H26416690   5.870   3.893   4.116 -0.3785  0.5409  1.1941
   44MOL   H26516691   5.696   4.103   3.978 -0.9458 -0.6387  1.4791
   44MOL   H26616692   5.797   4.002   3.880  0.1531  1.1057 -0.2052
   44MOL   H26716693   5.859   4.106   3.998  0.7811  0.2212 -1.5716
   44MOL   C26816694   5.568   3.492   3.998 -0.4430  0.4606  0.7661
   44MOL   C26916695   5.624   3.387   3.902 -0.4496 -0.4833 -0.1154
   44MOL   C27016696   5.729   3.446   3.806  0.1844  0.0598 -0.3167
   44MOL   C27116697   5.802   3.333   3.729 -0.3060  0.0700 -0.0446
   44MOL   C27216698   5.937   3.391   3.668 -0.0866  0.5784 -0.0075
   44MOL   C27316699   5.912   3.508   3.568  0.0729 -0.2803 -0.0386
   44MOL   O27416700   5.509   3.331   3.831  0.0587  0.7253 -1.0091
   44MOL   H27516701   5.490   3.450   4.062 -1.1629 -0.6389 -0.7928
   44MOL   H27616702   5.651   3.523   4.061 -0.9408  1.0030  1.1602
   44MOL   H27716703   5.668   3.300   3.951 -1.1094 -0.2940  0.8294
   44MOL   H27816704   5.677   3.498   3.726 -2.6759 -2.9021 -0.5017
   44MOL   H27916705   5.794   3.519   3.854  1.8793 -1.8548  0.3702
   44MOL   H28016706   5.840   3.259   3.801 -0.7854  1.7358  1.9698
   44MOL   H28116707   5.751   3.278   3.650 -0.2560  3.3234 -2.4140
   44MOL   H28216708   5.998   3.421   3.753 -0.2693  0.4997  0.1510
   44MOL   H28316709   5.992   3.313   3.613  0.1741  0.5914  0.2321
   44MOL   H28416710   5.857   3.587   3.617 -0.8313 -2.0407  1.8711
   44MOL   H28516711   6.011   3.542   3.536 -1.2571  0.5324 -3.4613
   44MOL   H28616712   5.860   3.467   3.481 -1.2870  0.6929  0.3199
   44MOL   C28716713   5.424   3.239   3.894  0.1247  0.2337 -0.1803
   44MOL   C28816714   5.364   3.156   3.785  0.0513  0.2705 -0.0326
   44MOL   C28916715   5.459   3.052   3.735  0.8438 -0.6314  0.2384
   44MOL   C29016716   5.406   2.973   3.614 -0.3568  0.2793  0.0208
   44MOL   C29116717   5.485   2.834   3.591 -0.4106 -0.1911 -0.3993
   44MOL   C29216718   5.627   2.869   3.561  0.3602 -0.2203 -0.0790
   44MOL   O29316719   5.306   3.232   3.679  0.0033 -0.3490 -0.1961
   44MOL   H29416720   5.352   3.285   3.962  2.0067  1.0056  1.3319
   44MOL   H29516721   5.488   3.181   3.960 -0.1660  2.3868  2.0694
   44MOL   H29616722   5.287   3.099   3.837  0.1905  1.7190  1.8281
   44MOL   H29716723   5.549   3.103   3.698  0.6026 -0.7907 -0.5752
   44MOL   H29816724   5.491   2.987   3.816  0.8147 -1.2478 -0.2460
   44MOL   H29916725   5.300   2.950   3.631 -1.2989  3.4331 -1.2482
   44MOL   H30016726   5.407   3.026   3.519  0.1491  0.3960  0.0935
   44MOL   H30116727   5.440   2.783   3.506  0.1431 -1.7136  0.2052
   44MOL   H30216728   5.475   2.768   3.678  2.2114 -0.2150 -0.0718
   44MOL   H30316729   5.639   2.956   3.496  0.4802  0.1774  0.4654
   44MOL   H30416730   5.685   2.886   3.653 -2.5133  3.1318  1.2400
   44MOL   H30516731   5.668   2.786   3.505  2.1236  0.8881 -0.4989
   44MOL   C30616732   5.184   3.300   3.720 -0.6825 -0.2608  0.5992
   44MOL   C30716733   5.113   3.325   3.583 -0.1855 -0.3713  0.3461
   44MOL   C30816734   5.064   3.469   3.575  0.0489 -0.3135  0.1067
   44MOL   C30916735   5.184   3.566   3.547 -0.2654  0.0753 -0.6060
   44MOL   C31016736   5.156   3.657   3.430  0.2126 -0.2236 -0.8108
   44MOL   C31116737   5.202   3.599   3.296  0.1588 -0.4611 -0.3196
   44MOL   O31216738   5.003   3.237   3.569  0.3467  0.2890 -0.5550
   44MOL   H31316739   5.124   3.249   3.796  0.3214 -1.4842  0.6039
   44MOL   H31416740   5.210   3.397   3.764 -0.8116  0.0987 -0.1166
   44MOL   H31516741   5.178   3.308   3.498 -1.3914 -0.1297 -0.6282
   44MOL   H31616742   5.017   3.496   3.670 -0.3170  0.1330 -0.1995
   44MOL   H31716743   4.984   3.469   3.500 -1.4028 -5.2944  1.4520
   44MOL   H31816744   5.188   3.623   3.640 -2.8862  1.4036 -1.2450
   44MOL   H31916745   5.283   3.523   3.531 -0.1562  0.4369 -0.9063
   44MOL   H32016746   5.222   3.741   3.447 -0.2999 -0.0729  0.4801
   44MOL   H32116747   5.051   3.686   3.424  0.1076 -0.5425 -0.5538
   44MOL   H32216748   5.126   3.526   3.267 -1.3601  1.2585 -0.7226
   44MOL   H32316749   5.222   3.676   3.222 -0.2604 -0.0359  0.0108
   44MOL   H32416750   5.298   3.550   3.312  0.8487  1.0322  0.2127
   44MOL   C32516751   5.040   3.103   3.567  0.3118 -0.2442  0.1122
   44MOL   C32616752   4.931   3.021   3.496  0.0331  0.4866  0.8243
   44MOL   C32716753   4.955   2.874   3.539 -0.4311  0.0726  0.8932
   44MOL   C32816754   4.847   2.797   3.463 -0.1522 -0.2242  0.1700
   44MOL   C32916755   4.854   2.638   3.475  0.6110  0.2720 -0.6599
   44MOL   C33016756   4.742   2.575   3.383 -0.5819  0.2979  0.6055
   44MOL   O33116757   4.938   3.047   3.358  0.4913  0.3267  0.1772
   44MOL   H33216758   5.070   3.067   3.665 -0.1654  1.0464  0.7441
   44MOL   H33316759   5.127   3.100   3.502  0.2040  1.9227 -0.1702
   44MOL   H33416760   4.832   3.041   3.536 -2.1490 -4.6290 -1.6200
   44MOL   H33516761   5.057   2.851   3.508 -0.6339  1.6194 -1.0157
   44MOL   H33616762   4.966   2.846   3.644  0.8439  1.6938  1.2164
   44MOL   H33716763   4.749   2.827   3.499  0.0516  1.6935 -0.8019
   44MOL   H33816764   4.843   2.816   3.356  0.8586 -1.0048 -0.0139
   44MOL   H33916765   4.950   2.595   3.444  2.0808 -0.3985  4.4178
   44MOL   H34016766   4.839   2.602   3.576 -0.8252  0.0179 -0.9534
   44MOL   H34116767   4.719   2.470   3.402 -0.5312  0.0362 -0.7693
   44MOL   H34216768   4.646   2.624   3.398 -0.2820  1.2109 -0.4030
   44MOL   H34316769   4.770   2.601   3.281  0.3454 -1.4205  0.4113
   44MOL   C34416770   4.853   3.147   3.303 -0.9145 -0.4735  0.1610
   44MOL   C34516771   4.889   3.174   3.153  0.1569  0.1798 -0.1903
   44MOL   C34616772   4.781   3.257   3.092 -0.0177 -0.0910 -1.5348
   44MOL   C34716773   4.798   3.284   2.948 -0.2441 -0.1645 -0.8402
   44MOL   C34816774   4.691   3.370   2.889 -0.3065 -0.6699 -0.5888
   44MOL   C34916775   4.711   3.521   2.915  0.6439 -0.1568  0.1641
   44MOL   O35016776   5.007   3.250   3.132  0.2055  0.2285  0.3889
   44MOL   H35116777   4.868   3.243   3.353 -0.8891 -0.6660  0.5203
   44MOL   H35216778   4.752   3.107   3.313 -1.2635  0.6614  1.3911
   44MOL   H35316779   4.903   3.081   3.097 -0.9427 -0.1283  0.0327
   44MOL   H35416780   4.779   3.356   3.140  0.8102  0.0771 -1.8510
   44MOL   H35516781   4.679   3.221   3.109 -0.4013  0.8765 -1.7152
   44MOL   H35616782   4.808   3.191   2.891  1.1725 -0.5641  0.0352
   44MOL   H35716783   4.893   3.336   2.943 -0.3364  0.0970  0.0664
   44MOL   H35816784   4.591   3.346   2.923  0.1918  2.3454  3.3861
   44MOL   H35916785   4.708   3.369   2.781 -1.0179  2.5388 -0.7931
   44MOL   H36016786   4.740   3.544   3.017  1.4409  1.5735 -0.4357
   44MOL   H36116787   4.620   3.580   2.902  0.0049 -1.0675  0.4261
   44MOL   H36216788   4.776   3.579   2.849 -0.5936 -0.6698 -1.5486
   44MOL   C36316789   5.135   3.184   3.125 -0.0960  0.1723  0.3236
   44MOL   C36416790   5.253   3.269   3.167  0.0947 -0.1865 -0.4759
   44MOL   C36516791   5.376   3.190   3.195 -0.3118 -0.4941 -0.4568
   44MOL   C36616792   5.469   3.269   3.304  0.1291  0.1941  0.1181
   44MOL   C36716793   5.605   3.204   3.343 -0.1566  0.3452 -0.6645
   44MOL   C36816794   5.718   3.241   3.253 -1.2309  0.4092  0.1080
   44MOL   O36916795   5.272   3.370   3.074  0.2108  0.1897  0.3175
   44MOL   H37016796   5.148   3.129   3.031 -2.1911  2.1594 -1.1936
   44MOL   H37116797   5.126   3.106   3.200 -2.1097  0.1982  0.1455
   44MOL   H37216798   5.218   3.322   3.256 -1.4603 -0.1945 -1.0807
   44MOL   H37316799   5.341   3.090   3.222 -3.4943  0.7583  0.3278
   44MOL   H37416800   5.444   3.179   3.110  0.4803 -0.2306  0.1441
   44MOL   H37516801   5.489   3.365   3.256 -1.5793  0.2229 -0.5964
   44MOL   H37616802   5.403   3.277   3.390 -2.7668 -1.7498 -1.8241
   44MOL   H37716803   5.623   3.230   3.448  1.0812  1.3744 -1.1187
   44MOL   H37816804   5.590   3.096   3.342  0.5246  0.2288  0.4049
   44MOL   H37916805   5.745   3.343   3.280  1.2625  0.5379 -2.6876
   44MOL   H38016806   5.807   3.185   3.285  0.2898  1.9271 -1.3478
   44MOL   H38116807   5.686   3.227   3.150  1.5009  2.2047 -1.0470
   44MOL   H38216808   5.189   3.399   3.039  0.1506 -0.1407  0.1812
   45MOL     C116809   3.324   6.496   4.175  0.4583 -0.3468 -0.1968
   45MOL     C216810   3.355   6.645   4.128  0.0618 -0.5769  0.2428
   45MOL     C316811   3.506   6.658   4.083 -0.1291  0.2458  0.0412
   45MOL     C416812   3.542   6.585   3.962 -0.1015  0.0279  0.7452
   45MOL     C516813   3.673   6.619   3.895 -0.5876  0.9947  0.0680
   45MOL     C616814   3.789   6.550   3.971 -0.0546 -0.0044  0.8060
   45MOL     O716815   3.269   6.678   4.023  0.1550 -0.1976 -0.4994
   45MOL     H816816   3.219   6.486   4.202  0.1446  2.0980 -0.3892
   45MOL     H916817   3.389   6.463   4.257  1.2031  1.0571 -0.2007
   45MOL    H1016818   3.356   6.714   4.212  0.2046 -0.2733 -0.0067
   45MOL    H1116819   3.517   6.766   4.076  3.0237  0.1237  2.0990
   45MOL    H1216820   3.571   6.638   4.168 -1.1675 -1.3494  0.4715
   45MOL    H1316821   3.547   6.483   4.000 -1.1090 -0.0234  0.7380
   45MOL    H1416822   3.458   6.577   3.893  0.1260  1.8696  0.2132
   45MOL    H1516823   3.675   6.580   3.793 -2.0094 -1.0661  0.7863
   45MOL    H1616824   3.679   6.728   3.888  1.9422  0.9694  1.2596
   45MOL    H1716825   3.795   6.602   4.066 -0.7843 -1.5364  1.7007
   45MOL    H1816826   3.784   6.441   3.981 -0.0070 -0.2220 -1.2339
   45MOL    H1916827   3.876   6.576   3.910  0.6785 -3.0681  0.4623
   45MOL    H2016828   3.335   6.421   4.098  0.1510  0.3607 -0.9368
   45MOL    C2116829   3.147   6.740   4.062 -0.1219 -0.2909  0.1482
   45MOL    C2216830   3.060   6.789   3.944  0.0042 -0.4045  0.0955
   45MOL    C2316831   2.910   6.757   3.970  0.0011  0.3184 -0.3886
   45MOL    C2416832   2.803   6.791   3.861  0.3945 -0.9587 -0.1604
   45MOL    C2516833   2.664   6.722   3.890  0.1160 -0.5172 -0.0556
   45MOL    C2616834   2.548   6.785   3.815  0.8804  0.3457 -0.0433
   45MOL    O2716835   3.074   6.927   3.931  0.4771  0.1566 -0.0788
   45MOL    H2816836   3.100   6.659   4.117 -0.6377  1.0527  1.7368
   45MOL    H2916837   3.153   6.808   4.147  1.3863  0.9006 -0.8902
   45MOL    H3016838   3.088   6.739   3.851 -0.1645  0.6475 -0.5313
   45MOL    H3116839   2.883   6.816   4.058  0.1007  0.6892 -0.6072
   45MOL    H3216840   2.899   6.654   4.003  0.8353  0.9254  1.9204
   45MOL    H3316841   2.844   6.765   3.764  2.9950  2.4748 -0.0740
   45MOL    H3416842   2.794   6.900   3.864 -0.6199 -1.0846  2.3026
   45MOL    H3516843   2.675   6.616   3.870 -0.8784 -0.8420  1.0579
   45MOL    H3616844   2.641   6.745   3.994  3.0364 -0.5881  0.6392
   45MOL    H3716845   2.452   6.757   3.858 -1.0874 -0.6061 -4.6935
   45MOL    H3816846   2.554   6.749   3.712  3.5118 -2.2169  0.9369
   45MOL    H3916847   2.551   6.894   3.818  1.1844  0.3306  0.2541
   45MOL    C4016848   3.192   6.997   3.885 -0.2118 -0.5617 -0.5076
   45MOL    C4116849   3.172   7.150   3.902 -0.3015 -0.4132  1.2334
   45MOL    C4216850   3.241   7.231   3.792 -0.4066  0.1723  0.0596
   45MOL    C4316851   3.226   7.384   3.809  0.0999 -0.0980 -0.1452
   45MOL    C4416852   3.308   7.471   3.711  0.1906 -0.7573 -0.0752
   45MOL    C4516853   3.276   7.456   3.552 -0.5088  0.2770  0.0530
   45MOL    O4616854   3.219   7.194   4.029  0.2114  0.3805  0.3643
   45MOL    H4716855   3.196   6.971   3.779 -2.0083  2.3649 -1.3387
   45MOL    H4816856   3.281   6.959   3.935  0.5765 -0.0778 -1.5277
   45MOL    H4916857   3.069   7.181   3.891  0.3545  0.8235 -2.0007
   45MOL    H5016858   3.345   7.201   3.800 -0.5061 -0.7238 -1.8796
   45MOL    H5116859   3.206   7.201   3.693 -0.8243 -0.1667  0.3084
   45MOL    H5216860   3.273   7.410   3.904  1.4052  1.4902 -1.2172
   45MOL    H5316861   3.121   7.410   3.813  0.0584 -0.2541 -0.2194
   45MOL    H5416862   3.298   7.578   3.729 -1.3977 -1.0919  1.1311
   45MOL    H5516863   3.416   7.454   3.714  0.4334  0.0750 -2.7278
   45MOL    H5616864   3.282   7.350   3.527  1.0458  0.2913  0.3066
   45MOL    H5716865   3.172   7.479   3.531 -0.0522  1.6826 -0.6879
   45MOL    H5816866   3.351   7.507   3.492 -1.3542  0.8122 -0.5490
   45MOL    C5916867   3.136   7.161   4.138  1.2771  0.6680  0.5043
   45MOL    C6016868   3.193   7.228   4.270  0.3546  1.1246  0.0004
   45MOL    C6116869   3.346   7.215   4.282  0.0114 -0.7536 -0.0825
   45MOL    C6216870   3.393   7.067   4.321 -0.0374  0.2053  0.8398
   45MOL    C6316871   3.543   7.047   4.353  0.3952  0.1921  0.3880
   45MOL    C6416872   3.593   6.894   4.375  0.1051  0.3709 -0.2945
   45MOL    O6516873   3.149   7.363   4.288  0.4175  0.1263 -0.0312
   45MOL    H6616874   3.148   7.054   4.150  1.5790  0.6498  0.0662
   45MOL    H6716875   3.032   7.179   4.114  1.3224 -1.2371 -1.1779
   45MOL    H6816876   3.158   7.176   4.360 -0.8604  0.3778 -0.8865
   45MOL    H6916877   3.393   7.276   4.359  1.2635 -2.6824  0.7252
   45MOL    H7016878   3.379   7.244   4.182  1.4106 -0.1980  0.5261
   45MOL    H7116879   3.362   6.989   4.252  4.5680 -0.1765 -0.9319
   45MOL    H7216880   3.339   7.037   4.411 -0.0357  0.0768  0.7991
   45MOL    H7316881   3.573   7.106   4.439 -0.3757 -0.0305  0.8161
   45MOL    H7416882   3.593   7.091   4.267 -0.3271  0.9597  0.3518
   45MOL    H7516883   3.522   6.852   4.447  1.4717 -3.6633 -1.1948
   45MOL    H7616884   3.585   6.831   4.287 -1.0581  0.8987 -0.5770
   45MOL    H7716885   3.698   6.895   4.406  0.1714  0.1657 -0.5170
   45MOL    C7816886   3.196   7.461   4.195 -0.4031 -0.3994 -0.1363
   45MOL    C7916887   3.170   7.602   4.243  0.5173  0.2984  0.4227
   45MOL    C8016888   3.159   7.705   4.130  0.3826  0.3353 -0.1814
   45MOL    C8116889   3.029   7.710   4.050  0.1032 -0.1764 -0.3302
   45MOL    C8216890   3.023   0.019   3.932  0.1417 -0.2044  0.1666
   45MOL    C8316891   3.098   7.758   3.809 -0.5257 -0.2104  1.1542
   45MOL    O8416892   3.277   7.663   4.316  0.4269  0.2229 -0.1131
   45MOL    H8516893   3.123   7.445   4.116 -1.8775  1.8820  0.7296
   45MOL    H8616894   3.295   7.446   4.151  0.8944  0.0517  2.4938
   45MOL    H8716895   3.079   7.591   4.303 -0.6059  1.1113 -1.0744
   45MOL    H8816896   3.179   0.020   4.167 -1.1149  1.5787 -2.5961
   45MOL    H8916897   3.244   7.693   4.063 -1.5695 -2.7350 -2.2613
   45MOL    H9016898   2.950   7.736   4.121  0.1688  0.5221 -0.5110
   45MOL    H9116899   2.997   7.617   4.003  1.3911 -0.2810 -1.0112
   45MOL    H9216900   2.920   0.031   3.901  1.0294  1.2592 -2.3287
   45MOL    H9316901   3.064   0.115   3.964  1.0985 -0.0864 -1.3766
   45MOL    H9416902   3.207   7.763   3.813 -0.3744 -0.7857 -1.4325
   45MOL    H9516903   3.078   0.058   3.744 -0.2889  0.3741  1.8370
   45MOL    H9616904   3.064   7.662   3.770 -0.7320 -0.4777  1.9762
   45MOL    C9716905   3.333   7.599   4.423  0.3111  0.2338 -0.6327
   45MOL    C9816906   3.420   7.687   4.525 -1.3281 -0.9770 -0.1176
   45MOL    C9916907   3.445   7.614   4.658 -0.3019  0.8451  0.3179
   45MOL   C10016908   3.522   7.686   4.768  0.0387  0.3794  0.2730
   45MOL   C10116909   3.577   7.608   4.885 -0.2227 -0.0076 -0.2778
   45MOL   C10216910   3.683   7.494   4.850 -0.0469  0.0086 -0.2362
   45MOL   O10316911   3.550   7.728   4.480  0.3012 -0.0411 -0.2998
   45MOL   H10416912   3.395   7.516   4.388  2.3937  1.1682  0.8099
   45MOL   H10516913   3.255   7.547   4.479  2.7792 -0.0801  2.6467
   45MOL   H10616914   3.361   7.778   4.536 -0.4799 -0.3451 -0.7395
   45MOL   H10716915   3.513   7.534   4.629  1.0610  1.8785  0.6236
   45MOL   H10816916   3.352   7.571   4.696 -0.7272 -0.5756 -2.2258
   45MOL   H10916917   3.454   7.766   4.797  0.5518  0.8858  0.1026
   45MOL   H11016918   3.603   7.747   4.727 -0.7332  0.1945 -1.5684
   45MOL   H11116919   3.492   7.566   4.941  1.5149 -1.2377  1.5105
   45MOL   H11216920   3.623   7.676   4.956  1.6003 -1.7700  0.2810
   45MOL   H11316921   3.705   7.430   4.935 -0.2722 -0.3651 -0.4641
   45MOL   H11416922   3.650   7.434   4.765 -0.1981  0.5447 -0.5615
   45MOL   H11516923   3.766   7.552   4.809  1.4512  0.1575  2.8795
   45MOL   C11616924   3.553   0.005   4.351  0.1938 -0.3946 -0.9517
   45MOL   C11716925   3.476   0.137   4.331 -0.1352 -0.7713  0.4368
   45MOL   C11816926   3.468   0.174   4.179 -0.4273 -0.0579 -0.3428
   45MOL   C11916927   3.356   0.283   4.154  0.7287  0.0221  0.2157
   45MOL   C12016928   3.337   0.299   3.999 -0.6722 -0.3433 -0.2747
   45MOL   C12116929   3.227   0.388   3.965 -0.4534 -0.1114  0.9738
   45MOL   O12216930   3.538   0.241   4.401 -0.1256 -0.2948 -0.4963
   45MOL   H12316931   3.657   0.030   4.330  0.0852 -0.7747 -1.9797
   45MOL   H12416932   3.520   7.721   4.273 -1.2719  1.6422 -2.1844
   45MOL   H12516933   3.369   0.120   4.344 -0.2170  0.8036  1.9832
   45MOL   H12616934   3.567   0.196   4.139  0.5093 -0.9549  1.4029
   45MOL   H12716935   3.441   0.092   4.112 -1.1238 -0.1526  0.0431
   45MOL   H12816936   3.388   0.379   4.195  0.5819 -0.0799  0.5661
   45MOL   H12916937   3.264   0.249   4.200  0.6086 -0.5453 -0.4408
   45MOL   H13016938   3.434   0.335   3.966 -0.8501  0.9534  0.5735
   45MOL   H13116939   3.313   0.199   3.962  2.1788 -0.7760 -1.0690
   45MOL   H13216940   3.136   0.356   4.015 -0.3025 -0.9920  0.6849
   45MOL   H13316941   3.263   0.489   3.988  4.4181 -0.9297 -2.2976
   45MOL   H13416942   3.213   0.394   3.857  0.9255 -1.1354  0.7288
   45MOL   C13516943   3.548   0.222   4.544 -0.3323 -0.8129  0.4904
   45MOL   C13616944   3.591   0.341   4.634 -0.3552  0.7605 -0.3485
   45MOL   C13716945   3.485   0.452   4.610 -0.0885  0.2027  0.1757
   45MOL   C13816946   3.492   0.604   4.668 -0.4030  0.3119  0.0681
   45MOL   C13916947   3.360   0.681   4.663 -0.6489 -0.1091  0.3063
   45MOL   C14016948   3.376   0.811   4.737 -0.1973 -0.4532  0.1441
   45MOL   O14116949   3.719   0.393   4.596 -0.0975 -0.7117 -0.2783
   45MOL   H14216950   3.445   0.205   4.577 -1.1567  1.5132 -0.7215
   45MOL   H14316951   3.608   0.133   4.564  2.6704  1.0318 -0.0173
   45MOL   H14416952   3.584   0.295   4.733  0.7091  2.8487  0.7506
   45MOL   H14516953   3.463   0.460   4.504 -0.1548  0.4542  0.2093
   45MOL   H14616954   3.388   0.419   4.648 -0.1852  1.9828  1.5224
   45MOL   H14716955   3.567   0.659   4.612  0.1789  0.2390  0.7608
   45MOL   H14816956   3.529   0.600   4.771 -0.4394 -0.8380  0.0412
   45MOL   H14916957   3.278   0.637   4.720 -2.5828 -0.9217 -3.0119
   45MOL   H15016958   3.321   0.693   4.562 -0.8555 -1.0877  0.2590
   45MOL   H15116959   3.458   0.861   4.685 -0.7166 -2.4112 -2.6792
   45MOL   H15216960   3.288   0.872   4.718 -1.5787 -2.8982 -1.4933
   45MOL   H15316961   3.403   0.794   4.841  0.3164 -1.9672 -0.2305
   45MOL   C15416962   3.828   0.331   4.659 -0.7903  0.0962 -0.6264
   45MOL   C15516963   3.952   0.410   4.614  0.8359  0.1090  0.2943
   45MOL   C15616964   4.059   0.419   4.718  0.6498  0.2711 -0.1787
   45MOL   C15716965   4.018   0.508   4.843 -0.1757 -0.1920 -0.5154
   45MOL   C15816966   4.130   0.539   4.938 -0.2773 -0.2453  0.1768
   45MOL   C15916967   4.087   0.594   5.073 -0.0118 -0.0350  0.3467
   45MOL   O16016968   4.005   0.361   4.494  0.0260  1.1285 -0.2455
   45MOL   H16116969   3.840   0.224   4.641 -1.4070 -0.5345  2.4065
   45MOL   H16216970   3.809   0.355   4.763  0.6952 -0.0565 -0.3145
   45MOL   H16316971   3.931   0.514   4.591 -0.9528 -0.2380  0.2929
   45MOL   H16416972   4.154   0.443   4.670  0.5837 -1.1974 -1.0786
   45MOL   H16516973   4.082   0.319   4.753 -1.1277 -0.1250 -0.0813
   45MOL   H16616974   3.945   0.452   4.903 -0.5471 -1.0462 -1.7254
   45MOL   H16716975   3.975   0.601   4.807 -0.2645 -0.0826 -0.1255
   45MOL   H16816976   4.182   0.447   4.965 -1.3497 -0.5928  1.1102
   45MOL   H16916977   4.215   0.596   4.900  1.0798 -2.4029 -0.0760
   45MOL   H17016978   4.047   0.519   5.140 -1.3544  1.1013  0.8492
   45MOL   H17116979   4.001   0.659   5.055 -0.2401 -0.6675 -0.9212
   45MOL   H17216980   4.166   0.650   5.123  0.5121 -1.3242  0.9663
   45MOL   C17316981   3.927   0.387   4.381  0.1463  0.4589 -0.1770
   45MOL   C17416982   3.991   0.328   4.249 -0.1288  0.1316  0.1230
   45MOL   C17516983   3.887   0.289   4.138 -0.3015  0.4434 -0.3153
   45MOL   C17616984   3.948   0.198   4.036 -0.5907  0.8714 -0.0459
   45MOL   C17716985   4.051   0.273   3.943 -0.0098  0.2243 -0.1163
   45MOL   C17816986   4.084   0.200   3.809 -0.1372 -0.2934  0.1538
   45MOL   O17916987   4.087   0.418   4.193  0.0569  0.1235 -0.5555
   45MOL   H18016988   3.894   0.489   4.363 -0.0076  0.4333 -0.0409
   45MOL   H18116989   3.837   0.327   4.389  0.6116 -0.1133  0.8981
   45MOL   H18216990   4.044   0.235   4.272 -1.1941 -0.2314  1.2472
   45MOL   H18316991   3.807   0.231   4.184 -0.2066 -0.8373 -1.7248
   45MOL   H18416992   3.841   0.375   4.089  0.5099  0.7226 -0.6088
   45MOL   H18516993   3.977   0.103   4.081 -0.7813  0.9206  0.1866
   45MOL   H18616994   3.862   0.182   3.971 -1.2479  0.6131  0.8713
   45MOL   H18716995   4.010   0.373   3.926 -2.1204 -1.1212 -3.3497
   45MOL   H18816996   4.143   0.291   3.999 -0.3987  0.3859  0.4822
   45MOL   H18916997   4.024   0.232   3.723  0.4483  0.6888  0.0976
   45MOL   H19016998   4.107   0.096   3.828  0.4784  0.1747  2.0469
   45MOL   H19116999   4.180   0.241   3.777  0.1827 -1.4972 -0.4544
   45MOL   C19217000   4.206   0.419   4.269  0.0660 -0.5929  0.6098
   45MOL   C19317001   4.304   0.509   4.190  0.1726 -0.1282  0.0989
   45MOL   C19417002   4.455   0.477   4.201  0.0572  0.0275 -0.6829
   45MOL   C19517003   4.543   0.552   4.096  0.2040 -0.2441 -0.2562
   45MOL   C19617004   4.696   0.541   4.136 -0.4170 -0.1099 -0.4288
   45MOL   C19717005   4.780   0.593   4.024 -0.4723 -1.2621  0.4251
   45MOL   O19817006   4.291   0.642   4.234 -0.0073  0.5853  0.2464
   45MOL   H19917007   4.202   0.461   4.369 -1.7445  0.0228  0.2844
   45MOL   H20017008   4.244   0.316   4.270  1.1139 -0.2090  1.5339
   45MOL   H20117009   4.280   0.497   4.084 -2.6483 -0.3823  0.7172
   45MOL   H20217010   4.489   0.491   4.303  0.3948  2.5520 -1.1003
   45MOL   H20317011   4.467   0.371   4.182 -1.6242 -0.4477  0.7237
   45MOL   H20417012   4.520   0.658   4.105  1.8606  0.1312 -0.2947
   45MOL   H20517013   4.533   0.516   3.993  0.0140 -0.9153 -0.0058
   45MOL   H20617014   4.702   0.603   4.226  3.6295 -0.7735 -0.1828
   45MOL   H20717015   4.716   0.439   4.166 -1.3041 -0.2754 -0.3792
   45MOL   H20817016   4.885   0.600   4.051 -0.6022  1.0639  0.4966
   45MOL   H20917017   4.786   0.512   3.952  2.0657 -1.4374  0.8010
   45MOL   H21017018   4.751   0.679   3.964  0.1702 -1.1617  0.2643
   45MOL   C21117019   4.159   0.705   4.222 -0.3489  0.2022 -0.5936
   45MOL   C21217020   4.107   0.700   4.078  0.1749  0.4109 -1.1117
   45MOL   C21317021   4.211   0.764   3.977  0.0144  0.0138 -0.6301
   45MOL   C21417022   4.166   0.750   3.824  0.0498 -0.5856 -0.3251
   45MOL   C21517023   4.246   0.853   3.738 -0.0276  0.0950  0.1724
   45MOL   C21617024   4.283   0.806   3.592 -0.2409  0.5811  0.1321
   45MOL   O21717025   3.983   0.776   4.071  0.2008  0.1625  0.0962
   45MOL   H21817026   4.168   0.809   4.253  0.6784  0.0206 -0.2426
   45MOL   H21917027   4.093   0.660   4.296  1.9130  0.1535  1.4528
   45MOL   H22017028   4.081   0.600   4.043  1.5966 -0.4125  0.1148
   45MOL   H22117029   4.213   0.872   3.988  2.0824  0.3217 -3.3828
   45MOL   H22217030   4.310   0.722   3.995 -0.8600 -1.6045  0.5124
   45MOL   H22317031   4.193   0.654   3.779  1.9916 -0.3653  0.3172
   45MOL   H22417032   4.061   0.779   3.818 -0.0799 -0.5895  1.7266
   45MOL   H22517033   4.199   0.950   3.727 -2.5930 -1.1346 -0.0461
   45MOL   H22617034   4.334   0.886   3.794  0.5117 -0.5626 -0.2871
   45MOL   H22717035   4.204   0.792   3.519 -1.3325  1.8218  1.0347
   45MOL   H22817036   4.354   0.724   3.581 -1.1382 -0.0099 -1.2742
   45MOL   H22917037   4.347   0.880   3.543  0.6629 -2.1378 -2.9370
   45MOL   C23017038   3.886   0.716   4.157 -0.0886 -0.1483 -0.0428
   45MOL   C23117039   3.746   0.740   4.098 -0.1260 -0.1334  0.2652
   45MOL   C23217040   3.641   0.745   4.203  0.3512 -0.0696  0.5214
   45MOL   C23317041   3.518   0.817   4.148 -0.2324  0.2198  0.3217
   45MOL   C23417042   3.388   0.767   4.223 -0.1367  0.0073 -0.5646
   45MOL   C23517043   3.265   0.854   4.207  0.0916  0.3572 -0.4818
   45MOL   O23617044   3.715   0.633   4.012 -0.4697 -0.1383 -0.4304
   45MOL   H23717045   3.917   0.613   4.170  4.7291  1.4154  2.1919
   45MOL   H23817046   3.892   0.766   4.254 -2.4331  0.0671  0.0101
   45MOL   H23917047   3.739   0.830   4.038 -2.3733 -0.5734 -0.1556
   45MOL   H24017048   3.676   0.803   4.289 -1.7353 -0.3444  1.5984
   45MOL   H24117049   3.618   0.643   4.233 -1.9019 -0.3301 -1.9529
   45MOL   H24217050   3.515   0.808   4.040 -1.3913  0.0537  0.3686
   45MOL   H24317051   3.540   0.922   4.165  0.9088 -0.0924  0.8623
   45MOL   H24417052   3.356   0.675   4.174 -0.0783 -1.1906  1.5782
   45MOL   H24517053   3.388   0.743   4.329 -2.1260 -0.2013 -0.5807
   45MOL   H24617054   3.243   0.834   4.102  1.5572 -1.8314 -0.3917
   45MOL   H24717055   3.283   0.962   4.206 -2.4326  0.8063 -0.5889
   45MOL   H24817056   3.172   0.819   4.252 -0.4353  0.5626 -1.4101
   45MOL   C24917057   3.792   0.623   3.894 -0.8954  0.5395  0.0934
   45MOL   C25017058   3.717   0.543   3.785  0.2929  0.1433  0.4050
   45MOL   C25117059   3.700   0.390   3.814 -1.2475 -0.0581 -0.4723
   45MOL   C25217060   3.603   0.323   3.716  0.4902  0.1191 -0.4323
   45MOL   C25317061   3.584   0.173   3.734  0.2113  0.4913  0.6512
   45MOL   C25417062   3.445   0.126   3.674  0.2310  0.2489 -0.4790
   45MOL   O25517063   3.753   0.581   3.646  0.1156  0.4164 -0.0050
   45MOL   H25617064   3.784   0.728   3.866  2.9294  0.8616 -0.1058
   45MOL   H25717065   3.898   0.600   3.906 -0.0823  2.2861 -3.0209
   45MOL   H25817066   3.617   0.586   3.794  1.0851  2.0156  0.4928
   45MOL   H25917067   3.794   0.337   3.796 -1.2003 -0.1128 -0.0559
   45MOL   H26017068   3.669   0.377   3.917  0.5653  1.6174  0.3164
   45MOL   H26117069   3.510   0.377   3.731  0.0235 -0.6928 -0.4182
   45MOL   H26217070   3.634   0.362   3.619 -0.8926  4.5339  0.7704
   45MOL   H26317071   3.662   0.116   3.685  0.5438  0.5118  1.1610
   45MOL   H26417072   3.587   0.149   3.840 -2.2102 -2.3172  0.1597
   45MOL   H26517073   3.429   0.026   3.714  0.5085  0.1226 -0.6807
   45MOL   H26617074   3.445   0.129   3.565  0.8604  0.7479 -0.4693
   45MOL   H26717075   3.358   0.175   3.717  2.0447  4.3894 -1.3121
   45MOL   C26817076   3.889   0.539   3.616  0.1200  0.3090  0.8493
   45MOL   C26917077   3.922   0.586   3.478 -0.5288  0.6024  0.1834
   45MOL   C27017078   4.035   0.499   3.423  0.3130  0.2544 -0.4143
   45MOL   C27117079   4.061   0.526   3.277 -0.1533  0.3510  0.5537
   45MOL   C27217080   4.154   0.424   3.211 -0.5503  0.0082 -0.4175
   45MOL   C27317081   4.148   0.450   3.057  0.1514  0.2477 -0.0862
   45MOL   O27417082   3.972   0.719   3.477  0.3026 -0.1691 -0.0621
   45MOL   H27517083   3.886   0.430   3.617  3.0999  0.1640 -0.5191
   45MOL   H27617084   3.965   0.562   3.690 -1.1121 -2.0507  2.9328
   45MOL   H27717085   3.838   0.569   3.410  0.4382 -0.1963 -0.8222
   45MOL   H27817086   4.125   0.520   3.481 -0.1686 -1.0712  0.8428
   45MOL   H27917087   4.018   0.392   3.426 -1.5968  0.5095 -1.5207
   45MOL   H28017088   3.962   0.534   3.230 -1.2427 -1.3612  2.4936
   45MOL   H28117089   4.103   0.627   3.278  0.6373  0.0341 -0.5092
   45MOL   H28217090   4.252   0.437   3.258 -1.7593 -0.2769  2.2628
   45MOL   H28317091   4.116   0.324   3.230 -0.2901 -0.0803 -0.3564
   45MOL   H28417092   4.189   0.548   3.032  0.3089 -0.5313 -3.1058
   45MOL   H28517093   4.220   0.379   3.018 -0.2826 -2.1241  3.1706
   45MOL   H28617094   4.050   0.437   3.010  1.5077  0.6668 -3.1212
   45MOL   C28717095   3.868   0.813   3.501  0.3718  0.1834  0.3714
   45MOL   C28817096   3.921   0.957   3.472  1.0126  0.0348 -0.7452
   45MOL   C28917097   3.843   1.063   3.554 -0.0286 -0.5742 -0.5572
   45MOL   C29017098   3.846   1.041   3.708 -0.4926  0.1779  0.6157
   45MOL   C29117099   3.795   1.160   3.787 -0.2976  0.6738  0.0283
   45MOL   C29217100   3.794   1.144   3.937 -0.0990 -0.2030 -0.0866
   45MOL   O29317101   3.905   0.986   3.331 -0.0502  0.4902  0.4542
   45MOL   H29417102   3.848   0.802   3.608  0.2260  0.4808  0.3744
   45MOL   H29517103   3.780   0.784   3.445  0.3204  2.0993 -0.5665
   45MOL   H29617104   4.025   0.967   3.503  0.2442  1.5228  1.5624
   45MOL   H29717105   3.875   1.160   3.514 -1.0839 -1.2365 -3.1354
   45MOL   H29817106   3.738   1.067   3.523 -1.1133  1.1946  3.1055
   45MOL   H29917107   3.781   0.961   3.743 -0.2441 -0.9415 -1.3895
   45MOL   H30017108   3.944   1.012   3.744  0.5539  0.5440 -1.8037
   45MOL   H30117109   3.700   1.207   3.759 -1.3993 -0.8260  1.1531
   45MOL   H30217110   3.870   1.237   3.773 -0.1061  0.2080 -1.5784
   45MOL   H30317111   3.762   1.239   3.980  1.6351 -0.5131  1.9581
   45MOL   H30417112   3.730   1.063   3.975  0.3301  0.1173  1.3368
   45MOL   H30517113   3.891   1.120   3.980  0.7180  0.3047 -1.6141
   45MOL   C30617114   3.943   0.887   3.238  0.1651  0.4113 -0.2495
   45MOL   C30717115   3.962   0.939   3.099 -0.2491  0.5200  0.3111
   45MOL   C30817116   4.042   1.074   3.099 -0.2360 -0.1464 -0.6250
   45MOL   C30917117   4.069   1.122   2.962  0.1594  0.4202  0.0954
   45MOL   C31017118   4.148   1.251   2.963  0.9472  0.2784  0.0624
   45MOL   C31117119   4.067   1.372   3.002  0.6299  0.8021  0.0008
   45MOL   O31217120   3.844   0.958   3.020 -0.1232 -0.0582  0.5548
   45MOL   H31317121   4.041   0.851   3.267 -0.9198 -1.3327  1.3445
   45MOL   H31417122   3.875   0.802   3.236  1.0358 -0.3312  1.1941
   45MOL   H31517123   4.029   0.869   3.050  1.6122  0.9701  2.1521
   45MOL   H31617124   4.138   1.078   3.150 -0.0649  2.3759 -1.1050
   45MOL   H31717125   3.982   1.147   3.153  1.5321  1.8681 -1.2979
   45MOL   H31817126   4.124   1.039   2.917 -0.1518 -0.2604  0.9418
   45MOL   H31917127   3.981   1.122   2.897  0.3262 -0.5194 -0.1408
   45MOL   H32017128   4.183   1.271   2.862 -0.2807  0.7256 -0.2830
   45MOL   H32117129   4.233   1.257   3.032 -0.5340  1.6317  1.8095
   45MOL   H32217130   4.046   1.384   3.108 -1.9723 -1.0092 -0.2458
   45MOL   H32317131   4.115   1.460   2.959  0.6911  1.3932  1.2684
   45MOL   H32417132   3.971   1.361   2.951  1.2553  1.1998 -1.2718
   45MOL   C32517133   3.732   1.014   3.075  0.4448 -0.2035  0.2351
   45MOL   C32617134   3.629   1.060   2.966  0.0651  0.1808 -0.4784
   45MOL   C32717135   3.688   1.166   2.874 -0.4665 -0.1109 -0.2679
   45MOL   C32817136   3.585   1.189   2.759 -0.0311  0.2678 -0.0640
   45MOL   C32917137   3.646   1.294   2.660 -0.1346  0.0080 -0.2931
   45MOL   C33017138   3.527   1.329   2.562 -0.5179 -0.1914  0.4548
   45MOL   O33117139   3.523   1.140   3.017 -0.0273 -0.6218  0.4984
   45MOL   H33217140   3.755   1.100   3.138 -0.7326  0.4053 -0.1527
   45MOL   H33317141   3.690   0.944   3.147  2.1030 -0.5748  0.8669
   45MOL   H33417142   3.589   0.983   2.900  0.4556  1.1166 -1.8439
   45MOL   H33517143   3.718   1.263   2.915 -1.6700 -0.0333  0.4280
   45MOL   H33617144   3.782   1.123   2.840  0.1317  0.6859  0.3631
   45MOL   H33717145   3.556   1.103   2.698 -1.4934  2.2469 -2.2602
   45MOL   H33817146   3.497   1.238   2.800 -1.4587 -2.0824 -0.1892
   45MOL   H33917147   3.673   1.388   2.707 -1.2139 -0.7419  1.9096
   45MOL   H34017148   3.722   1.255   2.593 -0.8789 -2.4013  0.1847
   45MOL   H34117149   3.454   1.395   2.608 -0.4204  0.8096 -0.8097
   45MOL   H34217150   3.579   1.376   2.478 -1.2476  0.2800  0.2595
   45MOL   H34317151   3.472   1.244   2.522 -1.6450 -0.0505  1.6994
   45MOL   C34417152   3.415   1.062   3.070  0.6411  0.0136 -0.0103
   45MOL   C34517153   3.302   1.166   3.076  0.6591 -0.9707  0.5521
   45MOL   C34617154   3.165   1.096   3.107  0.4584  0.0486 -0.2786
   45MOL   C34717155   3.049   1.191   3.070 -0.0496 -0.5945  0.0964
   45MOL   C34817156   3.020   1.195   2.916 -0.9673  0.1239  0.3372
   45MOL   C34917157   2.972   1.059   2.852 -0.4168 -0.2636  0.2787
   45MOL   O35017158   3.323   1.255   3.184  0.4186  0.0778 -0.2490
   45MOL   H35117159   3.443   1.020   3.167 -2.1581 -0.3901  0.6675
   45MOL   H35217160   3.385   0.981   3.004  0.1478  0.8755 -0.8482
   45MOL   H35317161   3.286   1.204   2.976 -0.0662 -0.2474  0.9379
   45MOL   H35417162   3.161   1.086   3.215  0.5542 -1.2973 -0.3878
   45MOL   H35517163   3.157   1.005   3.048 -2.2518 -0.2799  0.5276
   45MOL   H35617164   3.062   1.294   3.103  0.6087 -0.4755 -0.5336
   45MOL   H35717165   2.960   1.157   3.124  0.5567  0.3672  1.7226
   45MOL   H35817166   3.102   1.242   2.860 -3.0188  2.1978 -1.0099
   45MOL   H35917167   2.940   1.266   2.896  1.6252  3.3224  0.8632
   45MOL   H36017168   3.050   0.984   2.850 -0.6667 -0.5343  0.6926
   45MOL   H36117169   2.942   1.081   2.749 -0.9453 -3.0428 -0.1949
   45MOL   H36217170   2.881   1.014   2.893  0.8484 -1.4774  1.8158
   45MOL   C36317171   3.376   1.386   3.158  0.1480 -0.2777  0.7341
   45MOL   C36417172   3.391   1.471   3.288  0.6013 -0.1473  0.1718
   45MOL   C36517173   3.257   1.506   3.351  0.0144 -0.0368  0.0488
   45MOL   C36617174   3.258   1.586   3.485 -0.2326 -0.3904 -0.5421
   45MOL   C36717175   3.136   1.614   3.560  0.2884 -0.3038 -0.0090
   45MOL   C36817176   3.044   1.705   3.479  0.2984 -0.7390 -0.6242
   45MOL   O36917177   3.470   1.410   3.379 -0.4864 -0.7794 -0.9073
   45MOL   H37017178   3.329   1.451   3.084 -0.2277  0.1097  1.3032
   45MOL   H37117179   3.474   1.367   3.115  1.0362  2.0350  1.6075
   45MOL   H37217180   3.433   1.568   3.264  0.6347  0.2632  1.8637
   45MOL   H37317181   3.205   1.575   3.284  0.0608  1.6432  1.7144
   45MOL   H37417182   3.194   1.417   3.355 -1.2340  0.9218  3.7408
   45MOL   H37517183   3.334   1.542   3.549 -1.2936  1.8293  2.3794
   45MOL   H37617184   3.306   1.681   3.459 -0.5757  0.5132  1.9650
   45MOL   H37717185   3.090   1.520   3.593  0.8542 -0.3590  0.6336
   45MOL   H37817186   3.151   1.680   3.645 -2.1669 -0.3242  0.4791
   45MOL   H37917187   2.965   1.749   3.540 -1.2113  0.1707 -3.1371
   45MOL   H38017188   3.096   1.785   3.425 -0.6367  1.7448  2.0498
   45MOL   H38117189   2.991   1.660   3.395  0.3300  0.7830 -1.4913
   45MOL   H38217190   3.423   1.334   3.410 -1.6921 -0.1314 -1.1139
   46MOL     C117191   5.383   5.064   5.726 -0.0800 -0.3351  0.7199
   46MOL     C217192   5.510   5.139   5.705  0.1351 -0.4383 -0.2007
   46MOL     C317193   5.605   5.124   5.822 -0.2184  0.1048  0.0506
   46MOL     C417194   5.732   5.199   5.813 -0.1661 -0.0129  0.4329
   46MOL     C517195   5.730   5.349   5.789  0.5235  0.4920  0.6156
   46MOL     C617196   5.872   5.414   5.757  0.3672  0.3270 -0.1112
   46MOL     O717197   5.571   5.079   5.594 -0.0148  0.1890 -0.7291
   46MOL     H817198   5.306   5.090   5.653  0.4694  2.3423  1.0429
   46MOL     H917199   5.341   5.096   5.821 -0.6756 -1.5680  0.8835
   46MOL    H1017200   5.480   5.244   5.699  0.2091 -0.3854  0.3963
   46MOL    H1117201   5.553   5.152   5.914  0.4890  2.0149 -0.0998
   46MOL    H1217202   5.637   5.019   5.824 -2.2468 -0.5851 -1.8304
   46MOL    H1317203   5.799   5.174   5.895 -1.2099 -2.4367  0.5883
   46MOL    H1417204   5.786   5.161   5.726  1.7266  0.7796  1.2183
   46MOL    H1517205   5.677   5.360   5.694  1.0701 -0.9266  0.1371
   46MOL    H1617206   5.680   5.405   5.868  0.0994  0.5463  0.3133
   46MOL    H1717207   5.875   5.523   5.749 -3.4599  0.6380  1.2597
   46MOL    H1817208   5.934   5.393   5.844  0.1348 -0.5960 -0.1569
   46MOL    H1917209   5.905   5.370   5.663 -0.2915 -0.7828  0.1714
   46MOL    H2017210   5.392   4.955   5.731  1.4512 -0.2270  0.6678
   46MOL    C2117211   5.530   5.125   5.464 -0.8705  0.2509 -0.4628
   46MOL    C2217212   5.621   5.059   5.350 -0.0235 -0.1075 -0.5173
   46MOL    C2317213   5.536   4.945   5.292 -0.0533  0.1809  0.2161
   46MOL    C2417214   5.609   4.871   5.177 -0.0938 -0.1050 -0.8927
   46MOL    C2517215   5.528   4.762   5.113 -0.0142 -0.1870  0.0390
   46MOL    C2617216   5.607   4.691   5.002 -0.1348 -0.0750 -0.6598
   46MOL    O2717217   5.651   5.148   5.244  0.2023  0.0585 -0.0368
   46MOL    H2817218   5.427   5.097   5.442 -1.1842  0.9770  0.0722
   46MOL    H2917219   5.538   5.234   5.470  2.6227  0.0460  0.0514
   46MOL    H3017220   5.708   5.014   5.397 -0.0403  0.1290 -0.2555
   46MOL    H3117221   5.442   4.986   5.254  0.2132  0.2191 -0.4261
   46MOL    H3217222   5.507   4.871   5.366 -0.6397  0.0754 -0.1145
   46MOL    H3317223   5.703   4.832   5.217 -0.7850 -0.6211  0.2746
   46MOL    H3417224   5.647   4.947   5.109  0.5185 -1.0994 -1.6735
   46MOL    H3517225   5.507   4.684   5.186 -2.3586  1.6956  1.4277
   46MOL    H3617226   5.428   4.793   5.083 -0.1254 -0.3555  0.2376
   46MOL    H3717227   5.644   4.766   4.931  0.4614  1.5042  1.2686
   46MOL    H3817228   5.552   4.623   4.938 -1.1677  1.5072 -1.4836
   46MOL    H3917229   5.688   4.629   5.041 -2.0634 -2.1950  0.1136
   46MOL    C4017230   5.783   5.200   5.244  0.4727 -0.1286  0.3310
   46MOL    C4117231   5.830   5.270   5.113  0.1137  0.3458 -0.3318
   46MOL    C4217232   5.976   5.313   5.122 -0.3189  0.1886 -0.2854
   46MOL    C4317233   6.020   5.404   5.008  0.6741 -0.5085  0.6062
   46MOL    C4417234   6.157   5.466   5.044 -0.1139  0.7588 -0.2112
   46MOL    C4517235   6.216   5.550   4.925 -0.2073 -0.3793  0.1571
   46MOL    O4617236   5.747   5.383   5.103  0.1976  0.1040 -0.1785
   46MOL    H4717237   5.840   5.107   5.240 -2.1155 -1.7663  0.1404
   46MOL    H4817238   5.794   5.259   5.335 -1.3190  1.1816 -0.2738
   46MOL    H4917239   5.822   5.197   5.032  1.2231  1.8152 -1.8178
   46MOL    H5017240   5.993   5.371   5.213 -2.2680  0.5110 -0.0962
   46MOL    H5117241   6.039   5.224   5.117 -1.3665 -0.5146 -1.2933
   46MOL    H5217242   5.947   5.479   4.979 -0.0265 -0.9454  1.2355
   46MOL    H5317243   6.031   5.351   4.914  0.0459  2.2631 -1.1040
   46MOL    H5417244   6.140   5.533   5.128 -0.9484  1.3985 -0.8836
   46MOL    H5517245   6.225   5.384   5.066  0.8479  1.2450 -1.2950
   46MOL    H5617246   6.140   5.602   4.867 -1.4492  0.1678  2.2320
   46MOL    H5717247   6.292   5.621   4.957 -1.3288  0.7551  0.3552
   46MOL    H5817248   6.261   5.480   4.854  2.4308  0.3337  1.0570
   46MOL    C5917249   5.637   5.360   5.011 -0.4281 -0.0435 -0.1962
   46MOL    C6017250   5.578   5.484   4.945 -0.1268 -0.2743  0.5031
   46MOL    C6117251   5.494   5.464   4.817 -0.6837 -0.1135 -0.1592
   46MOL    C6217252   5.450   5.592   4.752 -0.6700  0.1868  0.1838
   46MOL    C6317253   5.339   5.575   4.643 -0.6673 -0.1105 -0.1209
   46MOL    C6417254   5.382   5.518   4.502 -0.4217  0.2507  0.4284
   46MOL    O6517255   5.478   5.538   5.039 -0.3092  0.1293  0.0401
   46MOL    H6617256   5.570   5.295   5.068  0.9873 -2.1124 -0.8057
   46MOL    H6717257   5.682   5.300   4.931  0.4631 -1.3570  1.2353
   46MOL    H6817258   5.659   5.555   4.925 -0.5276 -0.3016 -1.2637
   46MOL    H6917259   5.408   5.401   4.838  0.0585 -0.1253  3.1267
   46MOL    H7017260   5.550   5.405   4.744  0.7476  0.9549  0.0597
   46MOL    H7117261   5.536   5.650   4.722 -2.0808  0.8410 -2.7230
   46MOL    H7217262   5.401   5.653   4.828 -0.2628  0.3669  0.3010
   46MOL    H7317263   5.295   5.673   4.631  0.9534  0.7173  0.5390
   46MOL    H7417264   5.258   5.517   4.687 -0.4349 -1.3015 -1.2008
   46MOL    H7517265   5.445   5.430   4.513 -1.2771 -0.4899 -0.5736
   46MOL    H7617266   5.299   5.486   4.440  1.5241 -0.6025 -1.7851
   46MOL    H7717267   5.446   5.578   4.438  1.4980 -1.4864  0.6428
   46MOL    C7817268   5.527   5.622   5.143  0.2624  0.8112 -0.4141
   46MOL    C7917269   5.507   5.770   5.110 -0.5782 -0.1612  0.1931
   46MOL    C8017270   5.613   5.860   5.153  0.5699  0.0367 -0.0199
   46MOL    C8117271   5.735   5.885   5.063 -0.2444  0.4463  0.0212
   46MOL    C8217272   5.848   5.790   5.090 -0.4102 -0.0231  0.5318
   46MOL    C8317273   5.953   5.803   4.984 -0.0136 -0.6379 -0.0081
   46MOL    O8417274   5.379   5.807   5.168 -0.6739  0.6503 -0.0043
   46MOL    H8517275   5.631   5.611   5.173 -0.0025  1.9379  0.9666
   46MOL    H8617276   5.464   5.604   5.230  1.9411 -1.2918  0.4033
   46MOL    H8717277   5.499   5.790   5.004  1.5399  0.6897  0.1633
   46MOL    H8817278   5.555   5.952   5.148 -2.1125 -1.5727  0.6315
   46MOL    H8917279   5.641   5.832   5.254 -1.6658  0.9672  0.8990
   46MOL    H9017280   5.775   5.984   5.086  2.2005 -0.6519  0.6138
   46MOL    H9117281   5.703   5.897   4.960  3.2900  0.3175 -1.1329
   46MOL    H9217282   5.902   5.810   5.182  0.5063 -0.8937  0.1869
   46MOL    H9317283   5.817   5.686   5.095 -0.3458 -0.0998 -0.4457
   46MOL    H9417284   6.050   5.769   5.019 -0.6956 -0.9395  1.6158
   46MOL    H9517285   5.973   5.905   4.952 -0.8427 -0.4725 -0.0065
   46MOL    H9617286   5.932   5.747   4.892 -1.4260 -0.6648  0.3192
   46MOL    C9717287   5.254   5.755   5.113 -0.0337  0.4313  0.0865
   46MOL    C9817288   5.211   5.834   4.990  0.1505 -0.7034 -0.6842
   46MOL    C9917289   5.070   5.784   4.940 -0.7356  0.1904 -0.5325
   46MOL   C10017290   5.037   5.846   4.808  0.1915 -0.2520  0.7930
   46MOL   C10117291   4.892   5.821   4.753 -0.0554 -0.9352 -0.1586
   46MOL   C10217292   4.856   5.672   4.718  0.4765 -0.0374 -0.6809
   46MOL   O10317293   5.193   5.971   5.027  0.4611 -0.0997  0.0572
   46MOL   H10417294   5.187   5.762   5.199  0.1957  1.7590  0.1733
   46MOL   H10517295   5.260   5.648   5.095 -0.5626  0.1158  1.6743
   46MOL   H10617296   5.279   5.824   4.905 -1.0742 -0.5216 -1.6950
   46MOL   H10717297   4.990   5.803   5.013  1.2850  1.7178  1.3447
   46MOL   H10817298   5.065   5.675   4.933 -2.4349  0.1348  0.9505
   46MOL   H10917299   5.108   5.812   4.732 -0.0214  2.2745 -0.5782
   46MOL   H11017300   5.034   5.954   4.815 -0.7635 -0.3221  1.6348
   46MOL   H11117301   4.899   5.872   4.656  0.6443 -0.4739  0.1276
   46MOL   H11217302   4.810   5.864   4.810 -0.6374 -1.2433 -0.7629
   46MOL   H11317303   4.774   5.670   4.645 -1.3018  0.7652  1.2365
   46MOL   H11417304   4.943   5.629   4.669  1.4929 -0.1145  1.1445
   46MOL   H11517305   4.844   5.612   4.808 -0.0974  1.5561  0.3267
   46MOL   C11617306   5.289   6.061   4.979  0.0570 -0.0824 -0.3043
   46MOL   C11717307   5.235   6.200   5.007 -0.7877  0.1783  0.8943
   46MOL   C11817308   5.287   6.300   4.910 -0.3647  0.0333 -0.4894
   46MOL   C11917309   5.228   6.448   4.935  0.3205  0.0887  0.8161
   46MOL   C12017310   5.262   6.539   4.816 -0.2017 -0.2962  0.5752
   46MOL   C12117311   5.222   6.686   4.821  0.2273  0.4839 -1.0413
   46MOL   O12217312   5.276   6.249   5.133 -1.3230  0.3570  0.1672
   46MOL   H12317313   5.379   6.038   5.036 -1.2481 -1.6207  1.1774
   46MOL   H12417314   5.303   6.041   4.873 -0.0229 -0.7238 -0.1961
   46MOL   H12517315   5.128   6.212   4.989 -0.1039  1.1308 -3.0241
   46MOL   H12617316   5.396   6.301   4.906 -0.2248  1.0826  2.3636
   46MOL   H12717317   5.263   6.272   4.807  0.6771 -0.4203 -0.6089
   46MOL   H12817318   5.259   6.494   5.028 -0.8573  2.2036  0.1957
   46MOL   H12917319   5.119   6.440   4.939  0.3597 -2.0408 -1.2220
   46MOL   H13017320   5.370   6.534   4.798 -0.4950 -0.0251 -1.2855
   46MOL   H13117321   5.220   6.493   4.727  0.3820  1.9208 -0.8833
   46MOL   H13217322   5.275   6.746   4.746  2.2061 -0.4782 -0.4408
   46MOL   H13317323   5.115   6.686   4.800 -0.4585  2.7887  2.1197
   46MOL   H13417324   5.241   6.713   4.925  1.6158  0.4612 -1.2739
   46MOL   C13517325   5.249   6.153   5.233  0.8573  0.6634  0.0106
   46MOL   C13617326   5.232   6.218   5.374  0.0164  0.3522  0.0090
   46MOL   C13717327   5.346   6.324   5.397 -0.0846 -0.2302 -0.5278
   46MOL   C13817328   5.360   6.372   5.546  0.0571  0.5250  0.2096
   46MOL   C13917329   5.433   6.504   5.566 -0.2704 -0.8119  0.3666
   46MOL   C14017330   5.414   6.558   5.713 -0.1919  1.0029 -0.0771
   46MOL   O14117331   5.245   6.121   5.477 -0.5323 -0.0697 -0.5876
   46MOL   H14217332   5.151   6.108   5.214  0.7239  0.5953  0.8296
   46MOL   H14317333   5.330   6.081   5.240  0.3704 -0.2183 -3.0606
   46MOL   H14417334   5.137   6.272   5.376  0.6041  1.3731  0.1323
   46MOL   H14517335   5.444   6.291   5.361  0.9133  0.3311  1.5913
   46MOL   H14617336   5.333   6.414   5.336 -0.9390 -1.1087 -1.6608
   46MOL   H14717337   5.388   6.290   5.612  0.9972  2.0156  1.7187
   46MOL   H14817338   5.258   6.397   5.576 -0.1849  0.5680 -0.6570
   46MOL   H14917339   5.419   6.581   5.490  1.4085 -0.3679  0.4876
   46MOL   H15017340   5.541   6.493   5.553  0.1402 -0.7000  3.3951
   46MOL   H15117341   5.450   6.661   5.718  2.3450  0.1947 -0.9981
   46MOL   H15217342   5.315   6.586   5.749 -0.9624 -0.5760 -0.8924
   46MOL   H15317343   5.464   6.499   5.789 -1.8271  1.4939  1.4316
   46MOL   C15417344   5.154   6.016   5.481 -0.2199  0.0947 -0.0156
   46MOL   C15517345   5.174   5.948   5.621 -0.0876  0.5015  0.0944
   46MOL   C15617346   5.050   5.866   5.654 -0.0326 -0.2418 -0.4796
   46MOL   C15717347   5.065   5.821   5.805 -0.6360 -0.4398  0.2771
   46MOL   C15817348   4.975   5.709   5.824 -0.2675  0.4953 -0.0910
   46MOL   C15917349   4.985   5.649   5.968  0.4703  0.3887 -0.2158
   46MOL   O16017350   5.272   5.843   5.612 -0.2707  0.0365 -0.7166
   46MOL   H16117351   5.163   5.943   5.402  1.1559 -0.2552  0.4425
   46MOL   H16217352   5.055   6.059   5.467 -0.2709 -0.0512 -0.0859
   46MOL   H16317353   5.200   6.011   5.706  0.0228 -0.7538  0.9996
   46MOL   H16417354   5.027   5.787   5.583 -1.5399 -0.1519 -0.1166
   46MOL   H16517355   4.955   5.920   5.654  0.1607  0.0992 -0.4658
   46MOL   H16617356   5.049   5.903   5.875 -1.5616  0.6191 -1.1385
   46MOL   H16717357   5.161   5.773   5.822 -0.6536 -1.0646 -1.2918
   46MOL   H16817358   4.873   5.746   5.814  0.0345  1.7133  1.2008
   46MOL   H16917359   4.997   5.636   5.746  1.8427  1.7332 -0.6884
   46MOL   H17017360   4.969   5.726   6.044  2.2510 -0.7707  1.3871
   46MOL   H17117361   5.093   5.630   5.972  0.1983 -1.0769  0.2475
   46MOL   H17217362   4.927   5.559   5.988  3.3228 -1.5014 -0.0621
   46MOL   C17317363   5.405   5.892   5.600  0.7319 -0.1018 -0.2677
   46MOL   C17417364   5.504   5.777   5.616  0.3460  0.0249  0.1640
   46MOL   C17517365   5.645   5.819   5.581  0.1433  0.2083 -0.4989
   46MOL   C17617366   5.721   5.703   5.515  0.2153  0.2229 -0.3634
   46MOL   C17717367   5.867   5.729   5.468  0.5410  0.3175  0.2108
   46MOL   C17817368   5.940   5.605   5.409  0.1418 -0.4918 -0.6405
   46MOL   O17917369   5.508   5.725   5.745 -0.4667 -0.3206 -0.0256
   46MOL   H18017370   5.429   5.973   5.669 -0.7898  1.6258 -1.7376
   46MOL   H18117371   5.417   5.936   5.501 -1.2614 -1.0644 -0.9606
   46MOL   H18217372   5.476   5.692   5.554  0.1654 -0.4222  0.8532
   46MOL   H18317373   5.642   5.909   5.519  1.3815  0.8752  0.3635
   46MOL   H18417374   5.695   5.861   5.669 -1.2160 -0.0889  0.4429
   46MOL   H18517375   5.721   5.620   5.585  2.3884 -0.5175 -1.1956
   46MOL   H18617376   5.656   5.664   5.437 -1.2309  1.3701  0.2455
   46MOL   H18717377   5.856   5.817   5.405 -0.6018  1.2384  1.6599
   46MOL   H18817378   5.923   5.756   5.558  1.5155  0.1720 -0.3472
   46MOL   H18917379   5.885   5.576   5.319 -1.1159 -1.0142  0.2868
   46MOL   H19017380   5.930   5.528   5.485  0.4642 -2.0055 -2.0846
   46MOL   H19117381   6.047   5.618   5.392  0.3860 -1.0262  0.4553
   46MOL   C19217382   5.420   5.612   5.774 -0.2662 -0.4965  0.3422
   46MOL   C19317383   5.423   5.568   5.928  0.4120  0.0935  1.0643
   46MOL   C19417384   5.368   5.426   5.951 -0.1917 -0.2554 -0.6603
   46MOL   C19517385   5.317   5.400   6.095 -0.0506  0.2733  0.2435
   46MOL   C19617386   5.283   5.255   6.136  0.0617 -0.0700 -0.2516
   46MOL   C19717387   5.209   5.261   6.266  0.7636 -0.6630 -0.6561
   46MOL   O19817388   5.345   5.656   6.010  0.2784  0.5197  0.7154
   46MOL   H19917389   5.318   5.641   5.748 -0.5495 -0.0783  1.8639
   46MOL   H20017390   5.457   5.535   5.706 -0.1077  1.1507 -1.4793
   46MOL   H20117391   5.529   5.573   5.953  0.6663  0.2844 -0.0211
   46MOL   H20217392   5.284   5.418   5.881  0.3919  0.5026 -1.4432
   46MOL   H20317393   5.434   5.354   5.902 -0.8387 -1.8814  0.7896
   46MOL   H20417394   5.224   5.456   6.105 -0.2587 -0.4284  2.3101
   46MOL   H20517395   5.377   5.447   6.172  0.2120  0.7781 -0.2598
   46MOL   H20617396   5.220   5.208   6.060 -0.3832 -2.1081  1.3468
   46MOL   H20717397   5.380   5.205   6.138 -0.5760 -1.3032  1.0632
   46MOL   H20817398   5.209   5.160   6.307 -2.5530 -0.5860 -0.3813
   46MOL   H20917399   5.256   5.317   6.347 -2.1359 -1.9170  2.0318
   46MOL   H21017400   5.104   5.288   6.262  1.0455  0.7090  0.5944
   46MOL   C21117401   5.388   5.788   6.021 -0.0627  1.3160  1.5435
   46MOL   C21217402   5.287   5.871   6.104 -0.7854  0.3131 -0.9060
   46MOL   C21317403   5.319   6.022   6.092  0.5917  0.1888 -0.0089
   46MOL   C21417404   5.463   6.075   6.133  0.3275  0.3155  0.6322
   46MOL   C21517405   5.463   6.231   6.117  0.1076  0.4156 -0.7211
   46MOL   C21617406   5.383   6.318   6.219  0.5727 -0.3557 -0.1537
   46MOL   O21717407   5.303   5.849   6.244 -0.2749  0.3243  0.1355
   46MOL   H21817408   5.383   5.840   5.925  0.6921 -0.6037  0.4313
   46MOL   H21917409   5.486   5.798   6.067  1.5700 -3.1910 -0.6207
   46MOL   H22017410   5.185   5.854   6.069 -1.4262 -1.3607  1.6587
   46MOL   H22117411   5.296   6.038   5.987  2.0895 -0.4520 -0.4461
   46MOL   H22217412   5.244   6.073   6.153 -0.8721 -2.7551  0.7343
   46MOL   H22317413   5.493   6.043   6.233  0.8159  1.4003  0.8363
   46MOL   H22417414   5.536   6.024   6.070  0.8635  0.6519  0.9787
   46MOL   H22517415   5.566   6.266   6.127 -0.0085  0.6442 -0.3139
   46MOL   H22617416   5.446   6.249   6.011  0.3504  1.6742 -0.5509
   46MOL   H22717417   5.405   6.301   6.325  0.0124  0.8577  0.1743
   46MOL   H22817418   5.277   6.292   6.214  0.9551 -1.8740 -0.6449
   46MOL   H22917419   5.400   6.423   6.192  0.1599  0.1698  1.5469
   46MOL   C23017420   5.204   5.765   6.299  0.3372  0.3086 -0.1818
   46MOL   C23117421   5.226   5.745   6.450 -0.1952  0.5064  0.4953
   46MOL   C23217422   5.173   5.610   6.496 -0.1012  0.3024  0.6268
   46MOL   C23317423   5.230   5.586   6.639  0.1018 -0.3112 -0.8535
   46MOL   C23417424   5.241   5.437   6.672 -0.6824 -0.3433 -0.1510
   46MOL   C23517425   5.291   5.413   6.815 -0.6885  0.0844 -0.1041
   46MOL   O23617426   5.177   5.849   6.526 -0.2331  0.2121 -0.7952
   46MOL   H23717427   5.106   5.805   6.273  0.0415 -0.9445 -1.0777
   46MOL   H23817428   5.207   5.676   6.236  0.0478  0.0187  0.2134
   46MOL   H23917429   5.334   5.747   6.460 -0.1317  0.0652 -0.1014
   46MOL   H24017430   5.219   5.542   6.425  0.7073  0.5829  0.8701
   46MOL   H24117431   5.065   5.607   6.485  0.0949 -1.3717 -1.1635
   46MOL   H24217432   5.169   5.637   6.713 -1.3508 -0.8665 -1.6279
   46MOL   H24317433   5.332   5.623   6.646 -0.0048 -0.0942 -0.4582
   46MOL   H24417434   5.144   5.387   6.668 -0.3291 -1.2104  1.5007
   46MOL   H24517435   5.303   5.383   6.601 -0.4398 -1.3619  0.8188
   46MOL   H24617436   5.302   5.309   6.847  0.7562  0.3397  0.2790
   46MOL   H24717437   5.209   5.453   6.875 -0.1805  0.0147  0.6433
   46MOL   H24817438   5.391   5.455   6.830  0.1229 -1.8662  0.0944
   46MOL   C24917439   5.241   5.978   6.496 -0.1847 -0.1590  0.2391
   46MOL   C25017440   5.187   6.072   6.607  0.8159  0.4596 -0.3667
   46MOL   C25117441   5.143   6.216   6.555 -0.2938  0.2013  0.4331
   46MOL   C25217442   5.048   6.285   6.650 -0.6770  0.1577  0.0902
   46MOL   C25317443   4.986   6.412   6.588  0.4766 -0.0151  0.2844
   46MOL   C25417444   4.910   6.507   6.688  0.0910  0.4217 -0.3242
   46MOL   O25517445   5.273   6.088   6.708  0.2535  0.8745 -0.1651
   46MOL   H25617446   5.350   5.973   6.492 -0.0382  1.9070  0.8227
   46MOL   H25717447   5.200   6.018   6.403  0.1545  2.7530  1.2862
   46MOL   H25817448   5.096   6.019   6.634  1.5860 -0.8745 -0.3143
   46MOL   H25917449   5.232   6.278   6.541  0.9509 -1.3065  1.3717
   46MOL   H26017450   5.104   6.194   6.456  1.9703 -3.0059  0.1690
   46MOL   H26117451   4.976   6.214   6.691  0.0313 -0.7258 -0.1945
   46MOL   H26217452   5.114   6.314   6.732  0.1035 -0.4078 -0.3395
   46MOL   H26317453   5.057   6.472   6.531  0.3468  0.1262  0.2735
   46MOL   H26417454   4.916   6.380   6.510  1.9925 -3.0133  0.0541
   46MOL   H26517455   4.881   6.605   6.651  0.7704  0.4943 -0.6726
   46MOL   H26617456   4.949   6.522   6.788  0.2534 -2.0230  0.0110
   46MOL   H26717457   4.808   6.468   6.688 -0.4012  1.7007  0.1092
   46MOL   C26817458   5.292   5.973   6.789 -0.1407 -0.0607  0.2750
   46MOL   C26917459   5.413   6.017   6.884  0.2839 -0.6759 -0.0531
   46MOL   C27017460   5.496   5.889   6.917 -0.1344 -0.0129 -0.5479
   46MOL   C27117461   5.624   5.937   6.979 -0.0520 -0.4060 -0.7710
   46MOL   C27217462   5.696   5.823   7.052  0.0539  0.0439  0.6250
   46MOL   C27317463   5.839   5.853   7.071 -0.9722 -0.2322  0.2531
   46MOL   O27417464   5.372   6.062   7.013 -0.2406 -0.3155 -0.0530
   46MOL   H27517465   5.330   5.894   6.725 -0.8670 -0.9883  0.9686
   46MOL   H27617466   5.209   5.933   6.847  0.6587 -2.1225  0.0320
   46MOL   H27717467   5.475   6.091   6.834 -2.2888  0.5087 -1.5780
   46MOL   H27817468   5.436   5.818   6.974 -0.4103  0.3687 -0.3637
   46MOL   H27917469   5.532   5.840   6.827  0.8257 -1.3605  0.5511
   46MOL   H28017470   5.671   5.984   6.893 -1.1231  3.5959  0.7122
   46MOL   H28117471   5.616   6.027   7.041  1.6784  0.3307 -1.5920
   46MOL   H28217472   5.642   5.796   7.143  0.6889  2.5194  1.7857
   46MOL   H28317473   5.693   5.733   6.990 -0.7828  1.2879 -1.1599
   46MOL   H28417474   5.895   5.846   6.978 -2.0792  1.1631 -0.5522
   46MOL   H28517475   5.861   5.955   7.102 -1.2000 -0.1626  0.1890
   46MOL   H28617476   5.878   5.796   7.155 -0.0665 -0.6538 -0.4466
   46MOL   C28717477   5.304   6.187   7.004  1.0008 -0.1649  0.3702
   46MOL   C28817478   5.258   6.248   7.138 -0.1316  0.3409  0.3186
   46MOL   C28917479   5.162   6.365   7.100 -1.1316 -0.3702 -0.7374
   46MOL   C29017480   5.105   6.438   7.224  0.0851  0.5237 -0.1111
   46MOL   C29117481   5.042   6.576   7.213 -0.2909 -0.7200  0.1988
   46MOL   C29217482   4.998   6.633   7.342 -0.3090  0.3177  0.1407
   46MOL   O29317483   5.371   6.310   7.192 -0.3396 -0.1725 -0.1265
   46MOL   H29417484   5.214   6.180   6.944  1.3667 -1.0198 -0.0806
   46MOL   H29517485   5.365   6.259   6.949  1.8024 -1.9138 -1.0630
   46MOL   H29617486   5.219   6.171   7.206 -0.9946 -0.1262 -0.6799
   46MOL   H29717487   5.221   6.440   7.047 -0.6637 -0.7049 -0.6950
   46MOL   H29817488   5.089   6.329   7.028 -2.5570 -0.0603  0.5179
   46MOL   H29917489   5.026   6.379   7.272  2.8898 -1.7179  1.9406
   46MOL   H30017490   5.189   6.440   7.293 -1.0920 -1.4019  1.4373
   46MOL   H30117491   4.955   6.558   7.150 -0.3169  0.1397 -0.0186
   46MOL   H30217492   5.112   6.643   7.164 -2.0248  1.3431  0.4635
   46MOL   H30317493   4.948   6.556   7.400 -0.5349  1.3908  1.3869
   46MOL   H30417494   5.086   6.656   7.401 -0.5834 -1.2834  1.1923
   46MOL   H30517495   4.936   6.721   7.325  1.2177  1.3475 -0.1636
   46MOL   C30617496   5.434   6.233   7.282  0.0744  0.6135  0.4178
   46MOL   C30717497   5.581   6.260   7.284  0.5317 -0.2596 -0.1801
   46MOL   C30817498   5.647   6.144   7.355  0.8376 -1.1497 -0.2768
   46MOL   C30917499   5.796   6.176   7.385  0.1746 -0.1213 -0.1789
   46MOL   C31017500   5.870   6.073   7.473  0.3062  0.0451  0.2322
   46MOL   C31117501   6.006   6.123   7.512  1.1158 -0.5985 -0.8648
   46MOL   O31217502   5.587   6.384   7.364  0.5884 -0.5896  0.3908
   46MOL   H31317503   5.385   6.248   7.378 -1.0139  0.5879 -0.1235
   46MOL   H31417504   5.429   6.129   7.249  0.4129  0.5449  0.5854
   46MOL   H31517505   5.631   6.280   7.189 -1.2667  0.3548 -1.0163
   46MOL   H31617506   5.644   6.052   7.296 -2.1845 -1.9509  1.0154
   46MOL   H31717507   5.599   6.126   7.451  0.1337  1.0269 -0.2016
   46MOL   H31817508   5.858   6.202   7.299  3.1642 -0.6474  1.7438
   46MOL   H31917509   5.794   6.266   7.445  0.2901 -1.4078  1.7947
   46MOL   H32017510   5.884   5.974   7.430 -0.6398 -0.3527  0.8252
   46MOL   H32117511   5.811   6.061   7.564  0.2820 -2.0648 -0.0565
   46MOL   H32217512   6.078   6.138   7.432  1.7628 -1.3803 -0.4526
   46MOL   H32317513   5.995   6.222   7.555  0.8912 -0.8304 -0.3843
   46MOL   H32417514   6.059   6.064   7.587 -0.5413 -0.9220  0.0740
   46MOL   C32517515   5.591   6.495   7.279  0.2646  0.5709 -0.1571
   46MOL   C32617516   5.606   6.622   7.370  0.7683 -0.4225 -0.8299
   46MOL   C32717517   5.505   6.730   7.324  0.4409 -0.1953 -0.2226
   46MOL   C32817518   5.512   6.852   7.416  0.1590  0.0088 -0.8493
   46MOL   C32917519   5.387   6.944   7.404 -0.4901  0.2688  0.3565
   46MOL   C33017520   5.265   6.880   7.479  0.6527  0.3410 -0.3024
   46MOL   O33117521   5.744   6.670   7.363  0.3162 -0.0092 -0.0460
   46MOL   H33217522   5.500   6.509   7.221  1.8552  2.8525 -2.2401
   46MOL   H33317523   5.676   6.495   7.210  0.4447 -3.1829 -0.0173
   46MOL   H33417524   5.577   6.582   7.467  1.5036  0.7246 -0.1272
   46MOL   H33517525   5.526   6.759   7.221  0.5953  0.4763 -0.0039
   46MOL   H33617526   5.408   6.681   7.323  1.4045 -2.2058  1.7453
   46MOL   H33717527   5.533   6.821   7.518  0.7879  2.2509 -0.2678
   46MOL   H33817528   5.603   6.910   7.405 -1.1818  2.5809  1.0511
   46MOL   H33917529   5.403   7.045   7.442 -1.5083  0.2718  0.8024
   46MOL   H34017530   5.383   6.962   7.296 -0.5699 -0.5002  0.2242
   46MOL   H34117531   5.172   6.936   7.466  0.3237  0.3740  1.8966
   46MOL   H34217532   5.244   6.780   7.441 -1.0014  1.0653 -1.3515
   46MOL   H34317533   5.268   6.876   7.588 -0.0937  1.1633 -0.2410
   46MOL   C34417534   5.837   6.593   7.438  0.9110 -0.0140 -0.5795
   46MOL   C34517535   5.976   6.658   7.442  0.2951  0.1609 -0.4211
   46MOL   C34617536   6.069   6.588   7.537 -0.0495 -0.6006  0.3541
   46MOL   C34717537   6.035   6.602   7.693 -0.6987  0.1335 -0.1486
   46MOL   C34817538   6.101   6.514   0.007  0.2218  0.5778 -0.4480
   46MOL   C34917539   6.254   6.539   0.018 -0.2400 -0.1944  0.6245
   46MOL   O35017540   6.043   6.648   7.318 -0.6696 -0.0255 -0.0591
   46MOL   H35117541   5.854   6.494   7.396 -0.7443 -0.0695 -1.1622
   46MOL   H35217542   5.802   6.586   7.542  3.2494  0.3670  0.2580
   46MOL   H35317543   5.969   6.756   7.488  2.3936 -0.2095  0.7436
   46MOL   H35417544   6.169   6.624   7.515 -0.9677  1.2399 -1.0737
   46MOL   H35517545   6.058   6.487   7.498 -0.4122 -0.0152 -1.0996
   46MOL   H35617546   5.927   6.602   7.710 -0.3705 -3.7126  2.7421
   46MOL   H35717547   6.060   6.705   7.722 -1.1622 -0.2552  1.7468
   46MOL   H35817548   6.078   6.408   7.777 -1.8907  0.4635  2.9041
   46MOL   H35917549   6.068   6.538   0.108 -0.5820 -1.9411 -0.0802
   46MOL   H36017550   6.271   6.646   0.008  1.3396 -0.5230 -0.3939
   46MOL   H36117551   6.316   6.489   7.729 -1.6904  1.1412 -1.5053
   46MOL   H36217552   6.289   6.510   0.117  1.4472 -3.9510 -0.9431
   46MOL   C36317553   6.067   6.772   7.253  0.0922  0.5192 -0.2261
   46MOL   C36417554   5.957   6.812   7.143  0.3503  0.2492 -0.3347
   46MOL   C36517555   5.898   6.693   7.064 -0.7563 -0.4472  0.4724
   46MOL   C36617556   5.815   6.728   6.940  0.9163 -0.4061  0.0207
   46MOL   C36717557   5.752   6.610   6.872 -0.6739  0.4874 -0.2876
   46MOL   C36817558   5.674   6.638   6.739  0.1874  0.5582  0.0073
   46MOL   O36917559   5.848   6.874   7.209  0.0030 -0.2418  0.0043
   46MOL   H37017560   6.159   6.741   7.205 -0.9695 -1.6224 -0.9402
   46MOL   H37117561   6.097   6.838   7.335  1.5345 -0.5435  0.1114
   46MOL   H37217562   5.995   6.891   7.079 -0.6820  1.7914  0.9056
   46MOL   H37317563   5.977   6.630   7.023  2.0501  2.2704  1.5772
   46MOL   H37417564   5.848   6.617   7.124  0.6181 -1.6351  0.1492
   46MOL   H37517565   5.725   6.777   6.975  0.7041  0.3113 -1.4943
   46MOL   H37617566   5.877   6.786   6.871  2.0338 -1.0563  0.4699
   46MOL   H37717567   5.827   6.532   6.857  0.0773  1.2278 -0.4047
   46MOL   H37817568   5.685   6.560   6.941 -2.3067  1.2809 -1.2695
   46MOL   H37917569   5.579   6.584   6.731  0.3398  0.3270 -0.2547
   46MOL   H38017570   5.654   6.745   6.732  0.7314  0.6045 -0.8057
   46MOL   H38117571   5.724   6.614   6.646 -1.2527 -0.6724 -0.4844
   46MOL   H38217572   5.820   6.820   7.282 -0.6923  1.6055  1.1253
   47MOL     C117573   4.508   0.387   3.510 -0.1514  0.0012  0.6753
   47MOL     C217574   4.601   0.452   3.400  0.0609 -0.1184 -0.6116
   47MOL     C317575   4.726   0.510   3.459 -0.2998 -0.0348  0.4686
   47MOL     C417576   4.833   0.560   3.367 -0.0317 -0.0736  0.0549
   47MOL     C517577   4.817   0.703   3.322 -0.3409 -0.3704 -0.1516
   47MOL     C617578   4.941   0.743   3.245 -0.0389  0.3092  0.3392
   47MOL     O717579   4.651   0.346   3.321 -0.0120  0.9840  0.5603
   47MOL     H817580   4.419   0.336   3.472  0.5046 -0.9043  0.3476
   47MOL     H917581   4.482   0.468   3.578  0.7160  1.6604 -0.9192
   47MOL    H1017582   4.550   0.524   3.335  0.8415  0.1615 -0.9187
   47MOL    H1117583   4.707   0.585   3.536  0.1596 -0.8845  1.4324
   47MOL    H1217584   4.758   0.421   3.514 -0.6039  0.8461  2.1321
   47MOL    H1317585   4.927   0.560   3.423 -0.1664 -1.6624  0.3032
   47MOL    H1417586   4.844   0.496   3.280 -2.0373  1.8383 -1.6485
   47MOL    H1517587   4.727   0.701   3.260  0.5225 -2.1901 -1.3893
   47MOL    H1617588   4.804   0.769   3.407  2.1939  2.0837 -1.6023
   47MOL    H1717589   4.941   0.849   3.220  0.4856  0.4311  0.8782
   47MOL    H1817590   5.033   0.732   3.302  0.3404 -0.1875 -0.3568
   47MOL    H1917591   4.945   0.701   3.144 -2.2837  3.4159 -1.1548
   47MOL    H2017592   4.557   0.308   3.566  1.2830 -0.0784 -0.6721
   47MOL    C2117593   4.555   0.298   3.229 -0.6819  0.3647  0.1366
   47MOL    C2217594   4.602   0.188   3.124 -0.7835 -0.6734  0.3926
   47MOL    C2317595   4.484   0.153   3.029  0.2283 -0.3034  0.6176
   47MOL    C2417596   4.353   0.090   3.088  0.1054  0.9609  0.4777
   47MOL    C2517597   4.257   0.023   2.995 -0.9690 -0.6489 -0.1426
   47MOL    C2617598   4.112   0.064   3.015 -0.1565 -0.6321  0.1566
   47MOL    O2717599   4.706   0.251   3.056 -0.2335  0.0628  0.0802
   47MOL    H2817600   4.472   0.263   3.289  1.0738 -2.2366  1.1166
   47MOL    H2917601   4.522   0.381   3.165  0.1781  0.2533 -0.4642
   47MOL    H3017602   4.635   0.102   3.181  0.3531 -0.2532  0.3774
   47MOL    H3117603   4.512   0.096   2.940 -0.2579  3.7480 -2.2415
   47MOL    H3217604   4.452   0.252   2.998 -2.8422 -0.9754  1.4268
   47MOL    H3317605   4.305   0.161   3.155 -1.4739  0.7252 -0.3742
   47MOL    H3417606   4.376   0.010   3.158  0.8584 -1.4797 -2.4271
   47MOL    H3517607   4.287   0.050   2.894  1.2909  1.6198  1.0625
   47MOL    H3617608   4.260   7.701   3.007  0.3424 -0.6912 -0.7418
   47MOL    H3717609   4.101   0.169   2.989  1.0345 -0.5856 -0.1779
   47MOL    H3817610   4.089   0.053   3.121  0.3491 -0.9425  0.2359
   47MOL    H3917611   4.045   7.785   2.958 -0.6625  0.4143 -0.4486
   47MOL    C4017612   4.821   0.167   3.040  0.4213 -0.1923  0.4476
   47MOL    C4117613   4.939   0.234   2.973  0.1446  0.3713 -0.2750
   47MOL    C4217614   4.990   0.362   3.051 -0.2664 -0.0131 -0.4028
   47MOL    C4317615   5.121   0.413   2.999  0.7755  0.1502 -0.4711
   47MOL    C4417616   5.193   0.514   3.091  0.7375 -0.3916 -0.0152
   47MOL    C4517617   5.337   0.541   3.051  0.0583  0.0092 -0.0541
   47MOL    O4617618   4.903   0.272   2.839  0.8113 -0.0278  0.1903
   47MOL    H4717619   4.794   0.077   2.986  1.0224 -0.0808 -0.0470
   47MOL    H4817620   4.842   0.144   3.144  1.0879  1.8751  0.7974
   47MOL    H4917621   5.026   0.168   2.965 -1.0529 -0.8416 -5.3288
   47MOL    H5017622   4.909   0.431   3.074 -1.8436 -1.2676 -2.0038
   47MOL    H5117623   5.003   0.323   3.152 -1.1863  0.9580  0.1007
   47MOL    H5217624   5.082   0.461   2.909  0.6021 -0.5675 -0.7878
   47MOL    H5317625   5.186   0.330   2.971  0.4882 -0.3163  0.2164
   47MOL    H5417626   5.143   0.609   3.069 -0.0857 -0.4073  1.6783
   47MOL    H5517627   5.197   0.488   3.197 -1.0707  2.0845  0.7150
   47MOL    H5617628   5.336   0.579   2.949 -2.2852 -0.2423 -0.1514
   47MOL    H5717629   5.390   0.609   3.118 -2.3322  0.3919  1.5214
   47MOL    H5817630   5.379   0.441   3.058  2.1234  0.9689  2.2492
   47MOL    C5917631   4.969   0.183   2.744 -0.2788 -0.1368  0.0879
   47MOL    C6017632   4.916   0.220   2.597  0.5946  0.5231  0.5489
   47MOL    C6117633   5.009   0.169   2.482  0.2773 -0.4588  0.6267
   47MOL    C6217634   4.984   0.186   2.329  0.1608  0.0379  0.2864
   47MOL    C6317635   5.079   0.109   2.242  0.1587 -0.3604  0.4188
   47MOL    C6417636   5.225   0.119   2.277  0.4883 -0.3610  0.1825
   47MOL    O6517637   4.790   0.174   2.568 -0.2665 -0.5483 -0.5430
   47MOL    H6617638   4.946   0.076   2.754 -0.2580 -0.2844 -1.3635
   47MOL    H6717639   5.076   0.200   2.753 -0.1919 -0.6882  0.1272
   47MOL    H6817640   4.928   0.328   2.588  1.1981  0.5759  1.8870
   47MOL    H6917641   5.011   0.062   2.503 -1.2766 -0.4808  0.6976
   47MOL    H7017642   5.096   0.227   2.515  0.3191 -0.6946  0.9293
   47MOL    H7117643   4.988   0.291   2.302 -0.1915 -0.3252 -1.2187
   47MOL    H7217644   4.880   0.157   2.310  0.6469 -0.2166 -2.0696
   47MOL    H7317645   5.067   0.147   2.140 -0.7704  1.5408  1.2156
   47MOL    H7417646   5.056   0.002   2.239 -0.0437 -0.2873 -0.7323
   47MOL    H7517647   5.245   0.068   2.371  0.4955 -0.0772  0.3358
   47MOL    H7617648   5.260   0.048   2.203 -1.6582  0.5552 -1.7964
   47MOL    H7717649   5.265   0.220   2.264  2.3211 -1.3048 -1.5543
   47MOL    C7817650   4.687   0.206   2.667  0.6497  0.4240 -0.2467
   47MOL    C7917651   4.552   0.144   2.617 -0.7701 -0.8659 -0.2124
   47MOL    C8017652   4.430   0.239   2.636 -0.3168  0.2779  0.9563
   47MOL    C8117653   4.321   0.181   2.545 -0.0566  0.2960 -0.1621
   47MOL    C8217654   4.193   0.279   2.535 -0.7320 -0.3610 -0.4934
   47MOL    C8317655   4.127   0.296   2.667 -0.4978  0.7583  0.5774
   47MOL    O8417656   4.516   0.018   2.675 -0.0019 -0.5029 -0.2412
   47MOL    H8517657   4.688   0.315   2.675  2.9106  0.3962  0.0927
   47MOL    H8617658   4.706   0.183   2.771 -0.0466 -0.2562 -0.2659
   47MOL    H8717659   4.567   0.133   2.509 -0.0998 -2.7456  0.0488
   47MOL    H8817660   4.398   0.249   2.740  0.3879  0.8683  1.1161
   47MOL    H8917661   4.464   0.335   2.599  2.1528 -0.3392  1.5219
   47MOL    H9017662   4.289   0.090   2.596  0.2639  1.3952  2.0532
   47MOL    H9117663   4.360   0.130   2.457 -0.1945  1.3085 -0.8104
   47MOL    H9217664   4.229   0.369   2.486 -3.0216 -0.5352 -2.5441
   47MOL    H9317665   4.123   0.237   2.463 -0.1686  0.2741 -1.4240
   47MOL    H9417666   4.198   0.355   2.726  2.7569 -0.9809 -1.4631
   47MOL    H9517667   4.126   0.199   2.717  2.1143  0.5251  0.2753
   47MOL    H9617668   4.032   0.350   2.663 -0.5209  0.8911  2.2521
   47MOL    C9717669   4.596   7.697   2.614 -0.0604  0.1303 -0.4012
   47MOL    C9817670   4.565   7.555   2.668  0.4335 -0.1639  0.0620
   47MOL    C9917671   4.414   7.536   2.705 -0.8028  0.1976  0.6619
   47MOL   C10017672   4.404   7.420   2.797 -0.2533  0.1430 -0.0202
   47MOL   C10117673   4.417   7.448   2.948 -0.2178 -0.4614 -0.8243
   47MOL   C10217674   4.441   7.322   3.034  0.7662 -0.4522 -0.0018
   47MOL   O10317675   4.611   7.445   2.592  0.2745  0.1045 -0.6782
   47MOL   H10417676   4.703   7.708   2.630  0.0959  0.1999 -1.4337
   47MOL   H10517677   4.577   7.687   2.507  1.0904  1.4385 -0.7429
   47MOL   H10617678   4.620   7.557   2.762 -0.3277 -1.3078  0.5487
   47MOL   H10717679   4.346   7.517   2.621 -0.5844  0.2783  0.4658
   47MOL   H10817680   4.380   7.633   2.743 -0.1152  0.5046  0.5049
   47MOL   H10917681   4.494   7.361   2.779 -0.3040  0.2944 -0.7724
   47MOL   H11017682   4.314   7.364   2.770 -0.3163  0.2365 -0.0005
   47MOL   H11117683   4.317   7.486   2.972 -1.3626 -3.0887 -1.1914
   47MOL   H11217684   4.488   7.526   2.974  0.1131 -0.2970 -2.1971
   47MOL   H11317685   4.472   7.358   3.132  1.3373 -1.3772  0.1614
   47MOL   H11417686   4.362   7.250   3.055 -0.4385  1.0037  0.5598
   47MOL   H11517687   4.525   7.275   2.983  0.0729 -0.5442 -1.0747
   47MOL   C11617688   4.750   7.417   2.617 -0.6823 -0.2436  0.3581
   47MOL   C11717689   4.810   7.311   2.514 -0.1504 -0.4841 -0.0166
   47MOL   C11817690   4.909   7.222   2.586  0.1611 -0.2156 -0.1236
   47MOL   C11917691   4.977   7.127   2.488 -0.3766 -0.2648 -0.1751
   47MOL   C12017692   5.094   7.039   2.545  0.1329  0.3117  0.2295
   47MOL   C12117693   5.032   6.923   2.632 -0.1922  0.3453  0.1902
   47MOL   O12217694   4.867   7.372   2.402  0.0983 -0.7295 -0.1553
   47MOL   H12317695   4.807   7.509   2.631 -1.9544  0.7675 -0.8843
   47MOL   H12417696   4.748   7.363   2.711 -0.9965  0.6746  0.8921
   47MOL   H12517697   4.726   7.244   2.492 -0.7217 -0.0330  0.7428
   47MOL   H12617698   4.988   7.286   2.626 -1.2796  0.9151  0.9667
   47MOL   H12717699   4.869   7.167   2.671 -1.0289  1.1330  0.2139
   47MOL   H12817700   4.997   7.178   2.394 -0.9589 -3.0033 -1.8350
   47MOL   H12917701   4.901   7.062   2.445 -1.7373  1.4595 -0.4408
   47MOL   H13017702   5.155   6.990   2.470 -1.1717 -0.0430 -0.6155
   47MOL   H13117703   5.162   7.088   2.615  0.0113 -3.6636  3.3064
   47MOL   H13217704   5.015   6.844   2.559  0.5427  1.4697 -1.2248
   47MOL   H13317705   5.105   6.890   2.706 -0.8695 -3.3806 -0.7064
   47MOL   H13417706   4.937   6.946   2.680  0.0278 -1.7728  1.7546
   47MOL   C13517707   4.766   7.438   2.318 -0.0597  0.8411 -0.3792
   47MOL   C13617708   4.822   7.463   2.175  0.4126  0.5772 -0.9383
   47MOL   C13717709   4.751   7.590   2.115  1.1444  0.1135 -0.1925
   47MOL   C13817710   4.757   7.598   1.954 -0.0198 -0.9103  0.1962
   47MOL   C13917711   4.661   7.706   1.894 -0.0529  0.1969  0.4127
   47MOL   C14017712   4.692   0.070   1.933  0.1744 -0.2208 -0.6844
   47MOL   O14117713   4.791   7.357   2.088 -0.2649 -0.4799 -0.8548
   47MOL   H14217714   4.668   7.389   2.313 -1.0505  2.4572  2.0220
   47MOL   H14317715   4.744   7.533   2.367 -0.0325 -0.3499  2.0522
   47MOL   H14417716   4.929   7.480   2.185  0.3757  0.2421  0.0691
   47MOL   H14517717   4.650   7.605   2.152  0.9252  1.0239 -1.1359
   47MOL   H14617718   4.790   7.683   2.156 -1.8574  0.8295  1.1243
   47MOL   H14717719   4.726   7.504   1.908  0.2035 -0.3164 -1.2180
   47MOL   H14817720   4.862   7.614   1.930 -0.5045  1.3961 -0.4714
   47MOL   H14917721   4.557   7.689   1.922  0.9350 -2.0487  3.0051
   47MOL   H15017722   4.660   7.692   1.786  0.3126  1.0695  0.2897
   47MOL   H15117723   4.672   0.084   2.039 -1.1269 -1.0592 -0.8142
   47MOL   H15217724   4.796   0.094   1.907  0.9293  0.1453  2.4176
   47MOL   H15317725   4.633   0.139   1.873 -0.0926 -0.7582 -1.0402
   47MOL   C15417726   4.892   7.273   2.053  0.2967 -0.1524 -0.2636
   47MOL   C15517727   4.839   7.159   1.967  0.2198 -0.3530 -0.4727
   47MOL   C15617728   4.868   7.182   1.815  0.5341 -0.3936 -0.0054
   47MOL   C15717729   4.796   7.072   1.729 -0.0915 -0.2751 -0.6608
   47MOL   C15817730   4.769   7.124   1.586 -0.3605 -0.6852 -0.5178
   47MOL   C15917731   4.712   7.010   1.489  0.1899 -0.2680  0.1898
   47MOL   O16017732   4.910   7.041   1.988 -0.3441  0.1467  0.2440
   47MOL   H16117733   4.935   7.239   2.147 -2.0182 -1.4035  0.3949
   47MOL   H16217734   4.978   7.326   2.014 -0.9598  0.6419 -2.0340
   47MOL   H16317735   4.731   7.152   1.980  0.2916  0.5864  0.6995
   47MOL   H16417736   4.976   7.180   1.799  0.5879 -0.8964  0.4005
   47MOL   H16517737   4.827   7.282   1.799  1.0161 -0.3228 -0.8189
   47MOL   H16617738   4.698   7.047   1.767  1.0019  0.3676  2.7226
   47MOL   H16717739   4.858   6.983   1.722 -0.8220 -0.6400 -2.7910
   47MOL   H16817740   4.702   7.209   1.586  2.0927  1.3150 -0.4490
   47MOL   H16917741   4.863   7.159   1.544 -0.9590  0.9931 -0.4793
   47MOL   H17017742   4.778   6.923   1.485 -0.5419 -0.8534  0.5777
   47MOL   H17117743   4.691   7.052   1.391 -1.8304  0.4475  0.9110
   47MOL   H17217744   4.620   6.973   1.535 -0.4004  1.6961  0.6327
   47MOL   C17317745   4.899   6.984   2.113 -0.2543 -0.1493  0.2756
   47MOL   C17417746   4.915   6.835   2.075  0.5654  0.0990 -0.4014
   47MOL   C17517747   4.991   6.742   2.177  0.2853 -0.6327 -0.0546
   47MOL   C17617748   5.138   6.753   2.159  0.2070  0.1779  0.0535
   47MOL   C17717749   5.223   6.647   2.230  0.2078 -0.2738 -1.1663
   47MOL   C17817750   5.375   6.667   2.201  0.1384 -0.2044 -0.1979
   47MOL   O17917751   4.787   6.775   2.071  0.1814  0.2956 -0.4316
   47MOL   H18017752   4.800   6.994   2.159 -0.8248  0.2320 -1.0037
   47MOL   H18117753   4.975   7.018   2.183 -1.0540  3.1210 -0.3655
   47MOL   H18217754   4.967   6.826   1.979  1.5213  3.5999 -0.3038
   47MOL   H18317755   4.968   6.764   2.282  2.8213  2.6757 -0.1008
   47MOL   H18417756   4.969   6.638   2.153  1.2552 -0.8515 -0.0010
   47MOL   H18517757   5.166   6.746   2.054 -0.1806 -1.4156  0.0410
   47MOL   H18617758   5.168   6.854   2.185  0.7115  0.0156  0.0982
   47MOL   H18717759   5.203   6.649   2.337 -0.9303  1.3552 -1.3896
   47MOL   H18817760   5.188   6.549   2.198  1.2015 -0.7459 -0.8226
   47MOL   H18917761   5.430   6.603   2.271  0.9723  2.2218  1.4381
   47MOL   H19017762   5.420   6.763   2.229  1.0823 -0.0829 -2.0924
   47MOL   H19117763   5.415   6.649   2.102 -0.0081 -0.8611 -0.1432
   47MOL   C19217764   4.722   6.788   1.945 -1.0936 -0.9152  0.8498
   47MOL   C19317765   4.578   6.746   1.970  0.5616 -0.0315 -0.7050
   47MOL   C19417766   4.499   6.729   1.836 -0.5317  0.1555 -0.2336
   47MOL   C19517767   4.529   6.611   1.751  0.4348 -0.1638  0.6230
   47MOL   C19617768   4.442   6.607   1.625  0.5392 -0.1234  0.5589
   47MOL   C19717769   4.476   6.484   1.540  0.4188  0.2703  0.7643
   47MOL   O19817770   4.518   6.864   2.029 -0.9178  0.9041  0.2164
   47MOL   H19917771   4.733   6.892   1.913 -0.2706 -1.4909 -0.7560
   47MOL   H20017772   4.768   6.719   1.875 -1.0957 -0.1621  0.1039
   47MOL   H20117773   4.576   6.653   2.027 -3.0279 -0.2607 -1.1304
   47MOL   H20217774   4.391   6.727   1.848 -0.5649 -0.6486 -0.6684
   47MOL   H20317775   4.522   6.822   1.783 -0.9350 -1.2837 -3.0001
   47MOL   H20417776   4.524   6.513   1.798 -0.4757 -1.2857 -1.7440
   47MOL   H20517777   4.631   6.627   1.716 -0.4978  0.4450 -1.9286
   47MOL   H20617778   4.333   6.600   1.637  0.5906 -1.2417  0.4057
   47MOL   H20717779   4.457   6.695   1.563 -0.2669 -0.2410  0.1897
   47MOL   H20817780   4.473   6.385   1.586  2.6220 -0.4770 -0.6019
   47MOL   H20917781   4.395   6.473   1.468  3.0704 -0.8751 -2.1777
   47MOL   H21017782   4.572   6.506   1.492  1.8341  0.2573  3.5071
   47MOL   C21117783   4.506   6.872   2.167 -0.4770  0.8269 -0.1981
   47MOL   C21217784   4.508   7.026   2.189  0.0924 -0.4618  0.3798
   47MOL   C21317785   4.542   7.077   2.334 -0.0210  0.1591  1.2293
   47MOL   C21417786   4.434   7.047   2.432  0.3576 -0.1480  0.6059
   47MOL   C21517787   4.358   7.164   2.500 -0.5583 -0.3961  0.0164
   47MOL   C21617788   4.263   7.126   2.616  0.1138 -0.4011  0.4993
   47MOL   O21717789   4.387   7.067   2.147  0.0690 -0.4127  0.2499
   47MOL   H21817790   4.593   6.824   2.211 -0.5695  1.2960  0.5144
   47MOL   H21917791   4.412   6.826   2.200 -1.0086  2.6147  0.9121
   47MOL   H22017792   4.586   7.065   2.123  0.6754 -1.1858  0.6259
   47MOL   H22117793   4.635   7.037   2.374 -0.2291 -0.1792  1.3731
   47MOL   H22217794   4.553   7.186   2.333 -1.2981  0.2943 -0.5005
   47MOL   H22317795   4.371   6.974   2.381  0.6056 -0.0892  0.2132
   47MOL   H22417796   4.479   6.996   2.517  0.5508  1.5046  1.5188
   47MOL   H22517797   4.429   7.237   2.539 -1.3403  2.4645 -3.6403
   47MOL   H22617798   4.304   7.220   2.424  0.6411  3.4229  1.8679
   47MOL   H22717799   4.315   7.117   2.712  2.9588  1.3092 -0.8132
   47MOL   H22817800   4.211   7.032   2.600  0.2888 -0.4265  0.0862
   47MOL   H22917801   4.192   7.205   2.639  0.9634  0.0683  1.5768
   47MOL   C23017802   4.374   7.195   2.083 -0.4649  0.7254  0.1331
   47MOL   C23117803   4.396   7.193   1.929  0.0083 -0.2034 -0.5908
   47MOL   C23217804   4.437   7.332   1.878  0.5419 -0.0609  0.2786
   47MOL   C23317805   4.408   7.364   1.723  0.3669  0.5392 -0.2718
   47MOL   C23417806   4.470   7.496   1.672  0.2658 -0.2757  0.7886
   47MOL   C23517807   4.456   7.503   1.517 -0.2258 -0.1550 -0.4441
   47MOL   O23617808   4.291   7.149   1.850 -0.2295  0.4369  0.5511
   47MOL   H23717809   4.276   7.236   2.105 -0.0760  3.1589 -2.3770
   47MOL   H23817810   4.447   7.271   2.112  1.9587 -1.6989  0.5283
   47MOL   H23917811   4.481   7.132   1.898  0.0987 -1.1083  1.3071
   47MOL   H24017812   4.542   7.336   1.907  1.0673  0.6676 -1.6275
   47MOL   H24117813   4.393   7.408   1.942  1.0345  2.2436 -2.0055
   47MOL   H24217814   4.307   7.355   1.683  0.5219  0.2483 -0.6069
   47MOL   H24317815   4.454   7.283   1.666 -0.8583  0.5650 -1.3245
   47MOL   H24417816   4.410   7.576   1.715 -1.0068  0.4114 -2.1809
   47MOL   H24517817   4.573   7.502   1.709  1.5703  2.5574 -2.9968
   47MOL   H24617818   4.513   7.420   1.475  0.7717 -0.7962  2.0776
   47MOL   H24717819   4.497   7.595   1.475  1.2830 -0.1489  0.9353
   47MOL   H24817820   4.360   7.485   1.470  0.6890 -1.6746 -1.7867
   47MOL   C24917821   4.262   7.009   1.865  0.3518  0.3205  0.4411
   47MOL   C25017822   4.163   6.965   1.755  0.6860  0.5314 -0.1569
   47MOL   C25117823   4.087   6.835   1.785 -0.5733 -0.0258  0.1226
   47MOL   C25217824   4.008   6.788   1.665  0.6584  0.1346 -0.0811
   47MOL   C25317825   3.923   6.659   1.700 -0.2029  0.0931 -0.1172
   47MOL   C25417826   3.871   6.592   1.575  0.5433 -0.5394 -0.9415
   47MOL   O25517827   4.223   6.938   1.630  0.3491 -0.0911 -0.2291
   47MOL   H25617828   4.358   6.958   1.858 -0.6647 -1.2079 -3.3282
   47MOL   H25717829   4.224   6.989   1.966 -0.8492  0.4834  0.0238
   47MOL   H25817830   4.080   7.035   1.750 -0.5665 -0.9932 -0.9822
   47MOL   H25917831   4.154   6.755   1.815 -0.9063  0.1060  1.2550
   47MOL   H26017832   4.028   6.859   1.874 -0.8821  0.0389 -0.1015
   47MOL   H26117833   3.949   6.865   1.616  0.9588 -0.2428 -1.0316
   47MOL   H26217834   4.084   6.763   1.591  0.9485 -2.5405  1.0446
   47MOL   H26317835   3.978   6.577   1.747 -1.9994 -2.2743 -2.0254
   47MOL   H26417836   3.838   6.692   1.759 -0.9010  1.2974 -1.7483
   47MOL   H26517837   3.953   6.567   1.507  1.3388 -2.0122  0.5157
   47MOL   H26617838   3.802   6.653   1.517 -3.5356 -1.7143  2.4640
   47MOL   H26717839   3.813   6.501   1.592 -0.8218  0.5628  0.2852
   47MOL   C26817840   4.290   7.048   1.570 -0.2323 -1.0189  0.3804
   47MOL   C26917841   4.296   7.047   1.415 -0.8467 -0.0376 -0.1284
   47MOL   C27017842   4.375   7.169   1.370 -0.0443  0.2499 -0.0808
   47MOL   C27117843   4.415   7.165   1.220  0.9008  0.6416 -0.1139
   47MOL   C27217844   4.506   7.282   1.168  0.1795  0.5726  0.2523
   47MOL   C27317845   4.433   7.415   1.139  0.2632 -0.3556 -0.1538
   47MOL   O27417846   4.169   7.051   1.346  0.2636  0.1687 -0.3614
   47MOL   H27517847   4.382   7.063   1.627  0.5357 -1.5931 -0.6931
   47MOL   H27617848   4.235   7.138   1.596 -2.0194 -2.1121  0.4759
   47MOL   H27717849   4.353   6.960   1.383  1.1167  1.3495 -0.5117
   47MOL   H27817850   4.318   7.259   1.391  1.6728  1.2223  0.4893
   47MOL   H27917851   4.465   7.181   1.431 -0.2570  3.6050 -0.3281
   47MOL   H28017852   4.456   7.066   1.200 -0.6178  0.2444 -1.3674
   47MOL   H28117853   4.326   7.169   1.158  0.0711  1.0636  1.0710
   47MOL   H28217854   4.585   7.308   1.239  0.5009  1.1773 -0.3235
   47MOL   H28317855   4.551   7.247   1.075 -1.4680  1.1734 -0.7940
   47MOL   H28417856   4.381   7.459   1.225  0.0110  0.5962 -0.7834
   47MOL   H28517857   4.501   7.493   1.102 -1.4449  1.5481  0.6150
   47MOL   H28617858   4.354   7.399   1.066  1.2226  2.9642 -2.0626
   47MOL   C28717859   4.118   6.929   1.307 -0.0100  0.2103  0.2852
   47MOL   C28817860   4.042   6.932   1.176 -0.5573 -0.7742 -0.8998
   47MOL   C28917861   3.964   6.802   1.141  0.1996  0.5270 -0.3571
   47MOL   C29017862   4.040   6.670   1.132 -0.0926  0.1459  0.2121
   47MOL   C29117863   3.942   6.560   1.093 -0.1500  0.2697  0.6826
   47MOL   C29217864   4.011   6.424   1.080  0.3177 -0.0505  0.0182
   47MOL   O29317865   4.155   6.934   1.077 -0.2039 -0.1018  0.6050
   47MOL   H29417866   4.048   6.900   1.386  1.4562 -2.1162  0.7813
   47MOL   H29517867   4.189   6.848   1.295  1.4122  1.5346 -0.3898
   47MOL   H29617868   3.982   7.023   1.166 -1.9791 -1.6612 -0.5107
   47MOL   H29717869   3.893   6.796   1.223  1.4861  2.8053  0.9693
   47MOL   H29817870   3.900   6.833   1.058  2.2596 -0.5310 -2.3836
   47MOL   H29917871   4.118   6.680   1.056 -1.4972 -1.4407 -1.4644
   47MOL   H30017872   4.095   6.639   1.221 -0.0373  2.7240  1.1483
   47MOL   H30117873   3.895   6.580   0.997  1.7677 -3.5725 -1.1843
   47MOL   H30217874   3.864   6.543   1.168  0.5456 -1.4909  1.0362
   47MOL   H30317875   4.060   6.395   1.172 -2.5451  1.0491  1.9586
   47MOL   H30417876   3.938   6.345   1.061  2.7657 -1.9807 -1.5750
   47MOL   H30517877   4.074   6.407   0.992  0.8562 -2.1854  0.8022
   47MOL   C30617878   4.123   7.012   0.960 -0.2057 -0.0518 -0.4926
   47MOL   C30717879   4.258   7.034   0.885 -0.1599  0.2152  0.4954
   47MOL   C30817880   4.271   7.184   0.828  0.8346 -0.1604 -0.5986
   47MOL   C30917881   4.417   7.207   0.772  0.5017  0.2284  0.1119
   47MOL   C31017882   4.449   7.350   0.724  0.1344 -0.3617  0.4909
   47MOL   C31117883   4.578   7.348   0.642  0.0611 -0.0144  0.2693
   47MOL   O31217884   4.283   6.942   0.780 -0.7386 -0.0816 -0.5705
   47MOL   H31317885   4.060   6.951   0.895  1.9895 -3.1079  0.1702
   47MOL   H31417886   4.070   7.104   0.987 -0.9838 -0.7590  0.4224
   47MOL   H31517887   4.337   7.023   0.959 -0.3026 -0.8258  0.4926
   47MOL   H31617888   4.267   7.252   0.913  0.1400  0.7714 -1.3694
   47MOL   H31717889   4.197   7.209   0.753 -0.3322 -0.0391  0.5762
   47MOL   H31817890   4.482   7.173   0.853  0.1920 -2.8444 -0.8719
   47MOL   H31917891   4.440   7.133   0.695 -0.2086  0.2492 -0.1288
   47MOL   H32017892   4.437   7.428   0.799 -1.5409  0.0879 -0.2112
   47MOL   H32117893   4.370   7.369   0.651 -0.7406 -0.0942  1.5066
   47MOL   H32217894   4.566   7.271   0.566  3.4983 -0.0927 -0.2443
   47MOL   H32317895   4.575   7.445   0.593 -0.4855  1.0064  2.2506
   47MOL   H32417896   4.668   7.334   0.702 -0.5633  0.4776  1.3475
   47MOL   C32517897   4.290   6.809   0.827 -0.0197  0.1974 -0.0162
   47MOL   C32617898   4.382   6.741   0.734 -0.1315  0.6839  0.4514
   47MOL   C32717899   4.336   6.599   0.696  0.5757  0.1217 -0.4622
   47MOL   C32817900   4.423   6.538   0.586  1.3038 -0.2688  0.1493
   47MOL   C32917901   4.375   6.412   0.505  0.3581  0.6182  0.3958
   47MOL   C33017902   4.385   6.287   0.594  0.6209  0.0741 -0.0787
   47MOL   O33117903   4.502   6.725   0.798 -0.0035 -0.8906 -0.5276
   47MOL   H33217904   4.190   6.767   0.829  0.3923 -0.7582  1.1507
   47MOL   H33317905   4.328   6.799   0.929  2.2739 -1.3248 -0.9582
   47MOL   H33417906   4.384   6.792   0.638 -3.5029 -2.0543 -1.1980
   47MOL   H33517907   4.336   6.524   0.774  2.1947 -0.9238 -1.4357
   47MOL   H33617908   4.231   6.599   0.667 -0.1257  1.5003  1.9386
   47MOL   H33717909   4.435   6.625   0.521 -1.8820 -0.3732 -0.6553
   47MOL   H33817910   4.516   6.517   0.638  2.1767  0.0398 -1.2529
   47MOL   H33917911   4.275   6.414   0.461  0.6394  1.0860 -0.2386
   47MOL   H34017912   4.441   6.387   0.422  0.3716 -0.9850  0.8896
   47MOL   H34117913   4.300   6.275   0.661 -1.3797  0.5132 -2.4590
   47MOL   H34217914   4.363   6.209   0.520 -1.4272  0.3802  0.1671
   47MOL   H34317915   4.476   6.270   0.651  0.4927  0.6600  0.3010
   47MOL   C34417916   4.590   6.840   0.800 -0.4227  0.8041  0.0100
   47MOL   C34517917   4.738   6.799   0.801  0.6817  0.9618  0.1458
   47MOL   C34617918   4.802   6.892   0.700 -0.7320  0.0041 -0.0031
   47MOL   C34717919   4.949   6.854   0.677  0.1794  0.0153  0.0224
   47MOL   C34817920   5.009   6.959   0.583  0.0313  0.8165 -0.1522
   47MOL   C34917921   5.002   7.106   0.624 -0.6433 -0.0054  0.4461
   47MOL   O35017922   4.792   6.813   0.931  0.5046  0.2610 -0.5661
   47MOL   H35117923   4.564   6.904   0.884  0.2301 -0.5777  1.2764
   47MOL   H35217924   4.575   6.909   0.716  2.0760 -2.8395 -3.6471
   47MOL   H35317925   4.739   6.700   0.756 -0.3851  1.1775 -0.3783
   47MOL   H35417926   4.782   6.991   0.741 -0.2304  0.1050 -0.0002
   47MOL   H35517927   4.744   6.879   0.609 -1.3210  0.6256  0.2817
   47MOL   H35617928   4.963   6.753   0.639 -1.0103 -0.8719  1.8901
   47MOL   H35717929   4.990   6.850   0.778  0.0472  3.4171  0.2548
   47MOL   H35817930   4.973   6.952   0.481  0.4710 -2.4370 -0.1217
   47MOL   H35917931   5.108   6.920   0.561 -0.0143  0.3763  0.4209
   47MOL   H36017932   5.057   7.169   0.554  0.7621 -1.7650 -0.0926
   47MOL   H36117933   5.058   7.117   0.717  0.8248 -2.0102 -0.1540
   47MOL   H36217934   4.899   7.137   0.638 -0.4327  1.1260 -0.4359
   47MOL   C36317935   4.803   6.689   0.991 -0.3872  0.3201 -0.3756
   47MOL   C36417936   4.866   6.698   1.129 -0.7437  0.7167  0.0008
   47MOL   C36517937   5.005   6.765   1.130 -0.3182 -0.0366  0.0636
   47MOL   C36617938   5.077   6.777   1.265  0.0520  0.8056  0.1776
   47MOL   C36717939   5.231   6.762   1.247 -0.4573 -0.6349  0.1791
   47MOL   C36817940   5.276   6.623   1.190 -0.6957  0.8552  0.5281
   47MOL   O36917941   4.778   6.754   1.222 -0.0060 -0.4315  0.1872
   47MOL   H37017942   4.857   6.613   0.934 -0.6124 -0.5757  0.5990
   47MOL   H37117943   4.701   6.653   1.003  0.1101 -0.5058  1.5692
   47MOL   H37217944   4.890   6.600   1.171 -2.0380  0.2654 -0.2754
   47MOL   H37317945   5.064   6.713   1.054 -0.1480 -0.4753  0.4974
   47MOL   H37417946   4.992   6.870   1.101  2.9278  0.5317  0.3906
   47MOL   H37517947   5.052   6.875   1.305  0.0884  1.9870 -2.6490
   47MOL   H37617948   5.041   6.712   1.346  0.5845  0.5357  0.2003
   47MOL   H37717949   5.264   6.841   1.180 -0.0497  1.9623  3.2967
   47MOL   H37817950   5.292   6.779   1.335  0.5264  1.8968 -0.9434
   47MOL   H37917951   5.216   6.577   1.112  2.4066  0.1319 -1.5212
   47MOL   H38017952   5.379   6.635   1.156 -0.1227  0.9869  2.2408
   47MOL   H38117953   5.279   6.552   1.273 -3.9298  0.0785  0.0545
   47MOL   H38217954   4.743   6.830   1.176  1.9619  1.7743  2.2397
   48MOL     C117955   3.132   0.677   7.202  0.4750  1.2680 -0.3745
   48MOL     C217956   3.122   0.585   7.324 -0.7609  0.3971 -0.9315
   48MOL     C317957   3.175   0.440   7.293 -0.7231 -0.5558  0.0911
   48MOL     C417958   3.178   0.348   7.412 -0.1333 -0.1680 -0.0276
   48MOL     C517959   3.272   0.228   7.382 -0.0152  0.3252 -1.1551
   48MOL     C617960   3.200   0.106   7.323  0.6019  0.0751 -0.1652
   48MOL     O717961   3.216   0.633   7.421  0.0504 -0.2594 -0.0548
   48MOL     H817962   3.234   0.677   7.164  0.7492  2.3800  0.3054
   48MOL     H917963   3.109   0.779   7.233 -0.8261  1.0557 -0.6445
   48MOL    H1017964   3.022   0.574   7.365 -0.6743  0.7386 -0.6280
   48MOL    H1117965   3.113   0.389   7.219  1.0751  0.5911 -2.2811
   48MOL    H1217966   3.274   0.442   7.247 -1.2067 -0.4475 -0.9614
   48MOL    H1317967   3.230   0.392   7.497  0.1761  1.1389 -0.8855
   48MOL    H1417968   3.080   0.309   7.440 -1.3454  1.7090 -1.4681
   48MOL    H1517969   3.361   0.254   7.325  1.7909 -0.2604  1.3131
   48MOL    H1617970   3.325   0.195   7.471  0.0484  0.8105 -1.0144
   48MOL    H1717971   3.276   0.052   7.267 -0.8619 -0.0944 -2.0556
   48MOL    H1817972   3.146   0.040   7.390  0.5137  2.7339  2.4719
   48MOL    H1917973   3.115   0.124   7.256  0.6941 -1.7039 -0.7726
   48MOL    H2017974   3.058   0.644   7.130 -0.1374 -0.9690  1.2203
   48MOL    C2117975   3.157   0.725   7.516 -0.3962  0.5882 -0.3353
   48MOL    C2217976   3.261   0.807   7.599  0.3941 -0.2410 -0.1808
   48MOL    C2317977   3.360   0.718   7.675  0.6808 -0.1848  0.3267
   48MOL    C2417978   3.442   0.780   7.785  1.4332 -0.3302 -0.9553
   48MOL    C2517979   3.564   0.693   0.052 -0.2956  0.5651 -0.4353
   48MOL    C2617980   3.658   0.781   0.142  0.2714  0.6594 -0.7653
   48MOL    O2717981   3.345   0.893   7.528  0.0932 -0.6018 -0.2264
   48MOL    H2817982   3.100   0.800   7.461  1.8442 -0.5079 -4.3630
   48MOL    H2917983   3.089   0.667   7.577 -1.5860  1.2838 -0.9948
   48MOL    H3017984   3.212   0.874   7.670 -0.6259 -1.4644  0.2805
   48MOL    H3117985   3.414   0.657   7.602 -3.9869 -3.2665 -0.8378
   48MOL    H3217986   3.299   0.644   7.727 -0.5194  0.3670 -0.2588
   48MOL    H3317987   3.380   0.819   0.080  1.1185  2.0145 -2.2728
   48MOL    H3417988   3.497   0.862   7.737  1.7539  0.0433  0.0413
   48MOL    H3517989   3.527   0.606   0.107 -1.1955 -0.9439 -3.3533
   48MOL    H3617990   3.623   0.658   7.754  0.4062 -0.6859  0.5633
   48MOL    H3717991   3.754   0.736   0.169  0.7936  2.1823 -0.0617
   48MOL    H3817992   3.620   0.798   0.242 -1.4338 -1.0252 -1.0877
   48MOL    H3917993   3.681   0.872   0.087  1.3059  0.3414 -0.8725
   48MOL    C4017994   3.277   1.007   7.470 -0.3880 -0.4578 -0.1641
   48MOL    C4117995   3.372   1.099   7.395  0.0176 -0.2512  0.0311
   48MOL    C4217996   3.323   1.242   7.377  0.3874  0.1700  0.7985
   48MOL    C4317997   3.406   1.336   7.294 -0.4120  0.0170 -0.7048
   48MOL    C4417998   3.355   1.486   7.293 -0.1600 -0.6911 -0.3044
   48MOL    C4517999   3.390   1.566   7.417 -0.4868  0.0552 -0.2958
   48MOL    O4618000   3.424   1.044   7.270  0.7083  0.2720 -0.1633
   48MOL    H4718001   3.226   1.069   7.542 -1.6958 -1.0063 -0.6071
   48MOL    H4818002   3.201   0.966   7.403 -0.3481  1.2420 -1.2652
   48MOL    H4918003   3.453   1.108   7.468 -0.8679 -0.3495  1.0422
   48MOL    H5018004   3.227   1.241   7.326 -0.4578  1.8922  2.2843
   48MOL    H5118005   3.324   1.285   7.478  1.0332 -0.9926  1.2908
   48MOL    H5218006   3.418   1.290   7.197 -2.0498  1.0561 -1.4238
   48MOL    H5318007   3.507   1.334   7.334 -1.3029  0.2793  1.6561
   48MOL    H5418008   3.401   1.527   7.203  3.7097  1.4827  2.4816
   48MOL    H5518009   3.247   1.494   7.286 -0.1570  0.0090  0.3549
   48MOL    H5618010   3.494   1.591   7.437  0.3041 -2.4700 -1.0488
   48MOL    H5718011   3.344   1.662   7.393 -2.4013 -1.1546 -1.6160
   48MOL    H5818012   3.344   1.529   7.509  1.6768 -1.0432  0.3669
   48MOL    C5918013   3.522   0.935   7.263 -0.2159 -0.4044 -0.6547
   48MOL    C6018014   3.581   0.928   7.125  0.3174 -0.1913 -0.2055
   48MOL    C6118015   3.484   0.969   7.020  0.3750  0.3022 -0.5185
   48MOL    C6218016   3.357   0.887   7.007  0.1231  0.1166  0.4910
   48MOL    C6318017   3.297   0.900   6.866  0.4624  0.4985  0.6169
   48MOL    C6418018   3.162   0.836   6.858  0.5399  0.9064 -0.0725
   48MOL    O6518019   3.694   1.016   7.125 -0.6096  0.8364  0.6545
   48MOL    H6618020   3.476   0.840   7.291 -0.8017  0.2570  0.6534
   48MOL    H6718021   3.604   0.960   7.330 -2.0773  1.1563  1.1010
   48MOL    H6818022   3.616   0.827   7.103  0.1967 -0.3388  0.2681
   48MOL    H6918023   3.540   0.977   6.927  1.1966  2.4364  0.1148
   48MOL    H7018024   3.470   1.076   7.038  0.5320  0.2904 -0.3117
   48MOL    H7118025   3.289   0.930   7.080 -0.9470 -1.1217  0.2307
   48MOL    H7218026   3.374   0.783   7.035 -0.1741 -0.3443 -0.9573
   48MOL    H7318027   3.362   0.857   6.790 -0.3951  1.2772 -0.5729
   48MOL    H7418028   3.276   1.004   6.839  1.4749  0.4769 -0.2833
   48MOL    H7518029   3.143   0.731   6.879 -0.9436  1.1263 -0.2498
   48MOL    H7618030   3.100   0.880   6.937 -0.3641  2.0727 -1.4006
   48MOL    H7718031   3.110   0.853   6.764 -2.8714 -0.2941  1.5093
   48MOL    C7818032   3.819   0.947   7.139  1.1910 -0.1723 -0.4397
   48MOL    C7918033   3.934   1.046   7.154 -0.0125 -0.2268  0.0942
   48MOL    C8018034   4.074   0.979   7.112 -0.3581  0.1067  0.4230
   48MOL    C8118035   4.103   0.964   6.963  0.4012 -0.1696  0.0377
   48MOL    C8218036   4.236   0.905   6.932  0.2883  0.0951 -0.2500
   48MOL    C8318037   4.237   0.867   6.781 -0.5650  0.1767 -0.0666
   48MOL    O8418038   3.942   1.076   7.290 -0.6676  0.5301  0.2372
   48MOL    H8518039   3.835   0.885   7.051 -3.1352 -0.1749 -1.3655
   48MOL    H8618040   3.809   0.882   7.226 -0.0101  2.2431  1.2873
   48MOL    H8718041   3.912   1.135   7.095  0.9248  0.2908  0.5134
   48MOL    H8818042   4.156   1.036   7.156  0.6995  0.3110 -1.7516
   48MOL    H8918043   4.073   0.885   7.167 -1.7311 -0.7635 -1.0345
   48MOL    H9018044   4.088   1.056   6.907 -3.3320 -1.1165 -0.6697
   48MOL    H9118045   4.022   0.903   6.922  0.4600 -1.7092  2.0843
   48MOL    H9218046   4.318   0.971   6.960 -1.1416  1.2492  1.2561
   48MOL    H9318047   4.234   0.819   6.999  1.1556 -0.3786 -0.8226
   48MOL    H9418048   4.144   0.814   6.760 -0.6154  0.2419 -0.0077
   48MOL    H9518049   4.326   0.813   6.747 -1.8843 -1.7234 -0.5924
   48MOL    H9618050   4.235   0.965   6.733  1.1750  0.4767  0.4238
   48MOL    C9718051   3.853   1.186   7.328 -0.0580  0.2124  0.1274
   48MOL    C9818052   3.884   1.237   7.474 -0.0887 -0.9085  0.6037
   48MOL    C9918053   3.762   1.326   7.521  0.6723 -0.6781 -0.2967
   48MOL   C10018054   3.775   1.384   7.667 -0.2008  0.0795  0.5417
   48MOL   C10118055   3.876   1.502   7.678  0.7797  0.7407 -0.5267
   48MOL   C10218056   3.889   1.551   0.029 -0.3520  0.5893 -0.6103
   48MOL   O10318057   3.898   1.121   7.557 -0.1725 -0.2137  0.3686
   48MOL   H10418058   3.747   1.160   7.332 -0.4357  1.3599 -1.7287
   48MOL   H10518059   3.849   1.273   7.262 -0.0417 -0.3821 -0.6711
   48MOL   H10618060   3.968   1.306   7.466 -0.7759  0.1655  2.3350
   48MOL   H10718061   3.666   1.275   7.519 -0.3430  1.0330  2.0380
   48MOL   H10818062   3.743   1.401   7.444 -0.9364 -0.2000  0.5369
   48MOL   H10918063   3.827   1.306   7.723 -0.1547  0.4918  1.0791
   48MOL   H11018064   3.676   1.416   7.701  0.4349  1.3716  1.2237
   48MOL   H11118065   3.837   1.590   7.627 -2.6814  1.0244  2.4573
   48MOL   H11218066   3.975   1.468   7.647 -0.2421 -0.8234 -2.1716
   48MOL   H11318067   3.976   1.617   0.027 -0.5123  0.7778 -1.6119
   48MOL   H11418068   3.801   1.603   0.066 -0.6835 -0.0608 -0.4755
   48MOL   H11518069   3.910   1.474   0.104  0.7065 -0.6460 -2.1436
   48MOL   C11618070   4.026   1.077   7.591  0.0962 -0.4510 -0.4960
   48MOL   C11718071   4.012   0.959   7.686  0.2072 -0.3655  0.0250
   48MOL   C11818072   4.141   0.932   7.781 -0.4039  0.4547  0.5005
   48MOL   C11918073   4.147   0.799   0.063 -0.5389  0.9794 -0.0668
   48MOL   C12018074   4.264   0.786   0.157  0.1287  0.9718 -0.1828
   48MOL   C12118075   4.279   0.641   0.214  0.6255 -0.6037 -0.0235
   48MOL   O12218076   3.996   0.841   7.605  0.0383  0.6841  0.0171
   48MOL   H12318077   4.067   1.041   7.497 -1.3409 -0.6178 -1.0829
   48MOL   H12418078   4.096   1.154   7.622 -0.2152 -1.7802  3.9568
   48MOL   H12518079   3.923   0.960   7.749  0.0280  1.1052 -0.2400
   48MOL   H12618080   4.229   0.951   7.719 -0.3790  1.0362  0.7181
   48MOL   H12718081   4.146   1.004   0.077 -1.6337 -1.4466  2.2900
   48MOL   H12818082   4.154   0.725   7.769  0.8766  2.5221 -1.3941
   48MOL   H12918083   4.058   0.772   0.121  1.0493 -0.8910  1.5654
   48MOL   H13018084   4.360   0.819   0.116  1.5693 -0.8668  1.5848
   48MOL   H13118085   4.245   0.838   0.251 -2.6633 -0.8750  0.3341
   48MOL   H13218086   4.380   0.620   0.250  1.1537  1.5432 -0.1609
   48MOL   H13318087   4.206   0.635   0.294  2.5081 -0.7907  1.7254
   48MOL   H13418088   4.265   0.582   0.123 -1.4886 -0.3619  0.1109
   48MOL   C13518089   3.865   0.823   7.558  0.2422  0.0940  0.0430
   48MOL   C13618090   3.858   0.672   7.516  0.1095  0.0647  0.1381
   48MOL   C13718091   3.734   0.653   7.431  0.7246  0.4563 -0.3989
   48MOL   C13818092   3.702   0.521   7.359  1.0065  0.3980  0.0504
   48MOL   C13918093   3.567   0.512   7.284 -0.7585  0.4547 -0.0589
   48MOL   C14018094   3.581   0.405   7.176  0.1413  0.6323 -0.6126
   48MOL   O14118095   3.853   0.586   7.631 -0.4262  0.0280 -0.4589
   48MOL   H14218096   3.790   0.833   7.636  1.6359 -1.8075  1.6860
   48MOL   H14318097   3.854   0.886   7.469  2.3988 -0.7192 -0.8246
   48MOL   H14418098   3.941   0.648   7.448  0.8087 -0.3637  1.1322
   48MOL   H14518099   3.641   0.662   7.487  0.4659  0.1557 -0.7802
   48MOL   H14618100   3.728   0.728   7.353  3.6117  0.8573 -0.2686
   48MOL   H14718101   3.703   0.439   7.430  1.0339  1.4197  1.2527
   48MOL   H14818102   3.783   0.503   7.289 -1.2473 -0.3021 -2.4658
   48MOL   H14918103   3.549   0.612   7.245  1.4559  0.5191 -0.9526
   48MOL   H15018104   3.497   0.485   7.364 -0.7584 -0.8648 -0.4902
   48MOL   H15118105   3.605   0.322   7.241  0.1196 -1.5055 -3.2583
   48MOL   H15218106   3.485   0.389   7.127 -0.6676 -0.5784  1.3152
   48MOL   H15318107   3.647   0.429   7.093 -1.5718 -3.3421 -3.2812
   48MOL   C15418108   3.944   0.475   7.632  0.2074 -0.0008 -0.0095
   48MOL   C15518109   3.923   0.393   7.763 -0.3640 -0.2094 -0.5993
   48MOL   C15618110   3.894   0.473   0.104  0.1804 -0.6182 -0.2745
   48MOL   C15718111   3.894   0.392   0.233 -0.0060 -0.6994 -0.7934
   48MOL   C15818112   4.032   0.330   0.266  0.2660 -0.4492 -0.3009
   48MOL   C15918113   4.054   0.304   0.414 -0.4661 -0.4678 -0.4656
   48MOL   O16018114   3.831   0.282   7.756 -0.3956  0.0457  0.7184
   48MOL   H16118115   4.046   0.511   7.624  0.4673 -0.7034  0.0885
   48MOL   H16218116   3.928   0.406   7.549 -2.5335  0.5155  0.0333
   48MOL   H16318117   4.018   0.349   0.007  0.6847  1.4077 -1.4992
   48MOL   H16418118   3.795   0.517   0.092  0.5424  0.5469  0.8736
   48MOL   H16518119   3.970   0.551   0.106  1.0430 -1.4639  1.4686
   48MOL   H16618120   3.822   0.310   0.240 -0.8719  0.0881 -0.2261
   48MOL   H16718121   3.871   0.462   0.314  0.0045  2.0228 -3.0550
   48MOL   H16818122   4.032   0.240   0.205 -2.4778 -0.9131  0.2799
   48MOL   H16918123   4.117   0.380   0.219 -1.8613  2.5655 -1.1454
   48MOL   H17018124   4.084   0.392   0.470  1.4442  0.3816 -2.7277
   48MOL   H17118125   4.137   0.234   0.426  0.6940  1.1320  1.1106
   48MOL   H17218126   3.971   0.258   0.468  0.0758 -0.1290  0.6746
   48MOL   C17318127   3.692   0.296   7.729  0.2606  0.3151  0.2069
   48MOL   C17418128   3.609   0.176   7.679 -0.4952  0.3703  0.3220
   48MOL   C17518129   3.471   0.166   7.735  0.4932  0.7480 -0.5292
   48MOL   C17618130   3.413   0.023   7.709  0.3433  0.5780  0.0157
   48MOL   C17718131   3.262   0.013   7.754 -0.7477  0.1841 -0.0618
   48MOL   C17818132   3.216   7.650   7.749  0.0107  0.2195  0.4245
   48MOL   O17918133   3.605   0.164   7.536 -0.1931 -0.4520 -0.5405
   48MOL   H18018134   3.673   0.379   7.661  0.1574  0.0564 -0.0774
   48MOL   H18118135   3.641   0.343   0.028  3.0600 -2.1078  3.3780
   48MOL   H18218136   3.653   0.082   7.712 -0.6507 -0.5753 -2.0408
   48MOL   H18318137   3.474   0.165   0.059  1.3422 -1.5674 -0.5324
   48MOL   H18418138   3.405   0.236   7.684  0.5374 -1.2281 -3.4011
   48MOL   H18518139   3.403   0.012   7.601  0.5740  2.1807 -0.1883
   48MOL   H18618140   3.473   7.729   7.752 -0.7389 -1.6788 -2.5388
   48MOL   H18718141   3.246   0.065   0.063  1.0200  0.3238  0.1706
   48MOL   H18818142   3.202   0.070   7.683 -0.7685 -1.8992 -1.7480
   48MOL   H18918143   3.253   7.585   7.669 -2.5166 -1.4300  0.5306
   48MOL   H19018144   3.108   7.643   7.737  0.1450 -1.6903  0.1932
   48MOL   H19118145   3.247   7.593   0.051 -2.8564 -0.0436  1.3141
   48MOL   C19218146   3.724   0.109   7.477 -0.1810  1.2234 -0.6910
   48MOL   C19318147   3.693   0.043   7.343 -0.1652 -0.2674  0.1918
   48MOL   C19418148   3.637   7.685   7.357 -0.9101 -0.2088  0.5836
   48MOL   C19518149   3.579   7.633   7.223  0.3507  0.6227 -0.0992
   48MOL   C19618150   3.545   7.482   7.223  0.7230 -0.1748 -0.4220
   48MOL   C19718151   3.423   7.436   7.304 -0.8952  0.3292 -0.0660
   48MOL   O19818152   3.812   0.023   7.271 -1.0603 -0.9029  0.3149
   48MOL   H19918153   3.805   0.182   7.472  0.7620  0.6843  4.1887
   48MOL   H20018154   3.775   0.038   7.543 -0.1211 -1.9582 -4.0061
   48MOL   H20118155   3.618   0.113   7.305 -0.7868 -0.0649  1.7533
   48MOL   H20218156   3.719   7.622   7.391 -0.4072 -0.5162 -1.1504
   48MOL   H20318157   3.566   7.677   7.440 -0.8871  3.5590  1.0316
   48MOL   H20418158   3.649   7.654   7.143  0.2465  0.1426 -0.3153
   48MOL   H20518159   3.487   7.691   7.209  0.2364  0.4757  0.0374
   48MOL   H20618160   3.524   7.454   7.120  0.1967  2.9664 -1.2227
   48MOL   H20718161   3.636   7.429   7.251  0.3728 -0.3174  0.4462
   48MOL   H20818162   3.346   7.512   7.290  0.0882  1.5548  0.9715
   48MOL   H20918163   3.390   7.342   7.261 -0.2071  1.0576 -2.2197
   48MOL   H21018164   3.447   7.424   7.410 -0.3275  0.4580 -0.1765
   48MOL   C21118165   3.843   0.137   7.187 -0.4242 -0.6269  0.6556
   48MOL   C21218166   3.983   0.104   7.134  0.1318  0.2029  0.0272
   48MOL   C21318167   3.999   7.756   7.058  0.3944  0.2727  0.3728
   48MOL   C21418168   4.143   7.747   6.999 -0.2657  0.5137  0.0351
   48MOL   C21518169   4.161   7.622   6.912 -0.0747  0.1536  0.4682
   48MOL   C21618170   4.183   7.489   6.993  1.0690 -0.3741 -0.3152
   48MOL   O21718171   4.066   0.117   7.258 -0.0900  0.0212 -0.1334
   48MOL   H21818172   3.837   0.232   7.239  1.0816 -0.0760 -0.1589
   48MOL   H21918173   3.772   0.150   7.105  1.0814  1.4129 -0.3540
   48MOL   H22018174   4.009   0.186   7.067  1.2768  0.6120  0.9617
   48MOL   H22118175   3.969   7.674   7.123 -1.5328  0.2483 -0.4822
   48MOL   H22218176   3.937   7.742   6.968  1.0346 -1.0230  0.1263
   48MOL   H22318177   4.163   0.047   6.935  2.1719 -1.7650 -2.4586
   48MOL   H22418178   4.223   7.749   7.073  0.1146  0.8466 -0.3846
   48MOL   H22518179   4.076   7.609   6.844  0.6006  2.9471 -0.9823
   48MOL   H22618180   4.248   7.633   6.849  0.4482 -2.3226  0.6914
   48MOL   H22718181   4.092   7.434   7.016  1.4166 -0.8081  0.0179
   48MOL   H22818182   4.236   7.506   7.086 -1.1614 -0.9212  1.0957
   48MOL   H22918183   4.253   7.427   6.936  1.2875 -0.9145  0.5393
   48MOL   C23018184   4.139   0.246   7.264  0.5055  0.6135  0.5337
   48MOL   C23118185   4.197   0.277   7.392  0.1422  0.1597 -0.5456
   48MOL   C23218186   4.251   0.421   7.407 -0.0491  0.1806 -0.5496
   48MOL   C23318187   4.333   0.447   7.531  0.1556 -0.9199 -0.2526
   48MOL   C23418188   4.356   0.596   7.552  0.4286 -0.5822 -0.2330
   48MOL   C23518189   4.458   0.653   7.456  0.4152 -0.8012 -0.2488
   48MOL   O23618190   4.285   0.162   7.418 -0.2419  0.0492 -0.5501
   48MOL   H23718191   4.219   0.239   7.189 -1.2904  2.2101 -1.5966
   48MOL   H23818192   4.079   0.331   7.232 -1.7445 -0.6840  1.1916
   48MOL   H23918193   4.113   0.267   7.461  0.0604 -1.4703 -0.8539
   48MOL   H24018194   4.167   0.491   7.406 -0.5641 -0.3959  1.0341
   48MOL   H24118195   4.320   0.461   7.333  2.6239 -0.7338  1.3692
   48MOL   H24218196   4.425   0.390   7.518  1.1922  0.9434 -1.1802
   48MOL   H24318197   4.282   0.413   7.621  1.2383 -0.6925  0.4440
   48MOL   H24418198   4.263   0.647   7.528  1.8879  1.1527 -2.4415
   48MOL   H24518199   4.385   0.612   7.656 -0.3762 -1.3906  0.1249
   48MOL   H24618200   4.466   0.619   7.352  0.6273 -0.3631 -0.3754
   48MOL   H24718201   4.557   0.618   7.485  0.2346 -0.7232  0.4496
   48MOL   H24818202   4.456   0.762   7.451  1.1065 -0.7527  0.3942
   48MOL   C24918203   4.230   0.046   7.484 -0.0923  0.0961  0.4951
   48MOL   C25018204   4.245   0.063   7.642  0.0503  0.8595  0.4291
   48MOL   C25118205   4.392   0.071   7.692 -0.1131  0.4539 -0.2728
   48MOL   C25218206   4.410   0.096   0.053  0.2395 -0.5874  0.3257
   48MOL   C25318207   4.375   0.237   0.093 -0.3166  0.2754  0.2413
   48MOL   C25418208   4.416   0.265   0.239 -0.0818 -0.1200  0.1959
   48MOL   O25518209   4.182   7.734   7.712 -0.3266  0.0255  0.3567
   48MOL   H25618210   4.124   0.026   7.468 -0.4383  2.5643 -0.5853
   48MOL   H25718211   4.296   7.750   7.454 -0.1131  0.1306  0.3535
   48MOL   H25818212   4.196   0.154   7.675 -2.4080 -0.7276  1.2597
   48MOL   H25918213   4.440   7.761   7.675 -0.2462  0.1515  0.9726
   48MOL   H26018214   4.455   0.139   7.635  1.8118  0.0531  1.3365
   48MOL   H26118215   4.352   0.034   0.121 -0.2760 -1.2905 -0.7280
   48MOL   H26218216   4.514   0.075   0.077  0.1884 -2.0180 -0.5982
   48MOL   H26318217   4.431   0.314   0.039 -1.3278  1.5022  0.9207
   48MOL   H26418218   4.268   0.251   0.076 -0.4821 -2.6870 -1.4166
   48MOL   H26518219   4.521   0.237   0.250  0.4659  0.7867 -2.3487
   48MOL   H26618220   4.362   0.191   0.299 -3.3864  1.0223 -1.2827
   48MOL   H26718221   4.390   0.367   0.268 -1.4261  0.1412 -1.8462
   48MOL   C26818222   4.039   7.733   7.712 -0.3400  0.5282 -0.1729
   48MOL   C26918223   3.997   7.601   0.008  0.2169 -0.1106  0.1967
   48MOL   C27018224   3.856   7.560   7.750 -0.6754  0.2298 -0.8380
   48MOL   C27118225   3.841   7.411   7.774 -1.1569  0.1127 -0.0381
   48MOL   C27218226   3.726   7.350   7.696  0.1337  0.4602 -0.1671
   48MOL   C27318227   3.585   7.409   7.711 -0.5046  0.1141 -0.2364
   48MOL   O27418228   4.002   7.632   0.149 -0.0437 -0.1644  0.0317
   48MOL   H27518229   3.996   7.723   7.613 -0.8133  0.5670  0.0286
   48MOL   H27618230   4.013   0.038   7.766  0.3110 -0.4264  1.8134
   48MOL   H27718231   4.077   7.535   7.762  0.0109 -0.7640  1.0303
   48MOL   H27818232   3.779   7.621   0.011 -0.2408  1.8410 -2.1712
   48MOL   H27918233   3.840   7.582   7.644 -0.1765 -0.3500 -1.0387
   48MOL   H28018234   3.932   7.360   7.744 -1.6004 -0.2799 -0.7182
   48MOL   H28118235   3.835   7.388   0.095  2.5944 -0.3213  0.1624
   48MOL   H28218236   3.748   7.351   7.589 -1.9345 -2.3276 -0.6702
   48MOL   H28318237   3.731   7.244   7.720  0.4550  0.6174  0.4876
   48MOL   H28418238   3.508   7.332   7.705 -2.0735  1.5965  0.5010
   48MOL   H28518239   3.575   7.462   0.020 -0.4828 -0.4351  0.0764
   48MOL   H28618240   3.562   7.489   7.641 -1.9052 -1.1739 -1.2777
   48MOL   C28718241   4.120   7.589   0.220  0.6315 -0.3209  1.1057
   48MOL   C28818242   4.143   7.671   0.347  0.1471 -0.4341  0.5963
   48MOL   C28918243   4.282   7.650   0.425 -0.0547  0.1167  1.0721
   48MOL   C29018244   4.299   7.725   0.560  0.8543 -0.4223 -0.7481
   48MOL   C29118245   4.441   7.718   0.619  0.2537  0.0923  0.2902
   48MOL   C29218246   4.466   0.050   0.709  0.6943 -0.0508  0.0286
   48MOL   O29318247   4.030   7.662   0.434  0.1304 -0.3834  0.1309
   48MOL   H29418248   4.210   7.610   0.162  0.8719  1.6617  2.1321
   48MOL   H29518249   4.113   7.482   0.236 -1.1802 -0.1241  1.6608
   48MOL   H29618250   4.143   7.775   0.315 -1.5472 -1.1929 -2.0921
   48MOL   H29718251   4.287   7.542   0.439 -1.1257 -0.3583 -1.8926
   48MOL   H29818252   4.366   7.673   0.360 -0.3543 -3.8577 -0.8629
   48MOL   H29918253   4.260   0.041   0.549 -0.3341 -0.5844  1.6559
   48MOL   H30018254   4.227   7.676   0.625  3.3937 -0.6917  1.9664
   48MOL   H30118255   4.514   7.736   0.539  0.6055 -1.2372  0.2964
   48MOL   H30218256   4.471   7.621   0.660  2.4712  0.3357 -0.6317
   48MOL   H30318257   4.570   0.079   0.692  0.5858  0.5725  0.4221
   48MOL   H30418258   4.406   0.134   0.674  1.2356 -0.4995 -2.0913
   48MOL   H30518259   4.432   0.024   0.809 -0.8779  1.2676 -0.1459
   48MOL   C30618260   3.992   7.530   0.466  0.7669  0.2144 -0.3721
   48MOL   C30718261   3.915   7.535   0.602  0.4785  0.0400  0.8381
   48MOL   C30818262   3.990   7.598   0.718 -0.6197 -0.0463  1.6754
   48MOL   C30918263   3.920   7.612   0.851  0.3058 -0.6424  0.4843
   48MOL   C31018264   4.010   7.689   0.949  0.1888  0.0586  1.1294
   48MOL   C31118265   4.136   7.624   1.012 -0.3140 -0.5799 -0.6596
   48MOL   O31218266   3.885   7.404   0.644 -0.0311 -0.2696  0.0136
   48MOL   H31318267   3.920   7.495   0.392 -1.9815  1.1671  1.7554
   48MOL   H31418268   4.082   7.475   0.490 -0.2314 -0.5714  1.7315
   48MOL   H31518269   3.822   7.590   0.590  0.1194 -0.7553 -0.1265
   48MOL   H31618270   4.013   7.700   0.685  0.6205 -0.0715  2.4418
   48MOL   H31718271   4.079   7.536   0.721 -0.1770  0.5204  0.6534
   48MOL   H31818272   3.828   7.663   0.824 -0.3293 -1.3060  1.3888
   48MOL   H31918273   3.888   7.518   0.896 -1.3678  0.2844  1.2605
   48MOL   H32018274   3.945   7.731   1.025  1.3619  1.7454  1.2212
   48MOL   H32118275   4.030   7.785   0.901 -1.1845 -0.6539 -0.9597
   48MOL   H32218276   4.120   7.563   1.100  1.9628  0.5285  0.5841
   48MOL   H32318277   4.195   7.566   0.941  1.3136  1.0745 -0.7160
   48MOL   H32418278   4.196   7.709   1.046 -3.6148  0.4788  2.8502
   48MOL   C32518279   3.759   7.349   0.620 -0.0970  0.6525 -0.9289
   48MOL   C32618280   3.734   7.219   0.695  0.9298 -0.2411  0.2831
   48MOL   C32718281   3.756   7.224   0.845 -0.5190 -0.1720  0.0830
   48MOL   C32818282   3.695   7.109   0.922 -0.0753 -0.9398  0.1861
   48MOL   C32918283   3.679   7.147   1.067  0.0850  0.0972 -0.1519
   48MOL   C33018284   3.634   7.032   1.153 -0.6114 -0.2112 -0.5674
   48MOL   O33118285   3.817   7.114   0.647  0.1585 -0.1407  0.0266
   48MOL   H33218286   3.736   7.351   0.514  0.6298  0.7659 -1.0880
   48MOL   H33318287   3.683   7.424   0.644 -0.0592  0.3130  0.2902
   48MOL   H33418288   3.630   7.194   0.671  0.8051 -0.0991  0.6828
   48MOL   H33518289   3.865   7.219   0.847 -0.5673 -2.2085 -1.5690
   48MOL   H33618290   3.711   7.317   0.881 -1.2916 -0.6906  0.4827
   48MOL   H33718291   3.593   7.086   0.891 -1.6060  3.7802  1.2668
   48MOL   H33818292   3.757   7.021   0.903  0.0416 -1.3192  2.2013
   48MOL   H33918293   3.775   7.190   1.096  0.2469  1.8910 -3.1703
   48MOL   H34018294   3.609   7.229   1.083 -0.2564 -0.2519  0.1597
   48MOL   H34118295   3.542   6.993   1.109 -0.0547  0.9204 -2.7887
   48MOL   H34218296   3.703   6.949   1.154 -0.1738  0.0790 -3.2504
   48MOL   H34318297   3.618   7.066   1.255 -1.5203  1.1108 -1.1272
   48MOL   C34418298   3.766   7.049   0.531 -0.0860 -0.3830  0.8674
   48MOL   C34518299   3.878   6.960   0.475  0.0585 -0.4983 -0.0334
   48MOL   C34618300   3.833   6.844   0.392 -0.2965 -0.2745  0.1033
   48MOL   C34718301   3.948   6.755   0.344 -0.5086  1.2751 -0.2900
   48MOL   C34818302   3.892   6.619   0.292 -0.3177  0.3448 -0.2152
   48MOL   C34918303   4.003   6.557   0.211 -0.3207  0.5186  0.3274
   48MOL   O35018304   3.970   7.030   0.380 -0.5954  0.8083 -0.3804
   48MOL   H35118305   3.740   7.110   0.444  3.9806  0.1201 -0.0860
   48MOL   H35218306   3.689   6.979   0.566 -0.6127 -0.9310 -1.3078
   48MOL   H35318307   3.940   6.931   0.560  1.0720 -0.4667 -0.7495
   48MOL   H35418308   3.773   6.868   0.304  1.1913  0.8378 -0.6401
   48MOL   H35518309   3.759   6.791   0.452  0.2785 -2.4284 -1.0379
   48MOL   H35618310   4.008   6.735   0.433 -0.2167 -1.1499 -0.9930
   48MOL   H35718311   4.010   6.799   0.267 -1.8211 -1.4638 -3.0243
   48MOL   H35818312   3.800   6.636   0.237 -0.2187  0.2572 -0.4105
   48MOL   H35918313   3.881   6.553   0.377  0.6532  2.9014  1.9805
   48MOL   H36018314   3.981   6.453   0.190  0.9172  0.4673 -0.7833
   48MOL   H36118315   4.092   6.549   0.274 -1.3086 -0.5207  1.6357
   48MOL   H36218316   4.034   6.617   0.125  0.6915 -0.7329 -0.1866
   48MOL   C36318317   4.028   7.151   0.438 -0.2294  0.6957  0.0053
   48MOL   C36418318   4.163   7.166   0.358  0.0448 -0.2225  0.0988
   48MOL   C36518319   4.265   7.043   0.362  0.3051 -0.5320 -0.1093
   48MOL   C36618320   4.403   7.083   0.322  0.0792  0.1034 -0.0794
   48MOL   C36718321   4.501   6.964   0.328  0.8077 -0.6907 -0.2812
   48MOL   C36818322   4.645   7.002   0.293  0.1663  0.6202  0.1748
   48MOL   O36918323   4.140   7.222   0.227  1.0759 -0.3552  0.3647
   48MOL   H37018324   4.059   7.153   0.542  0.2835 -0.6231 -0.1155
   48MOL   H37118325   3.964   7.238   0.431  1.9296  2.4275  1.2872
   48MOL   H37218326   4.211   7.245   0.416 -0.5589 -1.0574  1.7652
   48MOL   H37318327   4.272   7.006   0.465 -2.2231 -0.0128  0.2911
   48MOL   H37418328   4.231   6.964   0.295 -1.6221  0.5052 -0.3864
   48MOL   H37518329   4.406   7.139   0.228  0.0589  1.8498  0.9522
   48MOL   H37618330   4.444   7.155   0.392  0.2639  1.1923 -1.2806
   48MOL   H37718331   4.496   6.921   0.428  2.8085 -0.5159 -0.0903
   48MOL   H37818332   4.474   6.886   0.258 -1.2457 -1.4653  1.3196
   48MOL   H37918333   4.682   7.075   0.365  0.8702  0.1879  0.2573
   48MOL   H38018334   4.710   6.917   0.316 -0.0149 -0.0173 -1.5990
   48MOL   H38118335   4.645   7.048   0.194 -1.1018 -0.0658 -0.1513
   48MOL   H38218336   4.084   7.157   0.186 -1.8713  2.8399 -0.9404
   49MOL     C118337   6.452   1.213   6.860  0.2447  0.1902  0.0854
   49MOL     C218338   6.481   1.128   6.743 -0.3093 -0.0026 -0.3528
   49MOL     C318339   6.458   0.977   6.761 -0.3552  0.0924  0.6338
   49MOL     C418340   6.565   0.912   6.860  0.1346  0.8867 -0.3172
   49MOL     C518341   6.551   0.762   6.851 -0.0805  0.6080  0.4862
   49MOL     C618342   6.672   0.686   6.914 -0.1529  0.0865  1.0028
   49MOL     O718343   6.399   1.167   6.633 -0.6611 -0.0039  0.2286
   49MOL     H818344   6.344   1.216   6.866  0.2950  4.4316  0.3797
   49MOL     H918345   6.475   1.318   6.841 -1.4945  0.9264  1.8938
   49MOL    H1018346   6.585   1.134   6.709 -0.7257  2.6630 -1.1932
   49MOL    H1118347   6.359   0.965   6.807 -0.0033 -1.6728  0.9591
   49MOL    H1218348   6.464   0.925   6.666  0.2959  0.4955  0.4557
   49MOL    H1318349   6.661   0.948   6.825  0.2690  1.8171  0.9824
   49MOL    H1418350   6.544   0.941   6.963 -2.4547 -0.4163 -0.4187
   49MOL    H1518351   6.450   0.735   6.882  0.3135 -0.1953  1.1188
   49MOL    H1618352   6.550   0.738   6.745  2.0072  1.0922  0.3199
   49MOL    H1718353   6.642   0.582   6.930  0.4991 -0.6836 -2.4376
   49MOL    H1818354   6.770   0.690   6.867  0.3345 -0.7319  1.9295
   49MOL    H1918355   6.693   0.715   7.017  0.0233 -1.0259  1.2908
   49MOL    H2018356   6.494   1.180   6.955  2.5255 -2.1802 -1.6482
   49MOL    C2118357   6.459   1.203   6.507 -0.3127  0.5549 -0.6233
   49MOL    C2218358   6.349   1.258   6.413 -0.3308 -0.3986 -1.0742
   49MOL    C2318359   6.419   1.339   6.293  0.7049 -0.2879  0.3575
   49MOL    C2418360   6.324   1.415   6.192 -0.3740  1.1025 -0.1318
   49MOL    C2518361   6.413   1.486   6.082 -0.4087 -0.2669  0.0233
   49MOL    C2618362   6.323   1.565   5.978 -0.2372 -0.1603  0.0964
   49MOL    O2718363   6.267   1.164   6.347 -1.0803  0.3050  0.1225
   49MOL    H2818364   6.531   1.283   6.523 -1.0558  1.0551  0.2084
   49MOL    H2918365   6.518   1.117   6.473  1.1961  1.5244 -0.5143
   49MOL    H3018366   6.286   1.335   6.456  1.4209  0.0270  0.8107
   49MOL    H3118367   6.473   1.266   6.232  1.2366  0.0257  0.4536
   49MOL    H3218368   6.504   1.394   6.334  0.0453  1.2725 -0.3329
   49MOL    H3318369   6.267   1.489   6.248 -0.1978  1.0684  0.0939
   49MOL    H3418370   6.248   1.351   6.147  1.7210 -1.1111 -0.6288
   49MOL    H3518371   6.459   1.560   6.147 -0.1734 -0.2888 -0.1192
   49MOL    H3618372   6.486   1.421   6.034 -0.7352 -1.1420  0.6867
   49MOL    H3718373   6.271   1.639   6.040 -0.6141 -2.6606  2.8869
   49MOL    H3818374   6.252   1.508   5.919 -0.9342  0.8910 -0.0883
   49MOL    H3918375   6.385   1.618   5.905 -1.7033  0.6699 -0.5728
   49MOL    C4018376   6.185   1.082   6.431 -0.4881 -0.8034 -0.0411
   49MOL    C4118377   6.100   0.979   6.348  0.3897  0.5090 -0.1417
   49MOL    C4218378   5.983   1.035   6.262  0.3426  0.6692  0.3226
   49MOL    C4318379   6.048   1.131   6.157  0.7483 -0.0673 -0.4247
   49MOL    C4418380   5.969   1.186   6.039 -0.0278 -0.2524 -0.7804
   49MOL    C4518381   6.043   1.293   5.948 -1.0567 -0.2276 -0.0328
   49MOL    O4618382   6.046   0.884   6.437 -0.5943  0.0897 -0.7096
   49MOL    H4718383   6.121   1.137   6.500 -1.3003  1.5881 -2.6409
   49MOL    H4818384   6.253   1.022   6.492  1.3558  0.3614 -0.9066
   49MOL    H4918385   6.166   0.934   6.275  0.8765 -1.1694  1.2791
   49MOL    H5018386   5.925   0.960   6.209 -0.5451  1.0879  0.6907
   49MOL    H5118387   5.918   1.096   6.324 -0.4849 -1.6551  1.7855
   49MOL    H5218388   6.134   1.079   6.114  0.9669 -0.6425  0.6761
   49MOL    H5318389   6.092   1.219   6.204 -2.5057  0.7725  1.1636
   49MOL    H5418390   5.941   1.095   5.985 -1.2233 -1.2845  1.4919
   49MOL    H5518391   5.880   1.238   6.073  1.2690  1.5772 -0.1258
   49MOL    H5618392   5.964   1.333   5.885  0.3685  0.7445 -1.2223
   49MOL    H5718393   6.101   1.357   6.015 -0.2873 -1.6609  0.7128
   49MOL    H5818394   6.105   1.248   5.870 -2.1575  0.2746 -1.2154
   49MOL    C5918395   6.013   0.758   6.392  0.4723 -0.1887 -0.6195
   49MOL    C6018396   5.943   0.678   6.502  0.2365 -0.5355 -0.3526
   49MOL    C6118397   6.045   0.668   6.618  0.1946 -0.1380  1.1546
   49MOL    C6218398   6.003   0.609   6.752  0.0554  0.2643 -0.3259
   49MOL    C6318399   6.114   0.625   6.854  0.3246  0.6275 -0.4197
   49MOL    C6418400   6.221   0.508   6.848  0.0235  0.0125  0.8140
   49MOL    O6518401   5.815   0.739   6.534 -0.5288  0.0446 -0.6805
   49MOL    H6618402   6.103   0.706   6.357  0.7290 -1.1514  1.3760
   49MOL    H6718403   5.949   0.762   6.304 -0.2312  0.0065 -0.1013
   49MOL    H6818404   5.927   0.577   6.466  0.5397 -0.0216 -2.0125
   49MOL    H6918405   6.089   0.766   6.638 -0.2284  0.3556 -0.2672
   49MOL    H7018406   6.130   0.612   6.578  1.3164  1.3232  1.4533
   49MOL    H7118407   5.972   0.507   6.734  2.7150 -0.6549  0.1189
   49MOL    H7218408   5.914   0.652   6.800 -0.7617 -2.1242  0.3558
   49MOL    H7318409   6.069   0.623   6.953 -0.8740  0.7890 -0.9505
   49MOL    H7418410   6.177   0.715   6.852  0.4574  0.5770  0.9406
   49MOL    H7518411   6.294   0.517   6.767 -0.5795  1.5000  0.4287
   49MOL    H7618412   6.281   0.493   6.938  0.2016 -3.7416  0.1707
   49MOL    H7718413   6.172   0.411   6.836 -0.0408  0.0573  0.7184
   49MOL    C7818414   5.714   0.729   6.435  0.2933 -0.5252 -0.5479
   49MOL    C7918415   5.579   0.785   6.485 -0.4304 -0.4081 -0.0863
   49MOL    C8018416   5.596   0.933   6.514 -0.7682 -0.4808 -0.9340
   49MOL    C8118417   5.467   1.014   6.545 -0.5551  0.5552  0.2313
   49MOL    C8218418   5.487   1.148   6.609  0.2602  0.2090  0.7788
   49MOL    C8318419   5.350   1.213   6.641 -0.1951 -0.1531  0.0157
   49MOL    O8418420   5.510   0.707   6.586 -0.0907 -0.5115 -0.0896
   49MOL    H8518421   5.693   0.626   6.405  0.0705 -0.2569 -1.3236
   49MOL    H8618422   5.733   0.782   6.342 -0.3760  0.8883  0.1089
   49MOL    H8718423   5.510   0.774   6.401 -0.2707  2.1320 -0.5698
   49MOL    H8818424   5.678   0.935   6.586  0.6015 -0.0791 -2.4517
   49MOL    H8918425   5.647   0.989   6.435 -0.8498  0.9524  0.0145
   49MOL    H9018426   5.403   0.953   6.609 -1.0601 -0.4463 -1.1910
   49MOL    H9118427   5.404   1.017   6.456 -0.7480 -2.0235  0.2220
   49MOL    H9218428   5.535   1.137   6.706  0.3965 -0.4746  0.6405
   49MOL    H9318429   5.542   1.210   6.538 -0.7958  1.7801  1.3222
   49MOL    H9418430   5.296   1.223   6.547 -1.5193  0.4193  0.8231
   49MOL    H9518431   5.363   1.315   6.675 -2.7203  0.2386 -0.1198
   49MOL    H9618432   5.285   1.151   6.701  0.2983 -0.2133  0.4951
   49MOL    C9718433   5.560   0.705   6.717 -0.4098 -0.4869  0.7201
   49MOL    C9818434   5.473   0.617   6.815  0.2251  0.0846  1.0968
   49MOL    C9918435   5.549   0.559   6.934 -0.3048 -0.3072 -0.0420
   49MOL   C10018436   5.459   0.473   7.020 -0.4437 -0.1008 -0.2614
   49MOL   C10118437   5.531   0.376   7.121 -0.7756  0.3371 -0.0064
   49MOL   C10218438   5.597   0.442   7.243  0.2738  0.2745  0.4142
   49MOL   O10318439   5.379   0.698   6.880  0.2744 -0.4276  0.0395
   49MOL   H10418440   5.578   0.805   6.756  0.9023 -0.7720  0.8453
   49MOL   H10518441   5.658   0.658   6.707 -1.0209 -2.9807  5.0308
   49MOL   H10618442   5.424   0.536   6.760 -0.7802  2.0606 -1.0034
   49MOL   H10718443   5.593   0.634   6.999 -0.7381  0.5331 -0.7164
   49MOL   H10818444   5.631   0.506   6.887 -0.1150  0.2623 -0.3525
   49MOL   H10918445   5.380   0.419   6.968  0.6141 -2.3134  0.3683
   49MOL   H11018446   5.402   0.540   7.084 -0.6837  1.0157 -1.6141
   49MOL   H11118447   5.597   0.311   7.063 -0.9346  0.1829 -0.0127
   49MOL   H11218448   5.457   0.304   7.155  0.1932  0.5759  2.6815
   49MOL   H11318449   5.631   0.360   7.305  2.6772  0.8695 -0.0515
   49MOL   H11418450   5.684   0.507   7.227  0.3806  0.1397  0.4442
   49MOL   H11518451   5.518   0.489   7.301 -0.7803 -0.9379 -0.0352
   49MOL   C11618452   5.302   0.784   6.802  0.1979 -0.5019  0.5617
   49MOL   C11718453   5.171   0.825   6.881  0.6834  0.1302  0.2496
   49MOL   C11818454   5.073   0.874   6.774 -0.4487 -0.3941  0.5464
   49MOL   C11918455   4.930   0.906   6.833  0.0541 -0.0644 -0.2436
   49MOL   C12018456   4.862   0.779   6.880 -0.0406  0.1205 -0.3948
   49MOL   C12118457   4.711   0.790   6.887 -0.3398 -0.3320  0.0887
   49MOL   O12218458   5.195   0.930   6.972 -0.4780 -0.5362  0.1454
   49MOL   H12318459   5.358   0.872   6.768  0.9919 -1.2009  0.0303
   49MOL   H12418460   5.266   0.732   6.714 -2.1634  1.6242  0.2009
   49MOL   H12518461   5.135   0.736   6.932  1.4237 -1.9343 -2.7026
   49MOL   H12618462   5.124   0.956   6.724 -0.5775 -0.6354  0.0057
   49MOL   H12718463   5.061   0.793   6.702  1.4798 -0.7709  0.6369
   49MOL   H12818464   4.871   0.964   6.762 -0.1103  0.1857  0.0969
   49MOL   H12918465   4.947   0.977   6.914 -1.4750 -0.8718  0.8137
   49MOL   H13018466   4.882   0.696   6.812  1.2813  0.4545 -0.4241
   49MOL   H13118467   4.906   0.735   6.970 -1.8752 -0.7789  0.0893
   49MOL   H13218468   4.653   0.698   6.882 -0.7023 -0.2452  2.1363
   49MOL   H13318469   4.694   0.845   6.979  0.0488 -0.0437 -0.0101
   49MOL   H13418470   4.672   0.857   6.810 -0.4936  1.8245  2.0057
   49MOL   C13518471   5.264   0.891   7.093  0.0560 -0.1757  0.1197
   49MOL   C13618472   5.251   1.002   7.202 -0.0535 -0.2572  0.4273
   49MOL   C13718473   5.275   1.147   7.162 -0.1670  0.9639  0.6405
   49MOL   C13818474   5.300   1.248   7.280 -0.9550  1.0668 -0.2239
   49MOL   C13918475   5.351   1.376   7.225  0.0413 -0.3975 -0.5192
   49MOL   C14018476   5.310   1.489   7.319 -0.1152 -0.7889  0.0274
   49MOL   O14118477   5.351   0.978   7.300 -0.6438 -0.1525  0.1440
   49MOL   H14218478   5.209   0.804   7.129 -1.6638 -0.6072 -3.3408
   49MOL   H14318479   5.372   0.880   7.085  0.3513  0.2524  3.0519
   49MOL   H14418480   5.151   0.999   7.244  0.6870 -0.0240  2.2846
   49MOL   H14518481   5.360   1.146   7.094 -0.0720 -1.3976  0.7600
   49MOL   H14618482   5.193   1.181   7.098 -0.2139 -3.3252 -1.7129
   49MOL   H14718483   5.359   1.200   7.358  0.2367  1.4623 -0.8748
   49MOL   H14818484   5.207   1.267   7.334 -1.2505  2.0531 -1.0699
   49MOL   H14918485   5.306   1.400   7.129  0.8840 -1.9968 -1.3225
   49MOL   H15018486   5.455   1.370   7.196 -0.0295  1.2457 -1.1262
   49MOL   H15118487   5.336   1.575   7.257 -0.1621 -1.2632 -0.6545
   49MOL   H15218488   5.203   1.494   7.340  0.0592  0.6685  0.6353
   49MOL   H15318489   5.356   1.493   7.418  1.9333 -1.2300 -0.8859
   49MOL   C15418490   5.342   0.862   7.379  1.0842 -0.2578 -0.2641
   49MOL   C15518491   5.307   0.901   7.523  0.5369  0.0046  0.5901
   49MOL   C15618492   5.399   1.013   7.570  0.2251  0.0308 -0.3193
   49MOL   C15718493   5.392   1.038   7.720  0.0401  1.0020  0.7308
   49MOL   C15818494   5.483   1.155   7.756 -0.5844 -0.2920 -0.0496
   49MOL   C15918495   5.501   1.163   0.123 -0.3208 -0.2429 -0.3157
   49MOL   O16018496   5.174   0.949   7.534  0.3724 -0.1890  0.0858
   49MOL   H16118497   5.440   0.814   7.376  1.9809  1.4354  0.9319
   49MOL   H16218498   5.267   0.795   7.337 -1.4345  0.9120  2.2029
   49MOL   H16318499   5.327   0.810   7.580  1.2036 -0.6631 -0.6896
   49MOL   H16418500   5.358   1.108   7.536  0.8687  1.0494  1.6785
   49MOL   H16518501   5.503   0.999   7.540  0.0333 -0.3525 -0.8087
   49MOL   H16618502   5.427   0.947   7.769 -1.7759  0.4241  0.9794
   49MOL   H16718503   5.287   1.053   7.743 -0.2667  2.4085 -1.4076
   49MOL   H16818504   5.579   1.155   7.704 -1.6098 -0.5608 -1.9560
   49MOL   H16918505   5.437   1.251   7.732  1.5111  0.3068 -1.8421
   49MOL   H17018506   5.520   1.063   0.162 -0.5176  0.8052  2.5898
   49MOL   H17118507   5.424   1.210   0.183  0.6090 -2.5870  2.8591
   49MOL   H17218508   5.592   1.221   0.139  0.1837 -0.4187 -2.3444
   49MOL   C17318509   5.070   0.864   7.503  0.0240  0.0076  0.5805
   49MOL   C17418510   4.936   0.941   7.493  0.0092 -0.1338  0.0740
   49MOL   C17518511   4.852   0.896   7.381 -0.3741  0.0456  0.2966
   49MOL   C17618512   4.728   0.987   7.369 -0.1781  0.3894  0.6152
   49MOL   C17718513   4.627   0.922   7.267 -0.3850 -0.5266  0.1782
   49MOL   C17818514   4.488   0.984   7.279 -0.4840 -1.3222  0.5642
   49MOL   O17918515   4.851   0.909   7.603 -0.4230  0.2723 -0.4785
   49MOL   H18018516   5.063   0.782   7.575 -1.4337  0.5462  1.0795
   49MOL   H18118517   5.079   0.814   7.407  1.5124  0.6330  0.3828
   49MOL   H18218518   4.955   1.045   7.464  0.5740 -0.2134  0.1408
   49MOL   H18318519   4.903   0.912   7.286  0.2404  1.3842  0.8434
   49MOL   H18418520   4.828   0.789   7.383  1.7838 -0.5318 -1.6623
   49MOL   H18518521   4.669   0.987   7.461 -0.1285  2.2027  0.6565
   49MOL   H18618522   4.749   1.091   7.348 -0.7010  1.0640  3.2026
   49MOL   H18718523   4.657   0.935   7.164 -0.9414  0.4486  0.1373
   49MOL   H18818524   4.620   0.814   7.286 -1.9083 -0.3593  0.6817
   49MOL   H18918525   4.424   0.949   7.198 -0.0162  0.0435 -0.4202
   49MOL   H19018526   4.505   1.089   7.258  0.6636 -1.1078  2.4007
   49MOL   H19118527   4.439   0.975   7.376  1.2536 -2.6505  1.3708
   49MOL   C19218528   4.863   0.992   7.714 -0.5813  0.4556 -0.0209
   49MOL   C19318529   4.765   0.943   0.037  0.5930 -0.3591 -0.5332
   49MOL   C19418530   4.746   1.047   0.149  0.3281  0.0858 -0.9097
   49MOL   C19518531   4.641   1.007   0.259  0.3445 -0.0337 -0.0721
   49MOL   C19618532   4.614   1.119   0.363 -0.0501  0.5670 -0.0375
   49MOL   C19718533   4.561   1.066   0.495 -0.1011 -0.0101  0.1595
   49MOL   O19818534   4.811   0.818   0.092 -0.3686 -0.0545 -0.0833
   49MOL   H19918535   4.963   0.995   7.757 -0.9730  2.3715  0.8123
   49MOL   H20018536   4.852   1.094   7.679  2.3029 -0.0147 -2.5421
   49MOL   H20118537   4.669   0.920   7.778  1.5601 -2.1520 -1.7825
   49MOL   H20218538   4.839   1.072   0.200  0.5580  0.6648 -1.6079
   49MOL   H20318539   4.715   1.143   0.108  1.6019  0.6817 -0.4953
   49MOL   H20418540   4.681   0.916   0.303  1.0667  0.6875  0.7571
   49MOL   H20518541   4.545   0.980   0.213  1.1120 -2.0663 -0.5531
   49MOL   H20618542   4.711   1.163   0.385  0.9578 -0.9781 -1.2563
   49MOL   H20718543   4.546   1.192   0.319 -0.2437  0.8231  0.6707
   49MOL   H20818544   4.475   1.000   0.485  2.4461 -3.1918 -1.7035
   49MOL   H20918545   4.629   0.993   0.539  1.2363  0.8328 -0.4674
   49MOL   H21018546   4.534   1.138   0.573 -1.7692 -0.5926  0.1252
   49MOL   C21118547   4.756   0.700   0.031  0.6556 -0.1662  0.4753
   49MOL   C21218548   4.820   0.572   0.088  0.1232 -0.3660 -0.2332
   49MOL   C21318549   4.845   0.462   7.769 -0.0468  0.2451 -0.0926
   49MOL   C21418550   4.719   0.407   7.704  0.0172 -0.3239  0.2561
   49MOL   C21518551   4.742   0.303   7.592  0.5527 -0.4696  0.3684
   49MOL   C21618552   4.770   0.158   7.645  0.2148 -0.2681 -0.3033
   49MOL   O21718553   4.764   0.528   0.212  1.1496 -0.0927  0.4917
   49MOL   H21818554   4.772   0.712   7.709  0.6196  0.4654  0.5364
   49MOL   H21918555   4.647   0.694   0.039  0.4021 -0.1062 -2.3710
   49MOL   H22018556   4.924   0.593   0.113 -0.2456  0.3303  0.7666
   49MOL   H22118557   4.921   0.489   7.695  0.7376  2.1586  1.3671
   49MOL   H22218558   4.889   0.377   0.035  2.4204  0.9561 -0.9391
   49MOL   H22318559   4.658   0.361   7.783  1.0637  1.0697  1.9113
   49MOL   H22418560   4.660   0.484   7.655  3.2051 -0.5151 -4.1464
   49MOL   H22518561   4.652   0.302   7.531  0.0070  3.2511  1.0270
   49MOL   H22618562   4.822   0.340   7.529  0.1076 -0.8959 -0.4493
   49MOL   H22718563   4.872   0.140   7.680  0.0137  0.3821  0.6439
   49MOL   H22818564   4.735   0.084   7.573  0.1452 -0.3381 -0.1986
   49MOL   H22918565   4.701   0.131   7.725  1.9760 -1.6874  0.7862
   49MOL   C23018566   4.740   0.636   0.311 -0.2091 -0.4833  0.0594
   49MOL   C23118567   4.717   0.566   0.445  0.0824 -0.4999  0.2052
   49MOL   C23218568   4.624   0.647   0.541  0.0411 -0.3021 -0.2848
   49MOL   C23318569   4.560   0.565   0.648 -0.3055  0.1091  0.1900
   49MOL   C23418570   4.435   0.492   0.604  1.0061  0.0964 -0.1649
   49MOL   C23518571   4.387   0.413   0.724  0.2116 -0.0009  0.0457
   49MOL   O23618572   4.842   0.543   0.510 -0.0370 -0.1996 -0.2621
   49MOL   H23718573   4.817   0.713   0.319 -0.5749 -0.1844  0.8089
   49MOL   H23818574   4.654   0.697   0.284 -0.0629 -0.8961 -1.3691
   49MOL   H23918575   4.667   0.474   0.415  0.5334 -0.5596 -0.3653
   49MOL   H24018576   4.539   0.693   0.490  0.2031  1.2354  0.8071
   49MOL   H24118577   4.677   0.733   0.581 -1.7897  1.2742 -1.1887
   49MOL   H24218578   4.537   0.623   0.737  0.7175  1.1224 -0.1938
   49MOL   H24318579   4.636   0.498   0.687 -1.1142 -0.8352  0.1874
   49MOL   H24418580   4.363   0.567   0.571 -0.0144  0.1905  2.1596
   49MOL   H24518581   4.435   0.418   0.525 -1.4456  0.6558 -0.7391
   49MOL   H24618582   4.348   0.477   0.804 -0.7051 -0.9645  0.3803
   49MOL   H24718583   4.471   0.356   0.763  0.5031  0.5219  0.2016
   49MOL   H24818584   4.307   0.349   0.688  0.8421 -1.1065  0.6137
   49MOL   C24918585   4.917   0.437   0.455 -1.2295  0.7779  0.2429
   49MOL   C25018586   5.063   0.422   0.512 -0.1580 -0.1034  0.0695
   49MOL   C25118587   5.142   0.336   0.398 -0.2768 -0.1859  1.1257
   49MOL   C25218588   5.298   0.335   0.405 -0.1214  0.3451  0.5541
   49MOL   C25318589   5.363   0.223   0.317  0.5069 -0.3587  0.1046
   49MOL   C25418590   5.507   0.264   0.285  0.5730  0.0811 -0.0321
   49MOL   O25518591   5.063   0.343   0.634  0.5369 -0.7327 -0.2928
   49MOL   H25618592   4.862   0.344   0.469  0.3449 -0.0541  1.0726
   49MOL   H25718593   4.927   0.454   0.348  0.5301 -2.0500 -0.0869
   49MOL   H25818594   5.107   0.522   0.506  2.1377 -1.1100 -0.5494
   49MOL   H25918595   5.099   0.236   0.399 -0.5114 -0.0958  2.6583
   49MOL   H26018596   5.127   0.373   0.297  1.1292 -1.8633  0.2673
   49MOL   H26118597   5.332   0.434   0.375  1.2298  0.1962  1.5544
   49MOL   H26218598   5.336   0.318   0.506 -1.1648 -0.4421  0.8238
   49MOL   H26318599   5.359   0.141   0.389  1.0285  1.3925  2.1563
   49MOL   H26418600   5.303   0.204   0.228 -1.5515  2.4809  0.8251
   49MOL   H26518601   5.568   0.176   0.264 -0.5463 -0.3613 -1.5155
   49MOL   H26618602   5.559   0.320   0.363  2.0767 -0.5852 -0.5369
   49MOL   H26718603   5.506   0.324   0.194  1.3446 -0.2111 -0.2367
   49MOL   C26818604   5.059   0.426   0.752 -0.5319 -0.2938 -0.2251
   49MOL   C26918605   5.070   0.349   0.884 -0.1015 -0.2161  0.6379
   49MOL   C27018606   5.020   0.432   1.001 -0.4606  0.0036 -0.2646
   49MOL   C27118607   5.014   0.349   1.134  0.2663 -0.3949  0.3658
   49MOL   C27218608   4.999   0.425   1.270  0.0702  0.1888  0.3843
   49MOL   C27318609   4.882   0.522   1.282  0.2400 -0.0917  0.4423
   49MOL   O27418610   5.208   0.323   0.905  0.3847 -0.6152 -0.4265
   49MOL   H27518611   4.968   0.487   0.753 -0.5985 -0.4084  0.8498
   49MOL   H27618612   5.138   0.500   0.739 -1.6277  0.8622 -0.4057
   49MOL   H27718613   5.015   0.255   0.877 -1.6270  0.6369  0.9761
   49MOL   H27818614   5.095   0.507   1.025 -1.7564  1.3150 -0.2089
   49MOL   H27918615   4.921   0.475   0.983 -0.1329  0.9587  0.2132
   49MOL   H28018616   4.945   0.266   1.123  0.6162 -0.8970  1.9157
   49MOL   H28118617   5.113   0.305   1.145 -0.1403 -1.0165  1.5768
   49MOL   H28218618   4.984   0.342   1.339  0.6907  0.2650  0.6095
   49MOL   H28318619   5.091   0.475   1.300  0.8777 -0.5371 -0.8557
   49MOL   H28418620   4.787   0.476   1.253 -0.8985 -0.3025  4.2971
   49MOL   H28518621   4.881   0.565   1.382 -0.4105 -0.3656  0.5569
   49MOL   H28618622   4.894   0.607   1.214  1.9209 -0.0268  0.8078
   49MOL   C28718623   5.252   0.219   0.827 -0.2242  0.0548  0.3502
   49MOL   C28818624   5.379   0.169   0.895  0.4767  0.4131  0.4272
   49MOL   C28918625   5.496   0.153   0.794  0.6188 -0.0389 -0.0074
   49MOL   C29018626   5.623   0.125   0.872 -0.1672  0.0840 -0.2079
   49MOL   C29118627   5.758   0.153   0.792  0.5064  0.0377  0.1759
   49MOL   C29218628   5.770   0.052   0.675  0.4442 -0.3701 -0.0753
   49MOL   O29318629   5.349   0.039   0.950 -0.3234 -0.2927 -0.2973
   49MOL   H29418630   5.277   0.258   0.728 -1.0188 -2.6511 -0.9698
   49MOL   H29518631   5.179   0.139   0.812 -1.5486  1.0931  1.0872
   49MOL   H29618632   5.397   0.240   0.976  2.9732  1.5737 -1.0651
   49MOL   H29718633   5.482   0.068   0.729 -2.2583 -0.2889  0.8840
   49MOL   H29818634   5.513   0.241   0.732  0.2481  0.0552  0.0247
   49MOL   H29918635   5.617   0.190   0.959  1.9606 -1.5648  1.2070
   49MOL   H30018636   5.627   0.024   0.913 -0.6147  0.4334  0.7060
   49MOL   H30118637   5.849   0.165   0.850  0.1572  2.4800  0.2757
   49MOL   H30218638   5.754   0.256   0.757 -0.8039 -0.0260  0.1285
   49MOL   H30318639   5.698   0.070   0.596  0.5542 -0.2176 -0.1422
   49MOL   H30418640   5.870   0.058   0.632  0.3022 -1.6170 -0.6233
   49MOL   H30518641   5.749   7.739   0.717 -0.1964  0.3869  1.4167
   49MOL   C30618642   5.275   0.046   1.071 -0.7143 -0.1672  1.0839
   49MOL   C30718643   5.250   7.694   1.130 -0.0097  0.2463  0.9435
   49MOL   C30818644   5.375   7.603   1.127 -0.5547  0.1154  0.5000
   49MOL   C30918645   5.386   7.511   1.246  0.1469  0.0596 -0.2635
   49MOL   C31018646   5.283   7.391   1.227 -0.2202 -0.4053 -0.0640
   49MOL   C31118647   5.308   7.279   1.327 -0.7637  0.5085  0.1769
   49MOL   O31218648   5.143   7.631   1.061 -0.2272  0.2767 -0.3126
   49MOL   H31318649   5.332   0.105   1.142  2.0645  1.1875 -2.1589
   49MOL   H31418650   5.174   0.086   1.059 -0.0708  0.9992 -0.6141
   49MOL   H31518651   5.233   7.715   1.236  1.2114 -1.0916  1.4159
   49MOL   H31618652   5.464   7.666   1.121 -0.2361 -0.5849 -3.2138
   49MOL   H31718653   5.384   7.555   1.029  4.2568 -0.4888  1.1366
   49MOL   H31818654   5.488   7.475   1.259 -0.8760 -3.4185 -1.2695
   49MOL   H31918655   5.354   7.569   1.332  0.7935  0.0885 -0.0368
   49MOL   H32018656   5.289   7.354   1.125  1.4648  0.9652 -0.4820
   49MOL   H32118657   5.177   7.413   1.244  0.1334 -0.4294  2.3727
   49MOL   H32218658   5.320   7.307   1.432  0.5837  0.8547 -0.0532
   49MOL   H32318659   5.223   7.213   1.339  0.4621 -1.0758  0.2277
   49MOL   H32418660   5.392   7.215   1.302 -1.4659 -0.6945  0.8920
   49MOL   C32518661   5.019   7.645   1.108 -0.4661  0.2950 -0.8054
   49MOL   C32618662   4.922   7.557   1.036  0.2329  0.1911  0.0195
   49MOL   C32718663   4.939   7.410   1.077 -0.1265  0.6453  1.0847
   49MOL   C32818664   4.841   7.307   1.001 -0.2166 -0.6376  0.5282
   49MOL   C32918665   4.873   7.165   1.039 -0.0179  0.0597  0.5505
   49MOL   C33018666   4.838   7.127   1.184  0.1214  0.2404 -0.1541
   49MOL   O33118667   4.948   7.563   0.899 -0.0249  0.8644 -0.3032
   49MOL   H33218668   4.992   7.750   1.108 -1.1476  0.2054  2.8955
   49MOL   H33318669   5.027   7.618   1.213  0.7216 -0.3338 -1.0435
   49MOL   H33418670   4.819   7.590   1.054  0.0150 -0.8558  0.7454
   49MOL   H33518671   5.045   7.386   1.061 -0.0035 -0.1781  2.9536
   49MOL   H33618672   4.909   7.403   1.182 -1.7279  1.1243  0.6702
   49MOL   H33718673   4.738   7.336   1.018  0.5383  2.7806 -0.2275
   49MOL   H33818674   4.859   7.320   0.894  2.3830  4.0587  1.3787
   49MOL   H33918675   4.808   7.098   0.984  1.5051  0.0004 -1.2367
   49MOL   H34018676   4.968   7.138   0.993 -1.0884 -0.1096 -1.6389
   49MOL   H34118677   4.731   7.146   1.188  0.0471 -0.4416  2.0239
   49MOL   H34218678   4.846   7.020   1.204 -2.1669  0.0470 -0.1717
   49MOL   H34318679   4.908   7.183   1.247  0.9560 -0.8189 -0.1167
   49MOL   C34418680   4.902   7.680   0.830 -0.4695  0.2584  0.1811
   49MOL   C34518681   4.925   7.663   0.678  0.2586  0.2844 -0.3028
   49MOL   C34618682   4.824   7.741   0.603 -0.5436 -0.0893  0.4087
   49MOL   C34718683   4.848   7.736   0.455 -0.4811 -0.4335  0.3980
   49MOL   C34818684   4.748   0.042   0.382  0.1590  0.1450  0.0801
   49MOL   C34918685   4.778   0.046   0.235  0.0960 -0.0208 -0.6540
   49MOL   O35018686   5.057   7.718   0.651 -0.2334  0.0276  0.9639
   49MOL   H35118687   4.945   7.771   0.871 -1.7647  0.4629  1.1501
   49MOL   H35218688   4.797   7.693   0.858 -0.0931  1.4666  1.0970
   49MOL   H35318689   4.906   7.563   0.641 -1.1773  0.7115 -0.7612
   49MOL   H35418690   4.826   0.061   0.627 -1.7872 -0.0560  0.3950
   49MOL   H35518691   4.722   7.707   0.622 -0.0298 -1.4513  0.8045
   49MOL   H35618692   4.837   7.634   0.418 -0.3846 -0.0916 -0.5966
   49MOL   H35718693   4.950   7.771   0.436 -1.0398  2.0253  1.7571
   49MOL   H35818694   4.743   0.145   0.417  2.3695 -0.7186  3.2669
   49MOL   H35918695   4.646   0.004   0.385  1.4010 -3.3631  1.8141
   49MOL   H36018696   4.724   0.124   0.183  0.3049 -0.5760 -1.7175
   49MOL   H36118697   4.759   7.737   0.185  1.1231  0.3414 -1.7438
   49MOL   H36218698   4.884   0.070   0.221 -0.0088 -0.2632 -1.8922
   49MOL   C36318699   5.162   7.629   0.689 -0.0713  0.2153 -0.5523
   49MOL   C36418700   5.236   7.597   0.559 -0.2236 -0.3341 -0.0398
   49MOL   C36518701   5.154   7.522   0.457  0.6622 -0.2335 -0.3324
   49MOL   C36618702   5.239   7.485   0.337 -0.5717 -0.4474  0.3189
   49MOL   C36718703   5.149   7.442   0.217  0.1262  0.0788  0.1282
   49MOL   C36818704   5.074   7.560   0.155 -0.6669 -0.2855 -0.0412
   49MOL   O36918705   5.288   7.719   0.518  0.9364 -0.9796 -0.1037
   49MOL   H37018706   5.123   7.536   0.730 -1.9114  1.1479 -0.1414
   49MOL   H37118707   5.218   7.686   0.763 -0.9236  1.5107 -0.8819
   49MOL   H37218708   5.321   7.532   0.580 -1.0514 -2.2296 -2.3214
   49MOL   H37318709   5.102   7.438   0.502  0.4537 -0.0577 -0.2425
   49MOL   H37418710   5.083   7.597   0.421  0.3989  0.2374  1.1427
   49MOL   H37518711   5.318   7.549   0.298 -0.0559 -0.7490  0.8637
   49MOL   H37618712   5.295   7.396   0.364  1.6939  0.8438 -0.0414
   49MOL   H37718713   5.216   7.386   0.152 -0.0481 -2.0214  1.7024
   49MOL   H37818714   5.088   7.365   0.264  0.9322 -0.9339 -0.4765
   49MOL   H37918715   5.121   7.653   0.187 -2.9519  0.6284  0.7580
   49MOL   H38018716   5.077   7.546   0.047 -2.5819 -1.5879  0.0548
   49MOL   H38118717   4.968   7.554   0.181 -1.2600 -0.5370 -2.3915
   49MOL   H38218718   5.235   0.000   0.560  0.6891 -2.1610  1.5049
   50MOL     C118719   5.448   0.530   0.783 -0.5676 -0.4994  0.5373
   50MOL     C218720   5.397   0.664   0.843  0.8078 -0.1669 -0.0855
   50MOL     C318721   5.374   0.634   0.996  0.5555  0.4614  0.2325
   50MOL     C418722   5.296   0.744   1.072 -0.7151 -0.0151  0.9404
   50MOL     C518723   5.274   0.696   1.222  0.3009  0.7789 -0.2761
   50MOL     C618724   5.170   0.780   1.298  0.1755  1.0552  0.4880
   50MOL     O718725   5.485   0.764   0.812  0.0337 -0.6082 -0.0656
   50MOL     H818726   5.365   0.460   0.788 -2.9699  2.3392  1.9256
   50MOL     H918727   5.519   0.485   0.852 -0.3926  0.4096  0.9565
   50MOL    H1018728   5.309   0.688   0.783  1.3995  0.7987 -0.5825
   50MOL    H1118729   5.317   0.543   1.010 -1.5605  1.5776 -0.9926
   50MOL    H1218730   5.475   0.618   1.034  0.1994 -2.3026  0.1071
   50MOL    H1318731   5.357   0.834   1.085 -2.4962  1.0482  2.3132
   50MOL    H1418732   5.203   0.777   1.027  1.0027 -0.4879 -3.0927
   50MOL    H1518733   5.240   0.592   1.219  2.2737 -0.0415  3.0878
   50MOL    H1618734   5.371   0.711   1.269  0.2172  0.0884  0.1333
   50MOL    H1718735   5.226   0.872   1.314  0.6428  0.6556  1.1892
   50MOL    H1818736   5.084   0.798   1.234  0.0065 -3.3037 -0.6977
   50MOL    H1918737   5.135   0.754   1.398 -0.2938  1.2098  0.3647
   50MOL    H2018738   5.486   0.552   0.684  1.0423  1.7220  1.6091
   50MOL    C2118739   5.428   0.890   0.770 -0.0054 -0.0421 -0.1703
   50MOL    C2218740   5.539   0.989   0.741  0.1027  0.2298  0.1631
   50MOL    C2318741   5.476   1.098   0.645 -0.0464  0.3208  0.1973
   50MOL    C2418742   5.575   1.205   0.587 -0.2507 -0.5253 -0.0334
   50MOL    C2518743   5.519   1.293   0.472  0.1545 -0.7973 -0.4150
   50MOL    C2618744   5.389   1.369   0.496 -0.1896  0.0057 -0.3399
   50MOL    O2718745   5.589   1.050   0.859 -0.2155  0.5195  0.6938
   50MOL    H2818746   5.373   0.873   0.677  1.2643  0.8818 -1.1034
   50MOL    H2918747   5.355   0.926   0.842 -2.2182 -1.7657 -1.4805
   50MOL    H3018748   5.622   0.938   0.693 -0.9774 -2.6659  1.2624
   50MOL    H3118749   5.391   1.145   0.694 -0.6176 -0.8397  0.3371
   50MOL    H3218750   5.426   1.046   0.563  0.9263  0.0838 -0.2607
   50MOL    H3318751   5.651   1.144   0.539  1.5096  0.1928  1.7446
   50MOL    H3418752   5.633   1.254   0.666  2.0963 -3.3214  0.0693
   50MOL    H3518753   5.600   1.352   0.429 -1.2537  1.5293  0.0432
   50MOL    H3618754   5.491   1.222   0.393 -1.2023  2.0266 -2.5849
   50MOL    H3718755   5.415   1.465   0.542  0.4677 -1.4677  2.4888
   50MOL    H3818756   5.315   1.315   0.553 -0.5180 -1.2252 -1.9069
   50MOL    H3918757   5.342   1.378   0.398  2.8955 -0.3013 -1.9339
   50MOL    C4018758   5.691   0.981   0.933 -0.3610  0.1106 -0.3696
   50MOL    C4118759   5.733   1.064   1.050  0.0708  0.3002 -0.4850
   50MOL    C4218760   5.621   1.079   1.151  0.3226 -0.3243 -0.8571
   50MOL    C4318761   5.669   1.126   1.295 -0.6742 -0.1839  0.2220
   50MOL    C4418762   5.542   1.140   1.391 -0.3447 -0.7455  0.2109
   50MOL    C4518763   5.571   1.170   1.540  0.7158 -0.4294 -0.0538
   50MOL    O4618764   5.784   1.188   1.025 -0.3829 -0.5115 -0.0939
   50MOL    H4718765   5.767   0.957   0.859 -0.1475 -2.7676  0.7201
   50MOL    H4818766   5.654   0.885   0.971 -0.7737  0.6462  0.6026
   50MOL    H4918767   5.816   1.015   1.102  0.2528  0.7750 -0.3340
   50MOL    H5018768   5.550   1.158   1.124  1.2270  1.2889  1.3187
   50MOL    H5118769   5.569   0.987   1.177 -0.3849 -0.1446 -1.6335
   50MOL    H5218770   5.708   1.227   1.290 -1.5359  0.0935 -1.2380
   50MOL    H5318771   5.739   1.054   1.336 -0.5895  0.2768  0.8960
   50MOL    H5418772   5.470   1.214   1.355 -0.7328 -1.3691 -0.3062
   50MOL    H5518773   5.493   1.043   1.382  0.9992 -1.4571  0.4021
   50MOL    H5618774   5.484   1.161   1.606  0.2628  0.7142 -0.4871
   50MOL    H5718775   5.644   1.102   1.586  1.7141 -0.2233 -1.2969
   50MOL    H5818776   5.598   1.274   1.557  3.1323 -0.6062 -2.5048
   50MOL    C5918777   5.850   1.216   0.907  0.3647  1.1022  0.3830
   50MOL    C6018778   5.916   1.354   0.929 -0.3774  0.1750  0.5192
   50MOL    C6118779   6.019   1.349   1.049 -0.1516 -0.4422  0.2472
   50MOL    C6218780   6.091   1.482   1.065 -0.1525 -0.2232 -0.7221
   50MOL    C6318781   6.203   1.494   1.168  0.1078  0.7487 -0.4416
   50MOL    C6418782   6.291   1.623   1.153  0.9496  0.0290  0.2593
   50MOL    O6518783   5.988   1.384   0.803  0.0630  0.6700 -0.4539
   50MOL    H6618784   5.783   1.212   0.822  1.2038  0.8303 -0.2678
   50MOL    H6718785   5.928   1.140   0.895  0.8705  1.3094  2.1050
   50MOL    H6818786   5.836   1.425   0.950 -0.8126 -0.2263  0.2174
   50MOL    H6918787   6.096   1.273   1.041 -0.5645 -0.8848  0.4750
   50MOL    H7018788   5.956   1.328   1.135  1.1603 -1.8620  0.8845
   50MOL    H7118789   6.011   1.548   1.099 -1.2791 -2.0228  0.2500
   50MOL    H7218790   6.128   1.502   0.965  1.3630 -0.0573 -0.1270
   50MOL    H7318791   6.266   1.405   1.164  2.2786  2.1667  1.4222
   50MOL    H7418792   6.156   1.495   1.266  1.3959 -0.2044  0.1997
   50MOL    H7518793   6.373   1.614   1.224 -0.7489 -0.5214  2.1942
   50MOL    H7618794   6.329   1.640   1.052  0.9328  1.9852  0.5692
   50MOL    H7718795   6.239   1.713   1.186 -1.1932 -1.2072  0.3437
   50MOL    C7818796   5.928   1.491   0.734  0.0576  0.0757  0.6694
   50MOL    C7918797   6.029   1.530   0.626 -0.5770 -0.5934  0.0890
   50MOL    C8018798   6.160   1.592   0.683  0.1334 -0.5144 -0.0247
   50MOL    C8118799   6.274   1.594   0.579  0.3712 -0.4755  0.5006
   50MOL    C8218800   6.398   1.652   0.640  0.7107  0.2700  0.2303
   50MOL    C8318801   6.522   1.669   0.542  0.4515 -0.2320 -0.1442
   50MOL    O8418802   5.976   1.646   0.559 -0.6032 -0.1574 -0.2086
   50MOL    H8518803   5.906   1.571   0.805  0.0441 -0.1480  0.9174
   50MOL    H8618804   5.841   1.447   0.685  2.0248 -0.0253 -2.9252
   50MOL    H8718805   6.051   1.449   0.557 -0.1095 -0.5703  0.2107
   50MOL    H8818806   6.152   1.687   0.735  1.1800 -1.3217  1.6660
   50MOL    H8918807   6.201   1.526   0.760  1.8639  0.2835 -0.2516
   50MOL    H9018808   6.249   1.661   0.497 -2.9714 -1.4318  0.6668
   50MOL    H9118809   6.298   1.496   0.539  2.0550 -0.4025  1.2869
   50MOL    H9218810   6.376   1.748   0.688 -1.7267 -0.4341  0.5834
   50MOL    H9318811   6.429   1.581   0.717 -0.4821 -0.0756  0.3970
   50MOL    H9418812   6.496   1.745   0.469  2.3165 -0.6463 -1.2808
   50MOL    H9518813   6.538   1.573   0.492 -0.0587  1.0372 -2.8098
   50MOL    H9618814   6.613   1.708   0.586 -0.7005 -0.6576  2.7205
   50MOL    C9718815   5.906   1.608   0.443 -0.2320  0.8291  0.0662
   50MOL    C9818816   5.806   1.710   0.391 -0.8483  0.2660  0.3104
   50MOL    C9918817   5.788   1.693   0.238  0.0099  0.6659 -1.1969
   50MOL   C10018818   5.738   1.557   0.181  0.0338 -0.5074 -0.5541
   50MOL   C10118819   5.690   1.562   0.035 -0.3255 -0.4695  0.1462
   50MOL   C10218820   5.800   1.599   7.725  0.2385 -0.1899  0.2759
   50MOL   O10318821   5.686   1.690   0.454 -0.4936 -0.3999  0.5631
   50MOL   H10418822   5.852   1.516   0.469 -1.1659  1.3928  0.1664
   50MOL   H10518823   5.981   1.579   0.370 -0.8170 -1.7446  0.4050
   50MOL   H10618824   5.840   1.811   0.412  0.3810 -0.3172  1.1491
   50MOL   H10718825   5.883   1.721   0.193  0.4374  0.1915 -0.5998
   50MOL   H10818826   5.724   1.773   0.200 -0.3722  0.7271 -0.4371
   50MOL   H10918827   5.659   1.510   0.239  0.4514 -0.1293  0.3273
   50MOL   H11018828   5.818   1.482   0.175  0.4939  0.0454 -1.3972
   50MOL   H11118829   5.605   1.630   0.026  1.1885  1.5644  0.7560
   50MOL   H11218830   5.643   1.465   0.020  0.4224 -0.9136  0.6726
   50MOL   H11318831   5.883   1.528   7.724 -0.0782 -0.5613 -0.9435
   50MOL   H11418832   5.766   1.612   7.623  0.3001  2.1220  0.5440
   50MOL   H11518833   5.843   1.695   7.751  3.0407 -1.8042  1.8418
   50MOL   C11618834   5.605   1.815   0.471  0.3820  0.1486  0.1357
   50MOL   C11718835   5.463   1.772   0.508  0.0610 -0.4227 -0.7969
   50MOL   C11818836   5.361   1.871   0.461  0.5738 -0.3124  1.1259
   50MOL   C11918837   5.346   1.867   0.304  0.3214 -0.5125 -0.0354
   50MOL   C12018838   5.288   1.734   0.242  0.1641  0.1359 -0.0197
   50MOL   C12118839   5.237   1.761   0.099  0.5192 -0.6252 -0.2689
   50MOL   O12218840   5.454   1.764   0.648 -0.8540 -0.4104 -0.1191
   50MOL   H12318841   5.652   1.884   0.541 -0.8672  0.4062  0.7289
   50MOL   H12418842   5.603   1.867   0.375 -1.0439 -0.3183 -0.0899
   50MOL   H12518843   5.435   1.680   0.457 -0.1800 -0.3260 -0.8430
   50MOL   H12618844   5.263   1.853   0.506 -0.6849  1.0186 -1.0050
   50MOL   H12718845   5.397   1.966   0.501 -2.0786  0.1710  2.5380
   50MOL   H12818846   5.440   1.902   0.261  0.0985  1.4258  1.0087
   50MOL   H12918847   5.267   1.939   0.279 -0.3594 -1.6075 -1.1285
   50MOL   H13018848   5.356   1.649   0.235 -1.4408 -0.9958 -2.5573
   50MOL   H13118849   5.199   1.693   0.290 -0.1359 -1.4702 -1.8989
   50MOL   H13218850   5.173   1.849   0.088  1.4874  0.0252 -0.7383
   50MOL   H13318851   5.328   1.768   0.039  0.0028  0.8816 -0.9013
   50MOL   H13418852   5.178   1.679   0.056  1.6199 -1.0453 -0.9892
   50MOL   C13518853   5.533   1.659   0.706 -0.7546 -0.0404 -0.5203
   50MOL   C13618854   5.479   1.639   0.846 -0.7078  0.2355  0.4287
   50MOL   C13718855   5.585   1.560   0.929  0.5455 -0.6988  0.1460
   50MOL   C13818856   5.552   1.525   1.074 -0.3145 -0.1650 -0.5783
   50MOL   C13918857   5.665   1.518   1.177 -0.1498  0.4601 -0.6129
   50MOL   C14018858   5.716   1.656   1.216 -0.4786 -0.7473 -0.2830
   50MOL   O14118859   5.377   1.546   0.810  0.0901 -0.0310 -0.0410
   50MOL   H14218860   5.553   1.564   0.657 -0.1457  0.2409 -0.8180
   50MOL   H14318861   5.631   1.707   0.706 -0.2925 -0.9795 -0.0883
   50MOL   H14418862   5.441   1.730   0.891 -0.2299  0.3883  0.5291
   50MOL   H14518863   5.608   1.465   0.881 -0.8517  0.1827 -2.3476
   50MOL   H14618864   5.679   1.615   0.925 -0.4977  1.0793 -0.4658
   50MOL   H14718865   5.498   1.431   1.065  0.0746 -0.5608  0.9390
   50MOL   H14818866   5.483   1.603   1.109  0.2457 -0.4068  1.1037
   50MOL   H14918867   5.750   1.464   1.136  0.8954  2.8355 -1.7274
   50MOL   H15018868   5.628   1.466   1.265 -0.1724 -2.2740 -2.2025
   50MOL   H15118869   5.659   1.709   1.292 -0.3858 -1.4188  0.2565
   50MOL   H15218870   5.813   1.633   1.261  0.6848  1.6947 -1.4366
   50MOL   H15318871   5.749   1.727   1.140  0.3320 -1.4760 -0.6251
   50MOL   C15418872   5.246   1.586   0.859  0.5948  0.3121  0.5889
   50MOL   C15518873   5.141   1.508   0.780  0.1851 -0.1847 -0.1561
   50MOL   C15618874   5.083   1.398   0.871 -0.4756  0.1665 -0.1516
   50MOL   C15718875   5.179   1.303   0.951  0.0813  0.1152 -0.0660
   50MOL   C15818876   5.112   1.201   1.046 -0.1742  0.4042  0.7602
   50MOL   C15918877   5.212   1.115   1.118  0.0051  0.2342 -0.5217
   50MOL   O16018878   5.029   1.572   0.714  0.1175  0.1123  0.1245
   50MOL   H16118879   5.232   1.689   0.828 -0.5589 -0.4724 -1.6033
   50MOL   H16218880   5.222   1.580   0.965 -2.9958 -1.3926 -0.2502
   50MOL   H16318881   5.188   1.459   0.694 -1.6511  0.8998 -1.8411
   50MOL   H16418882   5.007   1.352   0.807 -2.2606  0.8740  1.4152
   50MOL   H16518883   5.024   1.447   0.949 -1.5179 -1.1477 -0.0946
   50MOL   H16618884   5.258   1.348   1.010  0.4337 -0.5297 -0.0438
   50MOL   H16718885   5.228   1.248   0.871 -3.0425 -1.5924 -0.8922
   50MOL   H16818886   5.045   1.252   1.115  3.0471  3.7248  1.6286
   50MOL   H16918887   5.052   1.129   0.991  1.1872  0.2592 -0.5781
   50MOL   H17018888   5.267   1.052   1.048  1.6392  1.3305 -0.2514
   50MOL   H17118889   5.161   1.043   1.182  3.8480 -1.5487  0.6491
   50MOL   H17218890   5.286   1.176   1.169  0.5597 -0.9098  0.0653
   50MOL   C17318891   5.055   1.681   0.631  0.6056 -0.3126  0.1993
   50MOL   C17418892   4.958   1.690   0.506 -0.1380 -0.4621 -0.1006
   50MOL   C17518893   4.932   1.836   0.461  0.1752 -0.6621 -0.4990
   50MOL   C17618894   4.849   1.862   0.342  0.3445 -0.5256  0.0086
   50MOL   C17718895   4.834   2.012   0.308 -0.3743  0.4613 -0.0939
   50MOL   C17818896   4.716   2.037   0.211  0.3998 -0.5290  0.0696
   50MOL   O17918897   4.994   1.608   0.387 -0.2336  0.1730 -0.2517
   50MOL   H18018898   5.156   1.683   0.590  0.9956  0.1554  1.1778
   50MOL   H18118899   5.049   1.773   0.687  0.5545  0.6742 -1.3867
   50MOL   H18218900   4.872   1.641   0.550  0.2449 -1.6422 -0.6574
   50MOL   H18318901   4.888   1.896   0.540  1.1263 -0.2602 -0.2548
   50MOL   H18418902   5.029   1.878   0.432 -0.6080 -0.2283 -2.5554
   50MOL   H18518903   4.895   1.813   0.256  0.4255 -1.8877  0.8031
   50MOL   H18618904   4.754   1.813   0.364 -0.3417  0.9262  0.3179
   50MOL   H18718905   4.827   2.071   0.399  1.1801 -0.6985  0.7920
   50MOL   H18818906   4.935   2.034   0.274 -0.1106 -0.5125  0.0417
   50MOL   H18918907   4.666   2.134   0.209 -1.0170 -1.2598 -0.9213
   50MOL   H19018908   4.639   1.967   0.242  0.3800  0.5607  2.6437
   50MOL   H19118909   4.746   2.013   0.109  0.1386  1.1156 -0.4177
   50MOL   C19218910   4.991   1.466   0.416  0.3615  0.1142  0.0101
   50MOL   C19318911   5.040   1.382   0.294 -1.0251  0.5101 -0.8631
   50MOL   C19418912   4.971   1.422   0.162 -0.4066 -0.2934  1.1620
   50MOL   C19518913   5.018   1.338   0.044 -0.1297 -0.4599 -1.0441
   50MOL   C19618914   4.992   1.416   7.702  0.3211 -0.3346 -0.2964
   50MOL   C19718915   5.033   1.349   7.568  0.0867 -0.1857 -0.1526
   50MOL   O19818916   5.016   1.248   0.334  0.0381 -0.4335  0.6721
   50MOL   H19918917   5.050   1.451   0.507 -0.1304 -0.4924  0.2358
   50MOL   H20018918   4.890   1.435   0.444  0.0553  1.6681  0.6938
   50MOL   H20118919   5.148   1.395   0.286 -1.0265  0.8069 -0.4499
   50MOL   H20218920   4.862   1.422   0.169 -0.5065  0.1053 -0.3372
   50MOL   H20318921   5.012   1.521   0.142 -0.7133 -0.4695 -0.4311
   50MOL   H20418922   4.944   1.258   0.053  1.5656 -1.8937  0.4130
   50MOL   H20518923   5.122   1.309   0.058 -0.7912 -1.1735  3.0568
   50MOL   H20618924   4.884   1.426   7.697  0.3234 -0.2991 -0.2807
   50MOL   H20718925   5.033   1.516   7.710  1.0312 -0.6180 -0.3549
   50MOL   H20818926   4.987   1.251   7.558 -1.5273  0.4765  0.5741
   50MOL   H20918927   5.003   1.425   7.495 -1.5227 -1.8195 -1.2343
   50MOL   H21018928   5.140   1.333   7.564  0.3861  1.3614  1.0331
   50MOL   C21118929   5.124   1.154   0.303 -0.0816  0.2189 -0.6587
   50MOL   C21218930   5.083   1.024   0.367  0.3353  0.6527 -0.0504
   50MOL   C21318931   5.069   1.030   0.518  0.1910 -0.6321 -0.0655
   50MOL   C21418932   5.047   0.896   0.598 -0.1465 -0.0661  0.2352
   50MOL   C21518933   5.058   0.913   0.745  0.4443 -0.0152  0.1316
   50MOL   C21618934   5.003   0.787   0.818 -0.5342  0.2483  0.6994
   50MOL   O21718935   5.181   0.929   0.348 -0.2097  0.3491 -0.7144
   50MOL   H21818936   5.216   1.192   0.348  0.1984  0.1917 -1.2019
   50MOL   H21918937   5.132   1.135   0.195  0.8456 -1.8571 -0.2479
   50MOL   H22018938   4.983   0.986   0.346 -0.5707  1.8013  1.9896
   50MOL   H22118939   5.156   1.079   0.562 -1.8090  1.5327  1.6111
   50MOL   H22218940   4.992   1.105   0.532 -0.4259 -1.0899 -1.0063
   50MOL   H22318941   4.947   0.873   0.561 -0.7311  0.8969  1.1838
   50MOL   H22418942   5.115   0.815   0.572  0.3749 -0.4334  2.6307
   50MOL   H22518943   5.162   0.926   0.774  0.6376 -1.0894 -0.0615
   50MOL   H22618944   4.995   0.998   0.770 -2.5233 -1.9848 -0.3681
   50MOL   H22718945   4.903   0.762   0.784  1.0501 -3.0837 -1.7872
   50MOL   H22818946   4.999   0.797   0.927  1.0422  0.3614  0.7631
   50MOL   H22918947   5.064   0.699   0.799  0.8355  0.6338  3.0694
   50MOL   C23018948   5.146   0.827   0.260 -0.2069 -0.5202 -0.0628
   50MOL   C23118949   5.273   0.756   0.202  0.0639  0.4832  0.4818
   50MOL   C23218950   5.242   0.642   0.104 -0.1594 -0.2120 -0.7179
   50MOL   C23318951   5.360   0.582   0.028  0.1445  0.7094  0.1897
   50MOL   C23418952   5.320   0.479   7.705 -0.1472  0.0603 -0.0837
   50MOL   C23518953   5.434   0.424   7.617  0.0360  0.0537 -0.2213
   50MOL   O23618954   5.350   0.707   0.308 -0.1096 -0.4602 -0.0357
   50MOL   H23718955   5.075   0.758   0.306 -0.7031  0.6860  1.0032
   50MOL   H23818956   5.102   0.863   0.166 -0.3225 -0.5086 -0.0045
   50MOL   H23918957   5.338   0.814   0.137  0.5364  0.4073  0.8836
   50MOL   H24018958   5.170   0.668   0.027 -1.3528  0.8140  0.7270
   50MOL   H24118959   5.197   0.563   0.163 -1.6164 -0.7960 -2.5844
   50MOL   H24218960   5.429   0.533   0.097  0.5033  0.4868 -0.3213
   50MOL   H24318961   5.412   0.662   7.761 -0.2542  0.8231 -0.0377
   50MOL   H24418962   5.267   0.397   7.753 -0.9170  1.9790  2.5017
   50MOL   H24518963   5.247   0.515   7.634  0.9083  2.7567  0.1224
   50MOL   H24618964   5.394   0.362   7.536  1.5886 -0.1265 -0.8723
   50MOL   H24718965   5.495   0.356   7.677  1.0867  1.9207  0.8730
   50MOL   H24818966   5.491   0.504   7.570 -0.2309 -0.0826 -0.7882
   50MOL   C24918967   5.448   0.797   0.352 -0.1849  0.5882  0.2840
   50MOL   C25018968   5.593   0.754   0.307  1.0604  0.8538  0.1259
   50MOL   C25118969   5.713   0.798   0.398  0.2854  0.6686  0.1496
   50MOL   C25218970   5.744   0.709   0.521  0.2255 -0.2016  0.2826
   50MOL   C25318971   5.813   0.568   0.484  0.1480  0.2803  0.0709
   50MOL   C25418972   5.846   0.483   0.607 -0.5779 -0.2526  0.0466
   50MOL   O25518973   5.607   0.811   0.172  0.6777 -0.3969 -0.1546
   50MOL   H25618974   5.436   0.902   0.326  1.3928  0.5988 -0.4428
   50MOL   H25718975   5.439   0.792   0.461 -1.7828  2.2449  0.2619
   50MOL   H25818976   5.590   0.646   0.290 -0.4739  1.4304 -3.7491
   50MOL   H25918977   5.795   0.811   0.327  0.6774  0.8294  0.6263
   50MOL   H26018978   5.689   0.897   0.435 -0.7030  0.3984  0.2370
   50MOL   H26118979   5.811   0.764   0.587  0.2667 -0.0813  0.1419
   50MOL   H26218980   5.664   0.692   0.593 -1.1101  1.1686 -0.8417
   50MOL   H26318981   5.747   0.502   0.428  0.3493 -0.5302  0.7863
   50MOL   H26418982   5.899   0.575   0.418 -0.0387 -0.7306 -0.2808
   50MOL   H26518983   5.936   0.524   0.652 -0.0206 -1.5796  0.1473
   50MOL   H26618984   5.858   0.381   0.572  3.1792 -0.1362  0.7727
   50MOL   H26718985   5.764   0.499   0.678 -1.8704  2.3964 -1.9496
   50MOL   C26818986   5.687   0.727   0.096 -0.4931 -0.2365  0.6889
   50MOL   C26918987   5.754   0.794   7.762  0.7905 -0.4170  0.4805
   50MOL   C27018988   5.812   0.697   7.657  0.0612  0.1444 -0.1090
   50MOL   C27118989   5.882   0.764   7.533  1.0120 -0.4795  0.5808
   50MOL   C27218990   5.936   0.668   7.418 -0.0442 -0.2616 -0.6242
   50MOL   C27318991   6.012   0.750   7.312 -0.2825  0.0519 -0.0210
   50MOL   O27418992   5.867   0.870   0.023  0.8629 -0.0175 -0.5302
   50MOL   H27518993   5.620   0.653   0.051  0.0333  0.6423 -1.6481
   50MOL   H27618994   5.771   0.676   0.145 -0.9968 -1.2549  0.5142
   50MOL   H27718995   5.678   0.852   7.710  0.6888 -1.1500 -0.1892
   50MOL   H27818996   5.882   0.639   7.718 -1.5101  0.2483  1.8495
   50MOL   H27918997   5.728   0.634   7.629  0.4952 -0.7131  0.4978
   50MOL   H28018998   5.814   0.834   7.484  0.5444  0.4891  2.5782
   50MOL   H28118999   5.954   0.840   7.566  1.2887 -1.1332  1.4941
   50MOL   H28219000   6.003   0.595   7.464  0.0065 -0.0275 -0.3299
   50MOL   H28319001   5.855   0.617   7.367 -0.3359 -0.2742 -0.1514
   50MOL   H28419002   6.046   0.674   7.241  1.0845 -1.3596  2.0961
   50MOL   H28519003   5.944   0.816   7.257 -1.0571 -1.0686 -0.4342
   50MOL   H28619004   6.091   0.812   7.354 -0.1064  0.1868 -0.5448
   50MOL   C28719005   5.830   1.001   0.061 -0.1271  0.3288 -0.3801
   50MOL   C28819006   5.960   1.082   0.086 -0.6134  0.7049 -0.1450
   50MOL   C28919007   5.953   1.176   0.205  0.2458  0.8880 -0.6339
   50MOL   C29019008   5.956   1.095   0.333 -0.4332  0.2039 -0.5230
   50MOL   C29119009   6.004   1.181   0.451 -0.0553  0.4761  0.2128
   50MOL   C29219010   5.987   1.114   0.586  0.1977 -0.1358 -0.0264
   50MOL   O29319011   6.008   1.167   7.770 -0.0438 -0.1919  0.0751
   50MOL   H29419012   5.778   0.995   0.156  0.7662  0.0415  0.0966
   50MOL   H29519013   5.779   1.048   7.762 -0.9936  1.4405  0.7411
   50MOL   H29619014   6.045   1.016   0.105  0.4348  1.8584 -0.7832
   50MOL   H29719015   6.036   1.247   0.210  0.5507  0.5890 -1.4379
   50MOL   H29819016   5.858   1.230   0.201 -0.0676  0.4620  0.6597
   50MOL   H29919017   5.857   1.065   0.368 -0.5021  0.8375 -0.1707
   50MOL   H30019018   6.028   1.014   0.324 -0.0703  0.5969 -1.2335
   50MOL   H30119019   5.924   1.254   0.465 -0.1475  0.5044 -0.4575
   50MOL   H30219020   6.094   1.241   0.436 -0.0648  0.6315  0.7642
   50MOL   H30319021   6.007   1.187   0.665  1.0495 -0.4681  0.0679
   50MOL   H30419022   5.887   1.070   0.598  0.5952 -1.1864 -0.5611
   50MOL   H30519023   6.061   1.034   0.590  1.3793  0.9340 -0.4476
   50MOL   C30619024   6.043   1.107   7.640  0.5352  0.3869  0.2541
   50MOL   C30719025   6.123   1.220   7.561  0.1293  0.6988 -0.8467
   50MOL   C30819026   6.144   1.187   7.413 -0.5345  0.3144 -0.7010
   50MOL   C30919027   6.211   1.297   7.329  0.5047  0.2673 -0.4724
   50MOL   C31019028   6.176   1.301   7.185  0.1120 -0.1608 -0.7005
   50MOL   C31119029   6.267   1.408   7.117 -0.0480 -0.3570  0.1178
   50MOL   O31219030   6.246   1.234   7.630 -0.0101 -0.6971  0.0556
   50MOL   H31319031   6.103   1.018   7.655 -0.2180  0.0403  1.2758
   50MOL   H31419032   5.944   1.083   7.600  0.7665 -1.0887  0.5405
   50MOL   H31519033   6.074   1.317   7.567  0.3734  0.6126  3.9200
   50MOL   H31619034   6.047   1.163   7.370 -0.8899  0.5938 -0.0497
   50MOL   H31719035   6.192   1.090   7.401  1.3886  1.3436 -1.6180
   50MOL   H31819036   6.181   1.390   7.378  0.4329  0.9383 -1.7675
   50MOL   H31919037   6.318   1.288   7.347  0.6087  1.5537 -0.3902
   50MOL   H32019038   6.068   1.314   7.170  0.2059 -0.3150 -1.5536
   50MOL   H32119039   6.213   1.202   7.157 -0.2976 -0.2056 -1.0979
   50MOL   H32219040   6.372   1.385   7.137 -0.2084 -0.1268  1.2460
   50MOL   H32319041   6.246   1.400   7.011  0.8841  0.7041 -0.1566
   50MOL   H32419042   6.242   1.508   7.153  2.1902 -0.4678  2.1888
   50MOL   C32519043   6.262   1.357   7.699 -0.0094 -0.1037 -0.1916
   50MOL   C32619044   6.350   1.355   0.042 -0.5146 -0.0791  0.0977
   50MOL   C32719045   6.312   1.474   0.134  0.7062  0.1367  1.0825
   50MOL   C32819046   6.330   1.615   0.075  0.1828 -0.0962  0.5158
   50MOL   C32919047   6.313   1.726   0.187 -0.4832 -0.7951  0.2559
   50MOL   C33019048   6.298   1.871   0.140 -0.4669 -0.4468  0.6029
   50MOL   O33119049   6.492   1.369   0.016  0.4668  0.1594 -0.0148
   50MOL   H33219050   6.164   1.389   7.734  0.2409 -0.8567  1.2591
   50MOL   H33319051   6.299   1.441   7.641 -2.7900  0.2509 -1.5301
   50MOL   H33419052   6.335   1.263   0.098 -0.8779  0.0110  0.1510
   50MOL   H33519053   6.206   1.471   0.161  0.3758 -2.2198 -0.3252
   50MOL   H33619054   6.362   1.466   0.230  0.8102  0.6330  1.0714
   50MOL   H33719055   6.429   1.631   0.032 -0.0135 -1.5048 -0.4948
   50MOL   H33819056   6.244   1.622   0.009  1.3737 -0.6089 -1.1267
   50MOL   H33919057   6.236   1.703   0.260 -0.5548 -0.6200  0.2357
   50MOL   H34019058   6.399   1.725   0.254 -1.4003 -0.1500  1.4505
   50MOL   H34119059   6.217   1.882   0.068  1.1908  0.2175 -1.2034
   50MOL   H34219060   6.265   1.924   0.230 -2.0893 -0.4255  0.0105
   50MOL   H34319061   6.386   1.911   0.090 -0.6615 -0.6910  0.0560
   50MOL   C34419062   6.539   1.282   7.702  0.5026 -0.5646  0.1333
   50MOL   C34519063   6.693   1.282   7.721  0.0071  0.4161  0.1379
   50MOL   C34619064   6.745   1.162   7.641  0.1631 -0.5432 -0.5073
   50MOL   C34719065   6.895   1.150   7.619  0.7161 -0.0196 -0.2665
   50MOL   C34819066   6.920   1.055   7.509  1.0094 -0.2247 -0.4958
   50MOL   C34919067   7.068   1.044   7.474 -0.0733  0.6282 -0.1512
   50MOL   O35019068   6.761   1.395   7.675 -0.4033  0.0269  0.0129
   50MOL   H35119069   6.512   1.302   7.598 -1.8371 -0.5216  0.7259
   50MOL   H35219070   6.496   1.185   7.728  0.7227 -1.2767 -2.0846
   50MOL   H35319071   6.709   1.257   0.041 -2.7007  0.6476  0.6584
   50MOL   H35419072   6.697   1.151   7.544 -0.7891  0.2564 -0.1383
   50MOL   H35519073   6.708   1.074   7.694 -0.7594 -0.8494 -1.6566
   50MOL   H35619074   6.938   1.127   7.716 -2.3861 -0.7733  0.9850
   50MOL   H35719075   6.936   1.248   7.594  1.6356 -1.0668 -3.1777
   50MOL   H35819076   6.883   1.097   7.416  0.2990 -2.0089 -1.0365
   50MOL   H35919077   6.878   0.956   7.526  2.2603 -0.6761 -0.0030
   50MOL   H36019078   7.071   0.966   7.397  1.1491 -0.7257  1.2300
   50MOL   H36119079   7.132   1.015   7.558 -1.2939  1.5306  1.0957
   50MOL   H36219080   7.120   1.131   7.435  1.5811  0.9403  2.5928
   50MOL   C36319081   6.721   1.525   7.719 -0.6647  0.4227  0.6264
   50MOL   C36419082   6.772   1.545   0.078  0.5811  0.4946 -0.3211
   50MOL   C36519083   6.831   1.682   0.112  0.0756  0.1631 -0.8149
   50MOL   C36619084   6.743   1.809   0.072 -0.3395 -0.5558  0.1322
   50MOL   C36719085   6.837   1.928   0.106 -0.2110  0.1013 -0.1782
   50MOL   C36819086   6.770   2.057   0.052 -0.4679  0.5801  0.1645
   50MOL   O36919087   6.668   1.517   0.164 -0.8447  0.1684 -0.3134
   50MOL   H37019088   6.613   1.532   7.706 -0.5515 -0.6980 -0.9751
   50MOL   H37119089   6.766   1.591   7.645  1.8188  1.8018  3.2661
   50MOL   H37219090   6.841   1.464   0.101  0.1584  0.3855  0.5559
   50MOL   H37319091   6.867   1.694   0.214 -1.2106 -1.0702 -0.1949
   50MOL   H37419092   6.917   1.688   0.045  1.2105 -1.1493  0.4643
   50MOL   H37519093   6.721   1.802   7.751 -0.9481  1.0793  0.1433
   50MOL   H37619094   6.645   1.820   0.117  0.1528 -1.0217  1.3410
   50MOL   H37719095   6.858   1.939   0.212  2.4714 -0.9571 -0.5585
   50MOL   H37819096   6.935   1.912   0.061 -0.3293 -1.0955 -0.0003
   50MOL   H37919097   6.819   2.151   0.080  1.2557 -0.7321  1.6584
   50MOL   H38019098   6.740   2.048   7.733 -0.8985 -2.6760  0.5182
   50MOL   H38119099   6.678   2.076   0.107 -1.3114  0.0565 -1.0471
   50MOL   H38219100   6.605   1.464   0.117 -0.8732 -1.6194  1.7094
   51MOL     C119101   0.210   4.731   2.683 -0.2792  0.5910 -0.3351
   51MOL     C219102   0.143   4.869   2.665 -0.6393 -0.5662 -0.1430
   51MOL     C319103   7.777   4.858   2.643  0.1658  0.0333  0.0378
   51MOL     C419104   7.729   4.855   2.493 -0.0147  0.6582  0.1277
   51MOL     C519105   7.594   4.785   2.473  0.0277  0.2231  0.4162
   51MOL     C619106   7.531   4.831   2.331  0.5123  0.0900 -0.3588
   51MOL     O719107   0.160   4.949   2.783 -0.3174  0.3944 -0.2573
   51MOL     H819108   0.167   4.672   2.764  1.8362 -0.7668 -0.1681
   51MOL     H919109   0.316   4.752   2.699 -0.3259  0.5273  0.0740
   51MOL    H1019110   0.180   4.914   2.573 -2.1046 -1.1471 -1.0339
   51MOL    H1119111   7.750   4.754   2.664 -1.9327  0.4870 -0.2893
   51MOL    H1219112   7.715   4.917   2.710  0.4052  0.5426 -0.1926
   51MOL    H1319113   7.709   4.957   2.460 -0.3074  0.7555  0.5901
   51MOL    H1419114   0.013   4.818   2.418  0.6207  2.8138 -0.3850
   51MOL    H1519115   7.604   4.677   2.478 -0.6334  0.1687  0.6860
   51MOL    H1619116   7.520   4.807   2.550  0.1483  0.9233  0.3360
   51MOL    H1719117   7.425   4.852   2.341  0.7047  0.4371  1.2369
   51MOL    H1819118   7.584   4.915   2.286 -1.8870  1.3582 -0.8744
   51MOL    H1919119   7.539   4.742   2.269 -0.0208  0.2542 -0.6641
   51MOL    H2019120   0.193   4.669   2.595  3.4700 -2.4644  0.9538
   51MOL    C2119121   0.279   5.032   2.771 -0.4761 -0.3532  0.1824
   51MOL    C2219122   0.298   5.104   2.907 -0.5880 -0.4353 -0.3847
   51MOL    C2319123   0.429   5.183   2.927 -0.6992  0.9506 -0.2207
   51MOL    C2419124   0.441   5.314   2.839  0.2780 -1.0706  0.0814
   51MOL    C2519125   0.573   5.389   2.878 -0.4163 -0.0975 -0.2582
   51MOL    C2619126   0.607   5.505   2.790  0.4013  0.4116  0.0656
   51MOL    O2719127   0.184   5.190   2.924 -0.2903 -0.6268 -0.1737
   51MOL    H2819128   0.366   4.967   2.756 -0.5940 -0.7678  1.1990
   51MOL    H2919129   0.267   5.101   2.688 -1.3699  1.3449  1.7035
   51MOL    H3019130   0.287   5.023   2.980 -1.5268  0.1874  0.1781
   51MOL    H3119131   0.512   5.116   2.904 -0.0574  1.7667 -0.3067
   51MOL    H3219132   0.440   5.217   3.030  1.2246  0.2027 -0.1570
   51MOL    H3319133   0.358   5.373   2.878 -0.7845 -2.7886  0.4599
   51MOL    H3419134   0.419   5.296   2.734 -0.7457 -0.2822  0.1452
   51MOL    H3519135   0.567   5.432   2.978  2.1318 -1.8050  0.6735
   51MOL    H3619136   0.653   5.316   2.879  0.2433  0.6355  0.7060
   51MOL    H3719137   0.547   5.595   2.803  1.3597  1.2572 -1.2622
   51MOL    H3819138   0.598   5.473   2.686 -1.6644  2.5027 -0.4379
   51MOL    H3919139   0.714   5.513   2.809  0.8361 -1.6859 -1.3464
   51MOL    C4019140   0.155   5.235   3.050  0.2491 -0.1402 -0.0020
   51MOL    C4119141   0.026   5.317   3.040  1.0287  0.1476  0.3036
   51MOL    C4219142   0.017   5.424   3.152 -0.3283 -0.1548  0.2007
   51MOL    C4319143   0.043   5.369   3.301 -0.0038 -0.0710 -0.3351
   51MOL    C4419144   0.027   5.466   3.420 -0.6911 -0.0990  0.1374
   51MOL    C4519145   0.029   5.384   3.556  0.0563 -0.1045  0.4537
   51MOL    O4619146   7.706   5.229   3.065  0.3539  0.3054  0.2407
   51MOL    H4719147   0.233   5.308   3.070  0.4917 -0.1302 -0.9380
   51MOL    H4819148   0.144   5.165   3.133  2.5214 -0.4232  0.0870
   51MOL    H4919149   0.010   5.373   2.948 -0.9450 -0.6628  0.1312
   51MOL    H5019150   0.086   5.505   3.127 -1.3319  0.0224 -2.1418
   51MOL    H5119151   7.702   5.464   3.147 -0.5475 -0.9562 -2.3333
   51MOL    H5219152   0.141   5.323   3.313  1.3396  2.5020 -1.0164
   51MOL    H5319153   7.764   5.284   3.324 -1.2770  0.9461 -0.0924
   51MOL    H5419154   0.111   5.536   3.414 -1.2990  0.8215  2.1867
   51MOL    H5519155   7.724   5.529   3.416  0.9966  2.4756  1.7932
   51MOL    H5619156   0.120   5.326   3.562  1.7068  2.3506 -0.1919
   51MOL    H5719157   0.023   5.456   3.638 -1.5832  0.5575 -0.2112
   51MOL    H5819158   7.738   5.308   3.568  0.1386 -0.2142  0.2726
   51MOL    C5919159   7.671   5.142   2.955 -0.5688 -0.6245 -0.4534
   51MOL    C6019160   7.556   5.208   2.878 -0.3223 -0.5707 -0.0835
   51MOL    C6119161   7.467   5.298   2.973 -0.1828 -0.6657  0.0573
   51MOL    C6219162   7.332   5.345   2.909  0.1537 -0.1221  0.1458
   51MOL    C6319163   7.257   5.432   3.005 -0.0785  0.3482  0.3559
   51MOL    C6419164   7.136   5.506   2.937 -0.5758 -0.8496  0.1774
   51MOL    O6519165   7.594   5.290   2.764  0.0507  0.0056  0.5938
   51MOL    H6619166   7.643   5.045   2.996  1.3311 -0.9527  0.1120
   51MOL    H6719167   7.753   5.130   2.885  1.0205  0.4728  1.1780
   51MOL    H6819168   7.489   5.130   2.840  0.2792  0.1455 -2.7756
   51MOL    H6919169   7.530   5.382   3.002  2.2798 -2.2280 -0.6497
   51MOL    H7019170   7.448   5.243   3.065  0.5730  1.1247  1.3123
   51MOL    H7119171   7.271   5.257   2.890  1.6070 -1.1382  0.1425
   51MOL    H7219172   7.346   5.390   2.811 -2.9847 -2.1683 -1.3230
   51MOL    H7319173   7.318   5.510   3.050 -1.3468  1.5212  0.0536
   51MOL    H7419174   7.208   5.375   3.084 -1.4201 -2.2708 -2.2734
   51MOL    H7519175   7.106   5.594   2.994  0.0432 -0.0702 -0.6871
   51MOL    H7619176   7.173   5.546   2.843 -5.3255  1.4985 -0.8440
   51MOL    H7719177   7.043   5.459   2.904 -0.5875  1.4180 -3.3262
   51MOL    C7819178   7.605   5.215   2.644  0.2039 -0.1121  0.8989
   51MOL    C7919179   7.621   5.305   2.521 -0.3083 -0.2268 -0.5793
   51MOL    C8019180   7.529   5.258   2.412  1.1314  0.8124  0.4162
   51MOL    C8119181   7.555   5.344   2.290 -0.0271  0.1837 -0.0316
   51MOL    C8219182   7.456   5.306   2.178  0.9242 -0.1076  0.7517
   51MOL    C8319183   7.475   5.393   2.060 -0.0465 -0.0945 -0.3288
   51MOL    O8419184   7.759   5.303   2.485 -0.6410  0.2345  0.2872
   51MOL    H8519185   7.513   5.157   2.635  0.8876 -1.3673  1.9596
   51MOL    H8619186   7.687   5.145   2.652 -0.0018 -0.3868  0.6017
   51MOL    H8719187   7.588   5.408   2.539  0.0243 -0.0374 -1.0451
   51MOL    H8819188   7.570   5.161   2.385  0.8483  0.6946  0.4153
   51MOL    H8919189   7.429   5.260   2.455  1.6006  1.7136  1.5165
   51MOL    H9019190   7.656   5.326   2.253 -0.4397 -1.1014 -0.5299
   51MOL    H9119191   7.542   5.448   2.322 -1.0323  0.1381 -0.2826
   51MOL    H9219192   7.479   5.205   2.146  2.5626  0.8429 -1.1883
   51MOL    H9319193   7.355   5.309   2.219  0.0454  0.2939 -1.3873
   51MOL    H9419194   7.467   5.498   2.086  1.3329 -0.3094  1.0581
   51MOL    H9519195   7.399   5.365   1.987  1.3460 -2.6461 -0.8521
   51MOL    H9619196   7.575   5.383   2.017 -0.3789  1.3138 -1.4434
   51MOL    C9719197   0.062   5.387   2.559  0.9919 -0.1533 -0.1586
   51MOL    C9819198   0.190   5.414   2.478  0.2686  0.3600 -0.9240
   51MOL    C9919199   0.262   5.532   2.552  0.8252 -0.4339  0.2787
   51MOL   C10019200   0.328   5.627   2.450  0.9441 -0.2271 -0.6582
   51MOL   C10119201   0.401   5.746   2.521  0.5882  0.0811 -0.1677
   51MOL   C10219202   0.475   5.835   2.422  0.7370  0.2579 -0.0718
   51MOL   O10319203   0.289   5.318   2.490  0.9573 -0.4346 -0.2033
   51MOL   H10419204   0.077   5.339   2.656  0.8850 -0.5632 -0.3415
   51MOL   H10519205   0.006   5.477   2.584 -0.1534 -1.1993  1.1576
   51MOL   H10619206   0.162   5.452   2.380  0.9296  0.9281 -0.9006
   51MOL   H10719207   0.319   5.501   2.639  0.8030 -0.9298  0.1182
   51MOL   H10819208   0.194   5.590   2.614 -0.3516  0.6182 -1.9328
   51MOL   H10919209   0.262   5.672   2.375 -2.5452 -1.5367  1.4927
   51MOL   H11019210   0.407   5.572   2.399 -0.7997 -2.5230 -0.9654
   51MOL   H11119211   0.474   5.717   2.596 -1.6459 -0.2853  1.9231
   51MOL   H11219212   0.325   5.799   2.578 -0.2799 -1.1958 -0.1037
   51MOL   H11319213   0.526   5.914   2.476  0.2839  0.8771 -0.5403
   51MOL   H11419214   0.536   5.771   2.357  0.4741  2.5951 -2.6844
   51MOL   H11519215   0.405   5.889   2.359 -1.6133 -2.0956  0.4350
   51MOL   C11619216   0.258   5.193   2.427 -0.2622  0.9564 -0.7775
   51MOL   C11719217   0.246   5.202   2.276  0.6371 -0.1518  0.6616
   51MOL   C11819218   0.154   5.093   2.220  0.3208 -0.2766 -0.8934
   51MOL   C11919219   0.100   5.118   2.080  0.5049  0.2855  0.3572
   51MOL   C12019220   0.023   4.999   2.028  0.6937 -0.0996  0.6801
   51MOL   C12119221   0.101   4.872   1.999 -0.1277  0.3515  0.6752
   51MOL   O12219222   0.375   5.199   2.207  0.6766  0.0428 -0.6076
   51MOL   H12319223   0.331   5.115   2.451 -3.9356 -2.7462 -1.0485
   51MOL   H12419224   0.167   5.146   2.463  0.8686 -1.9322 -1.5086
   51MOL   H12519225   0.198   5.296   2.248  0.6862 -0.8364 -1.7743
   51MOL   H12619226   0.209   4.999   2.209 -1.2450 -1.4321  0.9454
   51MOL   H12719227   0.078   5.066   2.293  1.8566 -1.7804  0.1899
   51MOL   H12819228   0.184   5.131   2.012  1.5594 -0.5825  1.4647
   51MOL   H12919229   0.039   5.208   2.081 -0.6897 -0.5165  1.0042
   51MOL   H13019230   7.734   4.989   2.107  0.7995 -1.2566  0.6445
   51MOL   H13119231   7.744   5.029   1.946 -0.0181  1.7333  1.8977
   51MOL   H13219232   0.186   4.905   1.938  0.8015  1.2356  2.4146
   51MOL   H13319233   0.138   4.823   2.088  0.0892 -1.4335 -0.3735
   51MOL   H13419234   0.048   4.794   1.945  0.9335 -0.4872  0.8271
   51MOL   C13519235   0.468   5.304   2.254  0.7253  0.1499  0.1918
   51MOL   C13619236   0.611   5.302   2.183  0.0026  0.0053 -0.0799
   51MOL   C13719237   0.734   5.348   2.270  0.6581 -0.3760 -0.6261
   51MOL   C13819238   0.740   5.499   2.298 -0.8703  0.1990  0.8920
   51MOL   C13919239   0.859   5.546   2.378  0.1085 -0.1583 -0.0705
   51MOL   C14019240   0.873   5.695   2.392  0.2047  0.4776 -0.3402
   51MOL   O14119241   0.617   5.383   2.063 -0.1870  0.7942  0.3892
   51MOL   H14219242   0.411   5.396   2.239  1.0897  0.8140  2.6844
   51MOL   H14319243   0.476   5.307   2.362  3.0798  2.3664  0.0058
   51MOL   H14419244   0.623   5.196   2.165 -1.9601 -0.1324 -0.7251
   51MOL   H14519245   0.735   5.299   2.368 -0.2042  1.6091  0.4194
   51MOL   H14619246   0.822   5.334   2.209  1.1435 -0.8446  0.1678
   51MOL   H14719247   0.645   5.526   2.344 -2.0731  1.7860 -2.3736
   51MOL   H14819248   0.743   5.556   2.205 -1.7108  0.1619  0.8395
   51MOL   H14919249   0.945   5.516   2.319 -0.2508 -2.0963  0.3571
   51MOL   H15019250   0.863   5.506   2.479 -0.8862  0.3083  0.1599
   51MOL   H15119251   0.956   5.721   2.457 -1.0945 -0.4661  1.7629
   51MOL   H15219252   0.902   5.740   2.297  1.9999 -0.2545 -0.1484
   51MOL   H15319253   0.779   5.737   2.428 -0.5965 -0.2515 -1.5193
   51MOL   C15419254   0.540   5.313   1.962 -0.3998 -0.1913  0.3560
   51MOL   C15519255   0.542   5.391   1.824 -0.3616  0.1212  0.5776
   51MOL   C15619256   0.676   5.372   1.754  0.2740 -0.4046  0.2105
   51MOL   C15719257   0.696   5.465   1.635  0.5479 -0.2547  0.1016
   51MOL   C15819258   0.850   5.474   1.594  0.4396 -0.3832 -0.6154
   51MOL   C15919259   0.870   5.541   1.458 -0.0050  0.5682 -0.1567
   51MOL   O16019260   0.437   5.341   1.741  0.1472 -0.0113  0.1406
   51MOL   H16119261   0.434   5.296   1.983 -0.2342  1.0380  2.3173
   51MOL   H16219262   0.585   5.215   1.943 -2.0855 -0.9017 -0.0672
   51MOL   H16319263   0.523   5.497   1.841 -0.0661  0.2721 -0.0267
   51MOL   H16419264   0.683   5.269   1.719 -1.1483 -1.0670  1.7975
   51MOL   H16519265   0.752   5.392   1.829  1.2490 -1.2760 -0.5274
   51MOL   H16619266   0.655   5.565   1.646  0.5712 -0.3892  1.4157
   51MOL   H16719267   0.639   5.424   1.551  0.0370  3.8131 -1.6612
   51MOL   H16819268   0.904   5.534   1.667  0.4915  0.3415 -1.2437
   51MOL   H16919269   0.875   5.369   1.577  1.9590 -0.1586  0.1400
   51MOL   H17019270   0.811   5.499   1.377  0.7215  0.9318 -0.8908
   51MOL   H17119271   0.975   5.525   1.435 -0.1744 -3.6437  1.5955
   51MOL   H17219272   0.848   5.648   1.453 -0.1311  0.6480  1.7369
   51MOL   C17319273   0.310   5.402   1.737 -0.1549  0.3775  0.1120
   51MOL   C17419274   0.209   5.318   1.662  0.7589  0.3740 -0.1348
   51MOL   C17519275   0.071   5.362   1.709  0.6434 -0.1857 -0.1550
   51MOL   C17619276   7.742   5.295   1.637 -0.4188  0.4794  0.4377
   51MOL   C17719277   7.615   5.363   1.697  0.7701  0.4673 -0.0410
   51MOL   C17819278   7.474   5.309   1.636 -0.2806  0.1618 -0.3799
   51MOL   O17919279   0.220   5.333   1.518 -0.2022 -0.0273 -0.1862
   51MOL   H18019280   0.338   5.498   1.694  1.8740  0.5360  1.7099
   51MOL   H18119281   0.278   5.431   1.837  1.3677  1.4300  0.3146
   51MOL   H18219282   0.213   5.212   1.686 -0.2701  0.5482  0.8833
   51MOL   H18319283   0.070   5.349   1.818 -0.1384  2.5125  0.2014
   51MOL   H18419284   0.063   5.469   1.690 -1.6558 -0.0790  1.1574
   51MOL   H18519285   7.757   5.314   1.531  0.1784  1.8722  0.7537
   51MOL   H18619286   7.757   5.188   1.649  0.8988  0.3365 -2.2310
   51MOL   H18719287   7.598   5.354   1.804 -2.4969 -0.6770 -0.5976
   51MOL   H18819288   7.614   5.470   1.674 -1.6296  0.9370  1.9574
   51MOL   H18919289   7.468   5.326   1.529  1.7450  1.2102 -0.3542
   51MOL   H19019290   7.386   5.360   1.676 -0.0020 -1.3461  2.3160
   51MOL   H19119291   7.470   5.204   1.665  0.7521  0.1829 -0.1344
   51MOL   C19219292   0.325   5.239   1.471  0.1342 -0.0758  0.4862
   51MOL   C19319293   0.344   5.249   1.318  0.1678 -0.0190 -0.5929
   51MOL   C19419294   0.210   5.256   1.243  0.2850  0.2159 -0.1687
   51MOL   C19519295   0.219   5.235   1.090  0.2380  0.5816 -0.2473
   51MOL   C19619296   0.100   5.274   1.006 -0.8697  0.2042 -0.0280
   51MOL   C19719297   7.768   5.177   1.011 -0.0386 -0.4329 -0.1142
   51MOL   O19819298   0.424   5.145   1.263  0.4713  0.0534  0.4814
   51MOL   H19919299   0.424   5.249   1.515  0.5562 -0.6364 -0.3193
   51MOL   H20019300   0.289   5.137   1.477  0.0586 -0.1242 -0.6283
   51MOL   H20119301   0.395   5.342   1.295 -1.1850  1.1069  0.8183
   51MOL   H20219302   0.128   5.190   1.272  1.1864 -0.8010  0.1134
   51MOL   H20319303   0.164   5.352   1.263  2.1856  1.3423 -1.0835
   51MOL   H20419304   0.265   5.140   1.064 -1.4241 -0.2945  0.0108
   51MOL   H20519305   0.298   5.300   1.052  1.4362 -0.0068  1.1859
   51MOL   H20619306   0.071   5.372   1.044 -1.0274  0.1237  0.0606
   51MOL   H20719307   0.125   5.282   0.901 -0.7678  1.9888  0.1165
   51MOL   H20819308   7.693   5.216   0.942  0.6754 -0.6140 -1.0026
   51MOL   H20919309   0.015   5.080   0.973 -3.0020 -1.6568  0.3355
   51MOL   H21019310   7.717   5.166   1.106  1.9251  1.3392  1.1848
   51MOL   C21119311   0.565   5.170   1.281  0.9073  0.2613 -0.3357
   51MOL   C21219312   0.635   5.043   1.332  0.5466 -0.1407 -0.1832
   51MOL   C21319313   0.590   4.995   1.471  0.6166  0.1247 -0.2550
   51MOL   C21419314   0.641   4.861   1.504 -0.1885  0.1702  0.2385
   51MOL   C21519315   0.600   4.795   1.632  0.5361 -0.9072 -0.3171
   51MOL   C21619316   0.649   4.652   1.654 -1.3124 -0.2735  0.3532
   51MOL   O21719317   0.776   5.052   1.308  0.0998 -0.6599 -0.1826
   51MOL   H21819318   0.575   5.255   1.348  0.9085  0.5923 -0.7536
   51MOL   H21919319   0.611   5.204   1.188  1.5939 -0.0356 -0.1073
   51MOL   H22019320   0.601   4.968   1.260  0.1205  0.0018 -0.1307
   51MOL   H22119321   0.611   5.064   1.553  1.9395  0.7035 -1.0552
   51MOL   H22219322   0.483   4.978   1.465  0.4565  0.6941  0.9038
   51MOL   H22319323   0.593   4.799   1.428  1.1904 -0.4383 -0.1493
   51MOL   H22419324   0.749   4.867   1.495  0.0590 -1.3480  1.8332
   51MOL   H22519325   0.610   4.868   1.712  0.9289 -1.5601  0.2291
   51MOL   H22619326   0.494   4.771   1.630 -0.0213  1.4988 -0.9022
   51MOL   H22719327   0.628   4.598   1.746 -1.6612 -1.2354 -0.2743
   51MOL   H22819328   0.758   4.657   1.653 -1.3525  0.6896 -0.9521
   51MOL   H22919329   0.605   4.588   1.577  1.1150 -1.4335 -0.1367
   51MOL   C23019330   0.843   5.173   1.343 -0.1119 -0.2437 -0.6778
   51MOL   C23119331   0.994   5.152   1.310 -0.0275  0.6044 -0.1132
   51MOL   C23219332   1.071   5.083   1.428  0.2356 -0.6518  0.5341
   51MOL   C23319333   1.220   5.088   1.441 -0.0405 -0.2801  0.0640
   51MOL   C23419334   1.275   5.004   1.557  0.3304 -0.8360  0.3285
   51MOL   C23519335   1.426   4.998   1.574 -0.1891  0.0516  0.0503
   51MOL   O23619336   1.045   5.284   1.299  0.2172  0.0682  0.3939
   51MOL   H23719337   0.813   5.259   1.282 -0.4782  1.4759  1.8345
   51MOL   H23819338   0.830   5.192   1.449  0.4818 -2.0411 -0.2744
   51MOL   H23919339   1.014   5.093   1.221 -1.0840 -1.1575  0.7946
   51MOL   H24019340   1.029   4.983   1.443 -1.5305  0.1664  1.1867
   51MOL   H24119341   1.047   5.145   1.514 -0.0754 -1.5965  1.1412
   51MOL   H24219342   1.255   5.190   1.448  1.0785 -0.6676  0.1456
   51MOL   H24319343   1.279   5.048   1.359  1.1077 -1.5436  1.4754
   51MOL   H24419344   1.232   5.055   1.643 -0.2473 -0.4264 -0.2012
   51MOL   H24519345   1.232   4.904   1.547 -0.3595 -0.5341  0.2071
   51MOL   H24619346   1.477   4.931   1.505  1.8161 -0.9769  2.4612
   51MOL   H24719347   1.453   4.959   1.673 -0.2893 -1.8955 -0.6805
   51MOL   H24819348   1.469   5.098   1.574 -0.6326  0.2636  2.0709
   51MOL   C24919349   1.130   5.302   1.199 -0.0292 -0.5076  0.8133
   51MOL   C25019350   1.166   5.448   1.183  0.2628 -0.2271 -0.5066
   51MOL   C25119351   1.246   5.509   1.293  0.8112  0.1578  0.0901
   51MOL   C25219352   1.297   5.653   1.259 -0.5395 -0.7169  0.2175
   51MOL   C25319353   1.392   5.667   1.140 -0.9135 -0.4709 -0.1044
   51MOL   C25419354   1.472   5.797   1.136  0.0838 -0.5449 -0.5718
   51MOL   O25519355   1.060   5.536   1.150  0.1150  0.0656  0.1613
   51MOL   H25619356   1.216   5.238   1.218 -2.5875 -3.9298  1.3361
   51MOL   H25719357   1.090   5.267   1.104  2.3367 -0.5413 -0.2045
   51MOL   H25819358   1.237   5.446   1.101 -1.1104 -0.6940 -1.7170
   51MOL   H25919359   1.186   5.499   1.384  0.6831 -0.8779 -0.1063
   51MOL   H26019360   1.334   5.446   1.306 -0.3695 -1.4479  0.3775
   51MOL   H26119361   1.209   5.716   1.245 -2.0324 -2.7211  0.2655
   51MOL   H26219362   1.352   5.691   1.345  0.2979 -2.0628  0.2945
   51MOL   H26319363   1.474   5.596   1.149 -0.2017 -0.2123 -3.9623
   51MOL   H26419364   1.351   5.644   1.042  0.1262  2.0279 -1.1566
   51MOL   H26519365   1.529   5.800   1.044  0.8801 -1.5490 -0.1144
   51MOL   H26619366   1.549   5.799   1.214  0.8849 -1.6749 -1.3243
   51MOL   H26719367   1.402   5.881   1.148  0.6227 -0.0622 -0.8054
   51MOL   C26819368   0.984   5.499   1.034 -0.2543 -0.5581  0.1057
   51MOL   C26919369   0.900   5.616   0.974 -0.1282 -0.8469  0.4522
   51MOL   C27019370   0.784   5.559   0.883 -0.1856 -0.1310  0.7867
   51MOL   C27119371   0.697   5.670   0.823  0.1820 -0.4343  1.0202
   51MOL   C27219372   0.573   5.623   0.746  0.5650  0.0778  0.6044
   51MOL   C27319373   0.597   5.547   0.610  0.4083 -0.0097  0.4196
   51MOL   O27419374   0.968   5.705   0.897  0.1079 -0.3542  0.3139
   51MOL   H27519375   0.925   5.414   1.069  0.1851 -1.6424 -1.7322
   51MOL   H27619376   1.063   5.461   0.970 -1.7321  0.8748 -2.6505
   51MOL   H27719377   0.844   5.662   1.055 -1.2921  2.0328 -1.8968
   51MOL   H27819378   0.835   5.511   0.799 -0.6562  1.5710 -0.4995
   51MOL   H27919379   0.732   5.474   0.926  0.1437 -1.0478 -0.5818
   51MOL   H28019380   0.669   5.746   0.896 -0.1488  0.3308  0.0984
   51MOL   H28119381   0.765   5.722   0.756  0.1537 -1.3590  0.2709
   51MOL   H28219382   0.517   5.557   0.813  2.0855 -0.0636  1.7623
   51MOL   H28319383   0.514   5.710   0.719 -0.6696 -1.2378 -1.0194
   51MOL   H28419384   0.504   5.513   0.563 -0.2802  1.7184  0.4975
   51MOL   H28519385   0.642   5.609   0.534  0.2951 -0.0286  0.3372
   51MOL   H28619386   0.658   5.457   0.622 -2.1535 -1.9444 -0.5889
   51MOL   C28719387   1.050   5.800   0.959  0.6235  0.3897  0.5269
   51MOL   C28819388   1.115   5.890   0.856  0.6579 -0.3823  0.1472
   51MOL   C28919389   1.232   5.974   0.917  1.0601 -0.1663 -0.3984
   51MOL   C29019390   1.284   6.088   0.831 -0.3134 -0.5019 -0.4504
   51MOL   C29119391   1.398   6.166   0.895 -1.0209  0.0723 -0.6885
   51MOL   C29219392   1.452   6.283   0.808 -0.5562  0.0768  0.4725
   51MOL   O29319393   1.026   5.987   0.812 -0.1041 -0.1538  0.1073
   51MOL   H29419394   1.138   5.755   1.005 -1.8627 -1.0496  4.1775
   51MOL   H29519395   0.993   5.854   1.035 -0.3107 -0.0511  0.1487
   51MOL   H29619396   1.162   5.828   0.779 -1.5433  0.0459 -1.5771
   51MOL   H29719397   1.198   6.029   1.005  1.6169 -1.2083  0.4773
   51MOL   H29819398   1.305   5.900   0.950 -0.6002 -1.5828  0.1883
   51MOL   H29919399   1.304   6.047   0.732  1.8664  1.2092 -0.7790
   51MOL   H30019400   1.208   6.163   0.808 -0.0212 -0.3066 -0.8060
   51MOL   H30119401   1.483   6.107   0.930 -1.3157 -0.3109 -0.6039
   51MOL   H30219402   1.357   6.215   0.984 -0.5191 -1.6966  0.5613
   51MOL   H30319403   1.398   6.305   0.715 -0.4630  0.1864  0.4445
   51MOL   H30419404   1.465   6.377   0.861  0.3179  0.5142 -0.4986
   51MOL   H30519405   1.540   6.239   0.762 -1.4580 -1.2620 -0.0229
   51MOL   C30619406   0.973   5.966   0.678 -0.0142 -0.5870 -0.7326
   51MOL   C30719407   0.852   6.061   0.642  0.2922  0.6927  0.4751
   51MOL   C30819408   0.736   5.992   0.563 -0.1830  0.1336  0.6769
   51MOL   C30919409   0.615   6.084   0.547  0.5277 -0.5280 -0.1728
   51MOL   C31019410   0.492   6.002   0.495 -0.2530  0.2121 -0.5313
   51MOL   C31119411   0.385   6.091   0.429 -0.0157  0.0899 -0.6657
   51MOL   O31219412   0.903   6.170   0.569  0.2532  0.3429 -0.2380
   51MOL   H31319413   1.059   5.964   0.611  0.8748  2.4080  0.2286
   51MOL   H31419414   0.924   5.869   0.677  1.5213 -1.3893  0.2348
   51MOL   H31519415   0.810   6.095   0.737 -2.1994 -1.2454  0.1400
   51MOL   H31619416   0.718   5.904   0.625  0.7446  0.3155  1.2177
   51MOL   H31719417   0.772   5.951   0.469  0.9598  0.9926  0.7242
   51MOL   H31819418   0.597   6.143   0.636  1.4949 -0.8291  0.2312
   51MOL   H31919419   0.643   6.162   0.476 -1.1691  2.0524  1.9139
   51MOL   H32019420   0.452   5.952   0.583  0.1517 -0.5283 -0.7692
   51MOL   H32119421   0.524   5.921   0.430 -0.6184 -0.2874 -0.0983
   51MOL   H32219422   0.358   6.160   0.509 -1.4641  2.3463 -3.0088
   51MOL   H32319423   0.431   6.147   0.348 -0.5254  1.7806  0.2042
   51MOL   H32419424   0.297   6.037   0.395 -0.6145  0.9808 -0.5507
   51MOL   C32519425   0.957   6.271   0.645  0.0893 -1.0459 -0.5640
   51MOL   C32619426   1.066   6.339   0.566  0.8041  0.0087 -0.9136
   51MOL   C32719427   1.160   6.246   0.488  0.1308 -0.4781  0.2734
   51MOL   C32819428   1.276   6.330   0.411  0.3686 -0.4008 -0.8833
   51MOL   C32919429   1.368   6.222   0.343 -0.3990 -0.2869 -0.5586
   51MOL   C33019430   1.403   6.279   0.201  0.2700  0.7297  0.0801
   51MOL   O33119431   1.133   6.434   0.655  0.4042 -0.3612  0.3387
   51MOL   H33219432   0.981   6.260   0.751  0.8229 -0.3697 -0.6571
   51MOL   H33319433   0.871   6.337   0.643  1.2667  0.6020  1.6019
   51MOL   H33419434   1.017   6.399   0.489  1.6548 -0.5566 -1.9114
   51MOL   H33519435   1.212   6.181   0.560 -1.5392 -2.9083 -0.6335
   51MOL   H33619436   1.104   6.178   0.423 -1.9960  2.3792 -0.9493
   51MOL   H33719437   1.235   6.402   0.341  1.4821 -0.3510 -1.4884
   51MOL   H33819438   1.330   6.394   0.482 -0.9300 -0.7540  0.4554
   51MOL   H33919439   1.457   6.209   0.404  0.8866  2.4469 -1.7640
   51MOL   H34019440   1.311   6.131   0.323  1.2242 -0.9472 -2.4365
   51MOL   H34119441   1.446   6.374   0.236  0.1032  0.0733  2.1328
   51MOL   H34219442   1.480   6.221   0.150  1.5520 -0.5382  3.3740
   51MOL   H34319443   1.310   6.294   0.147 -0.6760 -1.0443  1.1761
   51MOL   C34419444   1.126   6.568   0.613  0.0588 -0.1857  0.6871
   51MOL   C34519445   1.249   6.638   0.676 -0.1124 -0.6361 -0.0525
   51MOL   C34619446   1.272   6.774   0.602  0.7973 -0.0071 -0.5278
   51MOL   C34719447   1.377   6.870   0.663  0.2966 -0.4007  0.8950
   51MOL   C34819448   1.408   6.995   0.574  0.3638  0.0143 -0.5417
   51MOL   C34919449   1.513   7.076   0.647 -0.2619 -0.4901  0.0660
   51MOL   O35019450   1.225   6.688   0.807  0.3721 -0.2295  0.4421
   51MOL   H35119451   1.038   6.618   0.654  0.0179 -1.0492  1.6922
   51MOL   H35219452   1.120   6.579   0.505 -0.3294  2.0714  0.9020
   51MOL   H35319453   1.339   6.576   0.669  0.9203  0.4026  3.2687
   51MOL   H35419454   1.176   6.824   0.586  1.2846  1.1654  0.0944
   51MOL   H35519455   1.314   6.759   0.503 -1.0926  3.0458 -1.8792
   51MOL   H35619456   1.471   6.817   0.676  1.5892  1.7057  0.2632
   51MOL   H35719457   1.341   6.917   0.755  1.0099  1.7731  0.0805
   51MOL   H35819458   1.322   7.061   0.558  1.6087  1.9818  0.6801
   51MOL   H35919459   1.455   6.969   0.480  1.9515  2.2409 -0.4099
   51MOL   H36019460   1.608   7.034   0.681 -0.0504  0.8139  1.1397
   51MOL   H36119461   1.468   7.121   0.736 -1.2141 -1.2114 -0.0426
   51MOL   H36219462   1.533   7.164   0.586 -1.2486  0.5663  1.2493
   51MOL   C36319463   1.199   6.586   0.904 -0.1022 -0.1967 -0.0642
   51MOL   C36419464   1.252   6.645   1.029  0.5071 -0.0073 -0.7041
   51MOL   C36519465   1.391   6.702   1.008  0.2131  0.6584 -0.2824
   51MOL   C36619466   1.475   6.730   1.131 -0.0626 -0.3906  1.3280
   51MOL   C36719467   1.513   6.608   1.223 -0.0658  0.8090  0.6840
   51MOL   C36819468   1.619   6.520   1.154  0.6014  0.0174  0.1079
   51MOL   O36919469   1.169   6.742   1.085  0.1273  0.4603  0.1859
   51MOL   H37019470   1.243   6.488   0.886 -0.9090 -0.4709 -0.5663
   51MOL   H37119471   1.095   6.553   0.909 -0.0677 -0.2111  0.6601
   51MOL   H37219472   1.263   6.560   1.095  3.4678  0.3748 -0.6385
   51MOL   H37319473   1.439   6.629   0.943 -1.8838 -0.4111 -0.6639
   51MOL   H37419474   1.390   6.794   0.949 -0.0534  1.1220  0.4294
   51MOL   H37519475   1.563   6.786   1.097  0.2297 -1.5765  0.1196
   51MOL   H37619476   1.409   6.790   1.194 -1.7976 -2.0109  1.0928
   51MOL   H37719477   1.539   6.636   1.325 -1.7242 -0.1464  1.3864
   51MOL   H37819478   1.435   6.537   1.247 -0.5873  2.1392  3.1403
   51MOL   H37919479   1.568   6.479   1.067  1.2245  1.0367 -0.7492
   51MOL   H38019480   1.710   6.574   1.128 -0.0634  1.0230 -0.1412
   51MOL   H38119481   1.629   6.441   1.228 -3.0215 -0.5994  0.0182
   51MOL   H38219482   1.122   6.793   1.021  1.1209  1.3681  0.1568
   52MOL     C119483   5.267   5.292   5.309  0.1019  0.0356 -0.3379
   52MOL     C219484   5.182   5.360   5.197  0.3381  0.4151 -0.0695
   52MOL     C319485   5.208   5.292   5.059 -0.0607 -0.0843  0.1433
   52MOL     C419486   5.112   5.334   4.944 -0.4856 -0.2500  0.7866
   52MOL     C519487   5.130   5.256   4.816  0.1206 -0.0150  1.0862
   52MOL     C619488   5.031   5.278   4.697 -0.0056 -0.9090 -0.3565
   52MOL     O719489   5.041   5.337   5.233 -0.2517  0.5545  0.3903
   52MOL     H819490   5.370   5.272   5.280  0.3693  0.3243  0.4023
   52MOL     H919491   5.218   5.201   5.343 -3.3169  1.7446 -0.5211
   52MOL    H1019492   5.200   5.468   5.196  0.0720  0.5242  2.7180
   52MOL    H1119493   5.310   5.318   5.029 -0.3217 -0.1007 -0.7808
   52MOL    H1219494   5.209   5.183   5.059 -0.5442 -0.1665 -3.4303
   52MOL    H1319495   5.008   5.334   4.979 -1.2692 -2.3783 -1.4227
   52MOL    H1419496   5.140   5.438   4.930  2.6997 -1.0419  0.9280
   52MOL    H1519497   5.228   5.260   4.770 -0.7978 -2.3134 -1.1961
   52MOL    H1619498   5.115   5.152   4.844 -0.4149 -0.5389 -1.0978
   52MOL    H1719499   5.045   5.202   4.621  0.8158  0.1118 -1.2439
   52MOL    H1819500   4.927   5.278   4.732 -0.6988 -2.8224 -2.2478
   52MOL    H1919501   5.047   5.377   4.654 -1.0099 -0.6323 -0.1124
   52MOL    H2019502   5.280   5.367   5.386  0.3504 -2.1818  1.8387
   52MOL    C2119503   4.982   5.446   5.296  0.4787  0.1469 -0.1569
   52MOL    C2219504   4.891   5.414   5.412 -0.1594  0.0458  0.0665
   52MOL    C2319505   4.976   5.368   5.537  0.2147  0.6740  0.4907
   52MOL    C2419506   4.900   5.330   5.668  0.2507  0.2347  0.3263
   52MOL    C2519507   4.989   5.309   5.793 -0.3469 -0.3015  0.2314
   52MOL    C2619508   4.915   5.265   5.920  0.0865  0.1745  0.2237
   52MOL    O2719509   4.831   5.537   5.455 -0.1201 -0.2554 -0.6705
   52MOL    H2819510   5.053   5.519   5.334  1.0534 -0.5826  0.1950
   52MOL    H2919511   4.932   5.504   5.219 -1.3562  2.6060  2.7428
   52MOL    H3019512   4.814   5.340   5.392 -0.2898  0.0433  0.5509
   52MOL    H3119513   5.042   5.452   5.558  1.9097  0.1525 -2.4323
   52MOL    H3219514   5.047   5.290   5.507 -2.2216 -0.7148 -1.8892
   52MOL    H3319515   4.846   5.237   5.647  0.9192 -0.3081  0.9946
   52MOL    H3419516   4.834   5.414   5.691  1.5519  0.9300  1.6280
   52MOL    H3519517   5.063   5.233   5.765  2.3264  2.6263 -0.9449
   52MOL    H3619518   5.040   5.402   5.816 -0.8527  0.0185  0.0708
   52MOL    H3719519   4.888   5.159   5.916  2.0733 -0.3099 -1.1732
   52MOL    H3819520   4.826   5.324   5.940 -0.1409 -1.4852  4.6346
   52MOL    H3919521   4.975   5.278   6.010 -0.3154 -0.5228  0.5959
   52MOL    C4019522   4.690   5.542   5.435 -0.5022 -0.3575  0.1013
   52MOL    C4119523   4.635   5.692   5.426 -0.2305 -0.2863 -0.4777
   52MOL    C4219524   4.617   5.763   5.566 -0.6575 -0.3965  0.3179
   52MOL    C4319525   4.653   5.912   5.539  0.3383  0.8655 -0.8205
   52MOL    C4419526   4.626   6.003   5.660 -0.2549 -0.5789  0.5691
   52MOL    C4519527   4.695   6.136   5.651  0.3405 -0.1309  0.4335
   52MOL    O4619528   4.517   5.688   5.349  0.2366  0.3637  0.0788
   52MOL    H4719529   4.638   5.497   5.519  1.4526  0.6395  1.8829
   52MOL    H4819530   4.654   5.497   5.342  1.2139 -0.5196 -0.4942
   52MOL    H4919531   4.709   5.741   5.363 -0.0649  2.3815  1.6750
   52MOL    H5019532   4.520   5.747   5.613 -1.3423 -1.6218 -1.4927
   52MOL    H5119533   4.696   5.722   5.629 -1.2961 -1.9505  0.1285
   52MOL    H5219534   4.585   5.953   5.465 -2.3325  0.7148  1.4467
   52MOL    H5319535   4.757   5.927   5.512  0.5042 -0.0557 -0.7175
   52MOL    H5419536   4.526   6.042   5.676  0.8490  3.4297 -1.5698
   52MOL    H5519537   4.669   5.956   5.748 -2.0246 -0.3342  1.5771
   52MOL    H5619538   4.651   6.191   5.568  3.8533 -0.8358 -2.0088
   52MOL    H5719539   4.681   6.189   5.745 -1.9653  0.6132 -0.2968
   52MOL    H5819540   4.803   6.122   5.645  0.0960 -1.0008 -3.1458
   52MOL    C5919541   4.493   5.799   5.262 -0.6986  0.2184  0.0227
   52MOL    C6019542   4.384   5.772   5.158 -0.3998 -0.1198  0.6989
   52MOL    C6119543   4.314   5.892   5.100  0.3020  0.0477 -0.2933
   52MOL    C6219544   4.203   5.947   5.191 -0.1401  0.1866 -0.5791
   52MOL    C6319545   4.126   6.070   5.133 -0.1304 -0.7467  0.1085
   52MOL    C6419546   4.058   6.041   4.995  0.4317  0.2655  0.1388
   52MOL    O6519547   4.446   5.695   5.051  0.1504  0.5473  0.7597
   52MOL    H6619548   4.586   5.827   5.213 -0.2530 -1.2901 -0.0221
   52MOL    H6719549   4.455   5.881   5.323  2.3911  1.6191  0.1340
   52MOL    H6819550   4.309   5.712   5.209 -0.3378  1.0397  2.1805
   52MOL    H6919551   4.270   5.860   5.006  1.8643  0.6199 -1.2476
   52MOL    H7019552   4.386   5.973   5.087 -0.8020  1.1909  0.6114
   52MOL    H7119553   4.261   5.982   5.277 -0.8639  0.1486 -0.0678
   52MOL    H7219554   4.127   5.877   5.225  0.0019  0.2599 -0.1090
   52MOL    H7319555   4.195   6.154   5.136  1.3724 -1.9822  0.3151
   52MOL    H7419556   4.048   6.097   5.205  1.2515  0.9118  1.0024
   52MOL    H7519557   3.991   6.121   4.961 -1.6357 -2.1423 -1.6301
   52MOL    H7619558   4.143   6.045   4.928 -0.2783  2.0634 -0.6962
   52MOL    H7719559   4.011   5.945   4.978  0.6881  0.4341 -1.6272
   52MOL    C7819560   4.451   5.552   5.070  0.2005 -0.7839 -0.2644
   52MOL    C7919561   4.520   5.466   4.968  0.4404  0.1327  0.2380
   52MOL    C8019562   4.445   5.465   4.831 -0.2309 -0.0228  0.6882
   52MOL    C8119563   4.532   5.403   4.720  0.0419 -0.6395 -0.1593
   52MOL    C8219564   4.566   5.253   4.730  0.4153 -0.4602  0.2822
   52MOL    C8319565   4.653   5.210   4.608  0.0393 -1.0574 -0.2632
   52MOL    O8419566   4.542   5.337   5.026  0.4629  0.6235  0.3460
   52MOL    H8519567   4.348   5.524   5.088  0.7307 -2.4422  0.3557
   52MOL    H8619568   4.500   5.533   5.166 -0.2705 -0.2270  0.0897
   52MOL    H8719569   4.614   5.520   4.952 -0.6977  1.8979 -0.7202
   52MOL    H8819570   4.346   5.427   4.856 -0.9416  1.9904  1.1246
   52MOL    H8919571   4.425   5.569   4.802  0.9294 -0.9752 -3.8712
   52MOL    H9019572   4.627   5.455   4.715 -0.2998  0.1938  1.5476
   52MOL    H9119573   4.488   5.416   4.622 -1.2755 -0.0216  0.5074
   52MOL    H9219574   4.633   5.236   4.814  0.1433 -3.3451 -0.0426
   52MOL    H9319575   4.477   5.191   4.737  0.1987 -0.0878  0.8115
   52MOL    H9419576   4.602   5.236   4.516  0.6085  0.8933 -0.0492
   52MOL    H9519577   4.679   5.105   4.600 -2.8127 -1.9410  1.1494
   52MOL    H9619578   4.742   5.273   4.606 -2.0072  1.9673 -0.1849
   52MOL    C9719579   4.676   5.310   5.066 -0.3086 -1.2772  0.3355
   52MOL    C9819580   4.676   5.160   5.108  0.0342 -0.0810  0.2263
   52MOL    C9919581   4.821   5.112   5.111 -0.2008  0.4451  0.3866
   52MOL   C10019582   4.839   4.959   5.130  0.3541 -0.3653 -0.3781
   52MOL   C10119583   4.975   4.902   5.101 -0.5790  0.3160 -0.4652
   52MOL   C10219584   4.981   4.754   5.133  0.1530 -0.4350 -0.0170
   52MOL   O10319585   4.609   5.149   5.234  0.1875 -0.6944  0.3889
   52MOL   H10419586   4.714   5.377   5.143 -1.7835 -0.7193  0.5935
   52MOL   H10519587   4.728   5.324   4.972 -0.2489 -0.5821  0.4712
   52MOL   H10619588   4.634   5.103   5.025 -1.9469  0.3729  0.8985
   52MOL   H10719589   4.869   5.168   5.192 -1.9046  2.2261  0.1920
   52MOL   H10819590   4.877   5.132   5.020 -1.0909 -0.7653 -0.4328
   52MOL   H10919591   4.774   4.909   5.058  0.4859 -1.4866  0.2690
   52MOL   H11019592   4.806   4.935   5.231  1.4242  2.4796  0.6895
   52MOL   H11119593   5.053   4.949   5.162  1.5816 -1.8118 -1.4920
   52MOL   H11219594   5.006   4.912   4.997  2.8530 -1.8752  0.2321
   52MOL   H11319595   4.911   4.698   5.071 -0.3579  0.7122 -0.5139
   52MOL   H11419596   5.075   4.703   5.111  0.4768  0.9925 -2.2060
   52MOL   H11519597   4.967   4.730   5.238 -2.3663 -0.5094 -0.3467
   52MOL   C11619598   4.505   5.048   5.231  0.2638  0.4483 -0.4003
   52MOL   C11719599   4.462   5.015   5.374  0.2968 -1.0834  0.1343
   52MOL   C11819600   4.417   4.869   5.370 -0.3066  0.0608  0.3933
   52MOL   C11919601   4.373   4.821   5.508  0.0570  0.4258 -0.3167
   52MOL   C12019602   4.354   4.667   5.519  0.8245  0.2857  0.0742
   52MOL   C12119603   4.283   4.622   5.650  0.3442 -0.3671  0.4456
   52MOL   O12219604   4.352   5.096   5.424  0.1524  0.0308 -0.4316
   52MOL   H12319605   4.415   5.075   5.176  0.1510  0.8519 -0.0196
   52MOL   H12419606   4.547   4.956   5.192 -1.1951 -0.5270  0.2883
   52MOL   H12519607   4.548   5.020   5.440  1.9381 -0.8725 -1.9738
   52MOL   H12619608   4.334   4.860   5.300 -1.1565  1.2120  1.2394
   52MOL   H12719609   4.498   4.809   5.329  0.1802  0.6203  0.5227
   52MOL   H12819610   4.276   4.863   5.536 -0.8429  0.0457 -2.7334
   52MOL   H12919611   4.438   4.859   5.586 -0.0290  3.2554 -1.5886
   52MOL   H13019612   4.297   4.629   5.434  1.6531  1.3960 -0.9843
   52MOL   H13119613   4.455   4.626   5.514  1.3168  1.1325  2.4353
   52MOL   H13219614   4.318   4.525   5.685  1.7691  0.5880  1.7544
   52MOL   H13319615   4.306   4.699   5.724 -1.0019 -0.3366  0.8387
   52MOL   H13419616   4.175   4.625   5.640  0.2191  1.6325  2.0780
   52MOL   C13519617   4.370   5.236   5.417 -0.2566  0.2901 -0.0556
   52MOL   C13619618   4.271   5.321   5.500  0.1163 -0.0468 -0.4300
   52MOL   C13719619   4.293   5.466   5.469  0.8532 -0.5210  0.6341
   52MOL   C13819620   4.212   5.560   5.552  0.5531 -0.4283 -0.4019
   52MOL   C13919621   4.211   5.707   5.526 -0.1939 -0.2113  0.4376
   52MOL   C14019622   4.139   5.771   5.652  0.6042 -0.0728  0.1707
   52MOL   O14119623   4.288   5.284   5.634  0.0860 -0.3275 -0.3858
   52MOL   H14219624   4.470   5.262   5.452 -0.0545  1.7765 -1.6268
   52MOL   H14319625   4.368   5.266   5.312  1.1091  3.0763  0.6572
   52MOL   H14419626   4.167   5.303   5.473  0.2840 -2.5209  0.4163
   52MOL   H14519627   4.400   5.482   5.483  0.4602  0.6622  2.4147
   52MOL   H14619628   4.285   5.474   5.360  2.9100  0.2985  0.5257
   52MOL   H14719629   4.252   5.545   5.652 -0.3841  0.6941  0.1564
   52MOL   H14819630   4.107   5.532   5.551  0.4310  0.0011 -2.7459
   52MOL   H14919631   4.157   5.724   5.433 -1.3374  0.1334  1.1567
   52MOL   H15019632   4.312   5.746   5.518 -0.3610 -0.2678 -2.4178
   52MOL   H15119633   4.031   5.766   5.637  0.5514  0.2076  0.4383
   52MOL   H15219634   4.176   5.735   5.748 -0.9431  2.8762  1.9597
   52MOL   H15319635   4.158   5.878   5.647 -0.3499  0.1319  0.6945
   52MOL   C15419636   4.208   5.172   5.670  0.5928  0.6258  0.1981
   52MOL   C15519637   4.213   5.148   5.824  0.1049  0.2265  0.1057
   52MOL   C15619638   4.089   5.065   5.874  0.7148  0.3738 -0.4602
   52MOL   C15719639   4.061   4.942   5.794 -0.0108  0.2781 -0.0738
   52MOL   C15819640   3.950   4.863   5.863 -0.5999  0.0450 -0.2982
   52MOL   C15919641   3.812   4.926   5.840 -0.4635  0.7769 -0.1173
   52MOL   O16019642   4.319   5.069   5.874 -0.3533 -0.1470 -0.1780
   52MOL   H16119643   4.246   5.084   5.618 -1.1985 -1.7765  2.8192
   52MOL   H16219644   4.102   5.183   5.650  0.5446  1.2149  0.7714
   52MOL   H16319645   4.213   5.242   5.880 -3.9382  0.0708  0.5673
   52MOL   H16419646   3.997   5.123   5.879  0.2967 -0.3841  1.1878
   52MOL   H16519647   4.110   5.024   5.973  0.1064 -0.7948 -0.8089
   52MOL   H16619648   4.151   4.882   5.784 -0.2860 -0.3142  1.0228
   52MOL   H16719649   4.044   4.956   5.687  1.0689 -0.6095 -0.3685
   52MOL   H16819650   3.950   4.757   5.838 -1.8766  0.4169 -2.0027
   52MOL   H16919651   3.956   4.874   5.971  1.7708 -1.8030 -0.2132
   52MOL   H17019652   3.737   4.867   5.892  1.2340  0.7139  2.3558
   52MOL   H17119653   3.777   4.927   5.737 -2.1477 -3.2835  0.3222
   52MOL   H17219654   3.808   5.025   5.884 -0.3719 -0.5297  2.9828
   52MOL   C17319655   4.440   5.135   5.897 -1.0296  0.3517 -0.0862
   52MOL   C17419656   4.546   5.035   5.929  0.0299 -0.4058 -0.1065
   52MOL   C17519657   4.630   5.000   5.801  0.0349 -0.1497  0.2079
   52MOL   C17619658   4.724   4.890   5.835  0.7681  0.6414  0.5022
   52MOL   C17719659   4.819   4.842   5.723 -1.2480 -0.9094  0.6349
   52MOL   C17819660   4.745   4.740   5.635  0.0715 -0.6674 -0.0282
   52MOL   O17919661   4.635   5.073   6.038 -0.3878  0.0231 -0.1700
   52MOL   H18019662   4.428   5.196   5.986  0.4354  0.0099  0.3605
   52MOL   H18119663   4.473   5.187   5.807 -0.0163  1.2584  0.8087
   52MOL   H18219664   4.481   4.951   5.953 -1.2138  0.0436 -1.7493
   52MOL   H18319665   4.564   4.959   5.725 -0.1818 -1.2409  0.9601
   52MOL   H18419666   4.681   5.080   5.749 -0.6630 -0.9897 -1.8322
   52MOL   H18519667   4.784   4.937   5.913  0.0438  1.2019  0.7265
   52MOL   H18619668   4.668   4.803   5.870  0.5326 -0.0485 -1.5485
   52MOL   H18719669   4.853   4.918   5.653 -3.1398 -1.7397 -1.2610
   52MOL   H18819670   4.908   4.791   5.760 -1.1191 -0.9574  0.2527
   52MOL   H18919671   4.788   4.724   5.536 -0.9148  0.1350 -0.5938
   52MOL   H19019672   4.644   4.779   5.633  0.5638  0.6297 -0.1529
   52MOL   H19119673   4.740   4.641   5.681 -1.1195 -1.5386 -1.9802
   52MOL   C19219674   4.592   5.034   6.166  0.2894 -0.9087 -0.0128
   52MOL   C19319675   4.681   5.105   6.274 -0.3302 -0.4299  0.7435
   52MOL   C19419676   4.668   5.250   6.253 -0.1123 -0.1773 -0.0955
   52MOL   C19519677   4.722   5.331   6.375 -0.3281 -0.1323  0.1242
   52MOL   C19619678   4.714   5.487   6.349  0.0544  1.0329  0.2043
   52MOL   C19719679   4.835   5.533   6.277  0.5532 -0.1322 -0.0781
   52MOL   O19819680   4.821   5.068   6.269 -0.3211  0.6388 -0.6256
   52MOL   H19919681   4.492   5.075   6.179  0.7205  0.6953 -1.6341
   52MOL   H20019682   4.590   4.925   6.163 -2.1201 -0.8582 -1.4673
   52MOL   H20119683   4.638   5.079   6.371  0.1583 -0.1772  1.0221
   52MOL   H20219684   4.722   5.273   6.161 -0.8838  1.4873 -0.1595
   52MOL   H20319685   4.563   5.273   6.237 -0.4079 -1.8957 -0.7633
   52MOL   H20419686   4.827   5.305   6.389 -0.3545 -0.7056 -0.7003
   52MOL   H20519687   4.669   5.305   6.467 -1.3325 -3.3067 -1.2533
   52MOL   H20619688   4.625   5.512   6.292 -1.0715  2.0423  2.3296
   52MOL   H20719689   4.704   5.536   6.446  1.2366  0.0121  0.8696
   52MOL   H20819690   4.887   5.448   6.232  0.2856 -1.4406  2.0283
   52MOL   H20919691   4.805   5.613   6.209 -0.0559 -0.5780 -0.3334
   52MOL   H21019692   4.909   5.571   6.348 -0.9531 -2.1548  2.6483
   52MOL   C21119693   4.844   4.958   6.356  0.1353 -0.0595 -0.3980
   52MOL   C21219694   4.988   4.921   6.329  0.0223 -0.6353 -0.6422
   52MOL   C21319695   5.027   4.894   6.183  0.5268 -0.2566  0.7669
   52MOL   C21419696   5.180   4.870   6.161  0.4691 -0.3717  0.6215
   52MOL   C21519697   5.212   4.906   6.010 -0.6637 -0.0173  0.3562
   52MOL   C21619698   5.178   4.795   5.908 -0.5497 -0.0093 -0.1590
   52MOL   O21719699   5.028   4.806   6.400 -0.4145  0.1444 -0.5980
   52MOL   H21819700   4.777   4.876   6.332 -0.0400 -0.1042  0.2193
   52MOL   H21919701   4.822   4.988   6.459 -2.7713  1.3683 -1.3881
   52MOL   H22019702   5.050   5.004   6.362 -1.2376  0.2708 -0.5345
   52MOL   H22119703   4.973   4.811   6.138  3.3908  0.6397 -4.7161
   52MOL   H22219704   4.988   4.983   6.133 -0.2825 -1.3230 -0.5343
   52MOL   H22319705   5.237   4.940   6.223  1.2711  0.0292 -0.5622
   52MOL   H22419706   5.223   4.772   6.179 -0.5772 -1.1896 -1.2292
   52MOL   H22519707   5.167   5.000   5.977 -1.2583 -1.6934 -3.9207
   52MOL   H22619708   5.320   4.922   6.008 -0.6848  0.3966  1.7397
   52MOL   H22719709   5.239   4.709   5.933 -0.6706  0.2137  0.9454
   52MOL   H22819710   5.200   4.812   5.802  0.2064  1.2233  0.1828
   52MOL   H22919711   5.073   4.766   5.907 -0.4789 -0.4321  2.2924
   52MOL   C23019712   5.052   4.825   6.538  0.0914 -0.5881  0.2940
   52MOL   C23119713   5.085   4.694   6.611  0.1877  0.0495  0.0734
   52MOL   C23219714   5.063   4.708   6.762 -0.6188  0.0185  0.0471
   52MOL   C23319715   4.919   4.710   6.813 -0.1157 -0.0960  0.5511
   52MOL   C23419716   4.915   4.720   6.971  0.4169 -0.7405 -0.1857
   52MOL   C23519717   4.776   4.758   7.018  0.3611  0.3382 -0.6088
   52MOL   O23619718   5.223   4.657   6.591 -0.0454  0.2167  0.0068
   52MOL   H23719719   5.128   4.898   6.566 -1.8955  0.9246  1.9421
   52MOL   H23819720   4.963   4.871   6.581  0.8024 -0.3995  1.5853
   52MOL   H23919721   5.023   4.610   6.580 -0.5695  0.5437  0.2151
   52MOL   H24019722   5.107   4.795   6.812 -1.8411  0.1926  0.8458
   52MOL   H24119723   5.122   4.630   6.811  0.2865 -0.0270 -1.1084
   52MOL   H24219724   4.869   4.615   6.797 -0.0375 -0.0454  0.0140
   52MOL   H24319725   4.859   4.786   6.763  0.7686 -0.2238 -0.7398
   52MOL   H24419726   4.946   4.626   7.017 -0.3218 -0.5639  0.6780
   52MOL   H24519727   4.988   4.790   7.014 -0.9405  0.8807 -0.4684
   52MOL   H24619728   4.737   4.852   6.980 -1.3872 -0.8299 -1.7926
   52MOL   H24719729   4.770   4.754   7.127  0.5206  0.3111 -0.6010
   52MOL   H24819730   4.708   4.681   6.981  1.9455 -0.2691 -2.3605
   52MOL   C24919731   5.261   4.612   6.461  0.0984 -0.4633  0.1671
   52MOL   C25019732   5.378   4.510   6.466  0.2089 -0.5648 -0.6281
   52MOL   C25119733   5.457   4.499   6.338 -0.3374  0.4295 -0.0738
   52MOL   C25219734   5.588   4.416   6.362 -0.0641 -0.7308  0.2796
   52MOL   C25319735   5.635   4.349   6.230  0.5489  0.0772  0.1050
   52MOL   C25419736   5.748   4.244   6.248  0.7803 -0.0005 -0.1357
   52MOL   O25519737   5.340   4.378   6.513  0.0689 -0.0075  0.3335
   52MOL   H25619738   5.173   4.578   6.408 -1.2143  0.9032  1.4089
   52MOL   H25719739   5.302   4.695   6.403  0.8880 -1.5671 -0.8664
   52MOL   H25819740   5.445   4.564   6.533 -1.1666 -1.9974  2.0124
   52MOL   H25919741   5.400   4.452   6.257  0.6254  0.4110 -0.7509
   52MOL   H26019742   5.498   4.592   6.300 -3.8770  1.2673 -2.1018
   52MOL   H26119743   5.665   4.473   6.414 -1.1287  0.3939  0.6642
   52MOL   H26219744   5.564   4.338   6.434 -0.7137 -0.2927  0.5473
   52MOL   H26319745   5.551   4.296   6.184  1.7753 -1.2227 -0.6868
   52MOL   H26419746   5.663   4.432   6.165  1.4860  2.0095  2.8837
   52MOL   H26519747   5.841   4.292   6.279  1.3608 -0.4781 -1.1074
   52MOL   H26619748   5.771   4.172   6.170  1.9006  0.6627 -0.4411
   52MOL   H26719749   5.721   4.178   6.330  0.0604  2.9500  2.0824
   52MOL   C26819750   5.305   4.381   6.651  0.7732  0.0035 -0.0223
   52MOL   C26919751   5.325   4.234   6.703  0.0427 -0.0322  0.1914
   52MOL   C27019752   5.222   4.130   6.663 -0.4424 -0.7744  0.8678
   52MOL   C27119753   5.240   3.990   6.715  0.2537  0.9197  0.4060
   52MOL   C27219754   5.127   3.889   6.671 -0.4501  0.3114 -0.1759
   52MOL   C27319755   5.150   3.749   6.723 -0.1887  0.3147  0.1171
   52MOL   O27419756   5.347   4.239   6.844 -0.3711  0.1959 -0.1713
   52MOL   H27519757   5.208   4.422   6.679 -0.2014 -1.7176 -0.7603
   52MOL   H27619758   5.378   4.445   6.700  1.6936 -0.2729 -1.0149
   52MOL   H27719759   5.417   4.206   6.650 -1.4095 -0.6645 -2.0571
   52MOL   H27819760   5.121   4.157   6.696 -1.1654  0.2463 -2.0296
   52MOL   H27919761   5.218   4.131   6.554  0.7897  1.1782  0.8065
   52MOL   H28019762   5.331   3.938   6.686  0.4213  1.7043 -0.4891
   52MOL   H28119763   5.233   3.986   6.823  0.8275  0.7849  0.4367
   52MOL   H28219764   5.029   3.923   6.703 -0.4013 -1.1530  1.6105
   52MOL   H28319765   5.123   3.899   6.562  1.0890  1.2213 -0.1640
   52MOL   H28419766   5.250   3.720   6.688 -0.6806  0.1083 -1.1694
   52MOL   H28519767   5.145   3.742   6.831 -0.2851 -0.5968  0.0601
   52MOL   H28619768   5.076   3.691   6.668 -0.9508  0.4509  0.9958
   52MOL   C28719769   5.466   4.302   6.884 -0.2133 -0.3735  0.1379
   52MOL   C28819770   5.527   4.225   7.006  0.8924  0.0965 -0.2495
   52MOL   C28919771   5.622   4.314   7.088  0.6190  0.0229 -0.5601
   52MOL   C29019772   5.549   4.409   7.181  0.0180  0.4315  0.2557
   52MOL   C29119773   5.637   4.463   7.291  0.3128 -0.6646  0.2842
   52MOL   C29219774   5.557   4.495   7.419  0.2699  0.1983  0.2510
   52MOL   O29319775   5.602   4.121   6.940 -0.1764 -0.0556  0.2459
   52MOL   H29419776   5.424   4.399   6.910  2.1906  0.7060  0.1284
   52MOL   H29519777   5.535   4.315   6.801 -0.5472 -0.0453 -0.0887
   52MOL   H29619778   5.445   4.180   7.062  0.1061  1.0462 -0.6166
   52MOL   H29719779   5.687   4.246   7.143  1.3556  0.9601 -0.2459
   52MOL   H29819780   5.682   4.375   7.020 -2.2247  0.8791 -2.3706
   52MOL   H29919781   5.503   4.497   7.136  1.5402  0.0027 -2.2361
   52MOL   H30019782   5.474   4.354   7.237  1.3338 -2.3104 -0.5735
   52MOL   H30119783   5.698   4.552   7.271  0.2524 -0.0806  2.6257
   52MOL   H30219784   5.717   4.393   7.316  1.7974 -0.0485 -2.5406
   52MOL   H30319785   5.538   4.400   7.468  1.7129  0.2960  1.0184
   52MOL   H30419786   5.610   4.565   7.483  0.4345 -0.4736  0.8482
   52MOL   H30519787   5.463   4.550   7.409 -0.8549 -0.9867  3.6767
   52MOL   C30619788   5.631   4.007   7.017  0.0454  0.2201  0.6938
   52MOL   C30719789   5.572   3.884   6.944 -0.0133  0.5755  0.6002
   52MOL   C30819790   5.560   3.765   7.052  0.7973 -0.0334  0.5353
   52MOL   C30919791   5.499   3.636   7.011  0.7367 -0.3028 -0.2246
   52MOL   C31019792   5.475   3.534   7.126 -0.1508  0.3087 -0.1208
   52MOL   C31119793   5.419   3.403   7.069  0.3076  0.0976 -0.0667
   52MOL   O31219794   5.660   3.848   6.834  0.2635  0.0667 -0.0821
   52MOL   H31319795   5.736   3.980   7.019  0.4627  1.8090  0.8969
   52MOL   H31419796   5.602   4.019   7.121 -2.3583 -1.2311  0.2267
   52MOL   H31519797   5.477   3.906   6.896  1.3470  0.4083 -2.2733
   52MOL   H31619798   5.510   3.814   7.137  0.0291  2.2527 -1.1706
   52MOL   H31719799   5.658   3.732   7.086  1.7750  1.2761 -0.9572
   52MOL   H31819800   5.402   3.650   6.963 -0.4849 -2.4696  1.5034
   52MOL   H31919801   5.562   3.585   6.938 -0.3678 -1.6341 -0.2611
   52MOL   H32019802   5.411   3.568   7.207  0.4733  2.2308 -0.4017
   52MOL   H32119803   5.567   3.513   7.182 -0.1932  0.0017 -0.1674
   52MOL   H32219804   5.499   3.356   7.012  1.2696  1.3644  0.2051
   52MOL   H32319805   5.369   3.350   7.150  0.6066  0.2806  0.2398
   52MOL   H32419806   5.346   3.424   6.990 -1.6484 -1.8252  1.1864
   52MOL   C32519807   5.622   3.887   6.703 -0.3177 -0.2540  0.4966
   52MOL   C32619808   5.740   3.889   6.601  0.8278  0.3687  0.4930
   52MOL   C32719809   5.842   3.998   6.640 -0.3316  0.2564 -0.8058
   52MOL   C32819810   5.796   4.139   6.626 -0.1750 -0.1880 -0.0209
   52MOL   C32919811   5.894   4.245   6.680  0.0676 -0.0816 -1.0742
   52MOL   C33019812   5.834   4.378   6.724 -0.4022  0.7330 -0.0420
   52MOL   O33119813   5.678   3.905   6.470  0.2812  0.5163 -0.4038
   52MOL   H33219814   5.560   3.976   6.715 -0.9403 -0.1188 -3.0741
   52MOL   H33319815   5.542   3.821   6.670 -0.7426  0.0985  0.8159
   52MOL   H33419816   5.792   3.794   6.606  1.5958  0.7637  0.1739
   52MOL   H33519817   5.884   3.986   6.740 -2.0226 -1.3136 -0.2414
   52MOL   H33619818   5.923   3.985   6.568 -0.7010  0.9217 -1.3384
   52MOL   H33719819   5.779   4.154   6.520 -1.4421  1.0301  0.3278
   52MOL   H33819820   5.692   4.150   6.658 -0.6581  0.2607 -1.7122
   52MOL   H33919821   5.951   4.206   6.765 -1.1499 -1.1906 -0.7504
   52MOL   H34019822   5.974   4.269   6.610  0.7268  0.4394 -0.1549
   52MOL   H34119823   5.750   4.353   6.789  0.6863 -0.3640  0.9575
   52MOL   H34219824   5.904   4.448   6.770 -1.6743  1.1453  1.3160
   52MOL   H34319825   5.789   4.437   6.643 -1.3655  1.0423  0.7007
   52MOL   C34419826   5.659   3.781   6.399 -0.0587 -0.4517  0.3186
   52MOL   C34519827   5.628   3.814   6.252  0.2323 -0.0259  0.5464
   52MOL   C34619828   5.668   3.701   6.155 -0.6545 -0.4756 -0.5906
   52MOL   C34719829   5.656   3.737   5.999  0.3025 -0.1066  0.3951
   52MOL   C34819830   5.707   3.623   5.909  0.0453  1.0900  0.4634
   52MOL   C34919831   5.717   3.664   5.755 -0.4272 -0.1431  0.1585
   52MOL   O35019832   5.485   3.831   6.236 -0.2152  0.6883 -0.0861
   52MOL   H35119833   5.584   3.728   6.458 -0.4179 -0.0504  0.2258
   52MOL   H35219834   5.750   3.721   6.400 -0.3710 -0.9239  0.5617
   52MOL   H35319835   5.698   3.889   6.214  0.5310 -0.4810  0.1956
   52MOL   H35419836   5.602   3.614   6.161  0.8088 -1.6464 -1.2503
   52MOL   H35519837   5.772   3.671   6.164 -0.9170 -1.7131 -1.5262
   52MOL   H35619838   5.721   3.824   5.989  0.6400 -0.3911  0.0763
   52MOL   H35719839   5.554   3.764   5.972  0.5955 -0.2635 -0.9041
   52MOL   H35819840   5.640   3.537   5.921  1.7310 -0.3900 -0.5390
   52MOL   H35919841   5.807   3.594   5.941 -0.5827 -2.2667 -0.4177
   52MOL   H36019842   5.749   3.582   5.690  1.5239  0.4362  0.3725
   52MOL   H36119843   5.794   3.741   5.758 -1.6877  1.1379  0.7441
   52MOL   H36219844   5.621   3.707   5.724 -0.9280 -1.0248  0.4614
   52MOL   C36319845   5.445   3.950   6.304 -0.3414  0.4274 -0.3215
   52MOL   C36419846   5.320   4.005   6.230  0.2736  0.2919  0.2657
   52MOL   C36519847   5.351   4.052   6.082  0.0173  0.2191 -0.7322
   52MOL   C36619848   5.235   4.106   5.995  0.9874 -0.5489 -1.1989
   52MOL   C36719849   5.254   4.069   5.849 -0.5979  0.2032 -0.0761
   52MOL   C36819850   5.131   4.082   5.748  0.1073  0.3076  0.5563
   52MOL   O36919851   5.232   3.897   6.238 -0.8604  0.4348  0.2629
   52MOL   H37019852   5.525   4.023   6.303 -0.1595  0.2176 -1.0948
   52MOL   H37119853   5.422   3.926   6.408 -1.1954  1.5441 -0.2497
   52MOL   H37219854   5.271   4.081   6.292 -1.0658 -0.2846 -0.0629
   52MOL   H37319855   5.427   4.129   6.074 -0.0182  0.2300 -0.9544
   52MOL   H37419856   5.388   3.963   6.032  2.2329  0.8311 -0.2092
   52MOL   H37519857   5.142   4.060   6.028  2.4931 -0.9067  2.8598
   52MOL   H37619858   5.224   4.214   6.003  1.2549 -0.7460  3.0094
   52MOL   H37719859   5.336   4.125   5.803 -1.2424  1.1810 -0.0568
   52MOL   H37819860   5.291   3.967   5.843  0.9447  0.8012 -1.1530
   52MOL   H37919861   5.154   4.039   5.651 -3.1147 -0.3417  0.0484
   52MOL   H38019862   5.040   4.033   5.782 -1.4836  0.2827 -3.4845
   52MOL   H38119863   5.106   4.186   5.725  0.6223  0.3410  0.1082
   52MOL   H38219864   5.299   3.831   6.245  1.3860  2.4065 -1.5085
   53MOL     C119865   6.466   7.495   6.140 -0.3606 -0.1558 -0.5369
   53MOL     C219866   6.611   7.447   6.161 -0.2224  0.0686 -0.5225
   53MOL     C319867   6.664   7.376   6.035  0.6279  0.1413  0.2214
   53MOL     C419868   6.802   7.318   6.067  0.4634 -0.0592 -0.0175
   53MOL     C519869   6.848   7.218   5.959  0.3081  0.5852  0.7566
   53MOL     C619870   6.926   7.273   5.841  0.3306  0.1958  0.3246
   53MOL     O719871   6.707   7.555   6.171 -0.3672 -0.0078 -0.0725
   53MOL     H819872   6.458   7.551   6.047  0.6345  0.6223 -0.1513
   53MOL     H919873   6.438   7.559   6.224  1.0920  0.4917 -0.5327
   53MOL    H1019874   6.608   7.381   6.247 -0.2205  0.9026  0.1304
   53MOL    H1119875   6.593   7.300   6.002 -0.6463  0.0314  3.0720
   53MOL    H1219876   6.682   7.434   5.944  0.4820 -2.7430 -1.6929
   53MOL    H1319877   6.876   7.399   6.071 -0.1925  0.5905 -0.7643
   53MOL    H1419878   6.792   7.269   6.163  2.5310  0.1464  0.3379
   53MOL    H1519879   6.910   7.146   6.012  0.0858 -0.5795 -0.5470
   53MOL    H1619880   6.760   7.165   5.922  1.1992 -0.6022  0.3037
   53MOL    H1719881   6.879   7.359   5.794 -1.7080  0.3393  2.5298
   53MOL    H1819882   7.027   7.304   5.868 -0.1331  1.2147  0.8997
   53MOL    H1919883   6.939   7.201   5.760 -0.4857  0.9560 -0.4914
   53MOL    H2019884   6.406   7.403   6.141  0.1072 -0.4631  0.6386
   53MOL    C2119885   6.696   7.646   6.270 -0.3411 -0.6598  0.0355
   53MOL    C2219886   6.823   7.737   6.275  0.5241  0.3117  0.0581
   53MOL    C2319887   6.786   0.093   6.318  0.4738 -0.4816  0.1016
   53MOL    C2419888   6.901   0.186   6.307 -0.4655  0.4941 -0.4056
   53MOL    C2519889   6.866   0.331   6.285 -0.2920  0.3477 -0.9229
   53MOL    C2619890   6.984   0.424   6.340 -0.0094  0.1949 -1.0627
   53MOL    O2719891   6.942   7.689   6.344 -0.1424  0.4869 -0.3194
   53MOL    H2819892   6.613   7.711   6.243  0.2505  0.8102  1.6185
   53MOL    H2919893   6.681   7.601   6.368 -0.8711 -0.7541 -0.0897
   53MOL    H3019894   6.853   7.755   6.172  1.2703  0.2444  0.2587
   53MOL    H3119895   6.759   0.081   6.424  1.4061 -0.3711  0.3547
   53MOL    H3219896   6.702   0.123   6.256  1.3869  0.1605 -0.8356
   53MOL    H3319897   6.970   0.156   6.228 -0.7193  0.0294 -0.4491
   53MOL    H3419898   6.965   0.172   6.394  0.5831 -3.6762 -1.7565
   53MOL    H3519899   6.851   0.349   6.178  0.3130 -0.8153 -1.2150
   53MOL    H3619900   6.768   0.348   6.330 -1.1898 -2.9516 -1.4596
   53MOL    H3719901   6.971   0.532   6.334 -0.9563  0.0888 -1.0546
   53MOL    H3819902   7.069   0.402   6.275 -0.6482 -1.0490 -1.5001
   53MOL    H3919903   7.006   0.402   6.444 -0.1143 -1.5780 -1.3945
   53MOL    C4019904   6.996   7.577   6.296 -0.1106  0.3507  0.0584
   53MOL    C4119905   7.158   7.584   6.310 -0.5265  0.6382  0.2460
   53MOL    C4219906   7.234   7.481   6.221 -0.0335  0.4209 -0.3733
   53MOL    C4319907   7.387   7.494   6.218  0.5221  0.0828  0.2080
   53MOL    C4419908   7.446   7.401   6.112  0.1007  0.5379 -0.1882
   53MOL    C4519909   7.583   7.351   6.149 -0.3625 -0.3223  0.0737
   53MOL    O4619910   7.200   7.561   6.443 -0.7872 -0.0615  0.0726
   53MOL    H4719911   6.976   7.571   6.189  1.0771  1.4297 -0.2289
   53MOL    H4819912   6.948   7.498   6.355 -0.4986  0.5795  0.0528
   53MOL    H4919913   7.191   7.683   6.279 -1.0340  0.1196 -2.0150
   53MOL    H5019914   7.207   7.378   6.244  0.5537 -0.1508 -2.2106
   53MOL    H5119915   7.192   7.485   6.121 -0.9862 -2.1624 -0.1063
   53MOL    H5219916   7.449   7.485   6.308  1.4800  2.0966 -0.2330
   53MOL    H5319917   7.418   7.592   6.183  1.7827  0.1349  1.3972
   53MOL    H5419918   7.389   7.307   6.109 -0.4403  0.8700 -0.4034
   53MOL    H5519919   7.449   7.458   6.020 -0.0396 -0.1679 -0.6330
   53MOL    H5619920   7.654   7.434   6.150  1.0719 -1.5172 -0.1302
   53MOL    H5719921   7.578   7.303   6.246  1.0847 -2.7113 -0.9924
   53MOL    H5819922   7.620   7.281   6.074 -0.9102  0.6808 -1.1514
   53MOL    C5919923   7.215   7.691   6.512  0.0538 -0.1837  0.3093
   53MOL    C6019924   7.339   7.779   6.468 -0.1511  0.2070 -0.3223
   53MOL    C6119925   7.300   0.137   6.438  0.0115 -0.6835  0.2125
   53MOL    C6219926   7.430   0.212   6.380  0.1360 -0.0484  0.3304
   53MOL    C6319927   7.406   0.355   6.324  0.4301  0.2885 -0.1521
   53MOL    C6419928   7.347   0.468   6.414 -1.0863  0.2596 -0.8303
   53MOL    O6519929   7.445   7.763   6.562  0.3661 -0.0962 -0.1959
   53MOL    H6619930   7.214   7.664   6.618 -2.9963 -0.5572  0.2469
   53MOL    H6719931   7.130   7.758   6.500  0.6265  0.8721  2.0322
   53MOL    H6819932   7.382   7.749   6.372 -1.6298  1.8864 -1.5485
   53MOL    H6919933   7.272   0.175   6.536 -1.0776  1.8713 -1.0570
   53MOL    H7019934   7.224   0.142   6.360  0.2152  1.2651  0.1316
   53MOL    H7119935   7.474   0.151   6.301  0.1483  1.2111 -0.6540
   53MOL    H7219936   7.517   0.216   6.446  0.6208  0.9905 -0.3488
   53MOL    H7319937   7.351   0.342   6.230 -0.0591 -0.9242  0.2838
   53MOL    H7419938   7.505   0.382   6.289 -0.4286  1.9100 -1.3723
   53MOL    H7519939   7.269   0.434   6.482 -0.9304  0.5330 -0.5135
   53MOL    H7619940   7.426   0.515   6.473  1.3406 -1.1309 -2.8374
   53MOL    H7719941   7.308   0.554   6.359  1.6214  0.2334 -2.9360
   53MOL    C7819942   7.556   7.688   6.534  0.7132  0.2506  0.6927
   53MOL    C7919943   7.645   7.685   6.654 -0.3955 -0.0998 -0.5237
   53MOL    C8019944   0.008   7.685   6.620  0.2135  0.1450 -0.3928
   53MOL    C8119945   0.094   7.724   6.751 -0.0025 -0.4205 -0.0590
   53MOL    C8219946   0.247   7.748   6.731 -0.1964 -0.0327 -0.1848
   53MOL    C8319947   0.314   7.654   6.623 -0.0272  0.7350  0.1119
   53MOL    O8419948   7.622   7.566   6.732 -0.3320  0.2366  0.0156
   53MOL    H8519949   7.606   7.726   6.444 -1.0643 -0.7215 -0.7396
   53MOL    H8619950   7.516   7.590   6.507  1.3534  0.4703 -1.1197
   53MOL    H8719951   7.621   7.772   6.714  0.5896  0.3547 -0.7700
   53MOL    H8819952   0.036   7.585   6.588  2.6985  1.0747 -1.2693
   53MOL    H8919953   0.031   7.757   6.541  0.5879  0.7483  0.2670
   53MOL    H9019954   0.082   7.642   6.821  0.2033 -0.1058  0.3433
   53MOL    H9119955   0.056   0.027   6.802 -1.2478  0.0998 -1.8322
   53MOL    H9219956   0.264   0.061   6.690 -1.2735 -0.2585 -1.1928
   53MOL    H9319957   0.306   7.756   6.823  2.7996 -2.6736 -1.7506
   53MOL    H9419958   0.421   7.671   6.613  0.1959 -1.0966 -0.7470
   53MOL    H9519959   0.267   7.679   6.528 -0.8151 -0.4568  0.1734
   53MOL    H9619960   0.287   7.551   6.645 -1.0264  0.9370 -0.1416
   53MOL    C9719961   7.529   7.586   6.842  0.3390  0.0187 -0.1519
   53MOL    C9819962   7.531   7.452   6.918 -0.1673 -0.1347 -0.2750
   53MOL    C9919963   7.437   7.455   7.047 -0.5889  0.3261 -0.2414
   53MOL   C10019964   7.478   7.344   7.142 -0.7129  0.4053  0.0835
   53MOL   C10119965   7.380   7.317   7.258  0.2665 -0.2610 -0.1077
   53MOL   C10219966   7.425   7.222   7.368 -0.1171  0.8389  0.5264
   53MOL   O10319967   7.502   7.343   6.836 -0.4488 -0.2151 -0.3971
   53MOL   H10419968   7.423   7.602   6.823  0.1217  1.1476  1.8364
   53MOL   H10519969   7.564   7.660   6.915 -2.1986  0.8420  0.2481
   53MOL   H10619970   7.634   7.427   6.941 -0.8617 -2.8864  0.0609
   53MOL   H10719971   7.335   7.431   7.019 -0.4455  0.2643 -0.7113
   53MOL   H10819972   7.440   7.554   7.092 -1.5423  1.0567 -1.7451
   53MOL   H10919973   7.578   7.363   7.181 -0.1934 -2.7370  0.4541
   53MOL   H11019974   7.477   7.250   7.085  1.3273  1.0268 -1.0541
   53MOL   H11119975   7.287   7.277   7.217  0.7764 -0.4131 -1.1306
   53MOL   H11219976   7.357   7.416   7.297 -1.2559 -1.2828  1.6683
   53MOL   H11319977   7.350   7.189   7.439  1.3188 -0.3654  1.5007
   53MOL   H11419978   7.461   7.139   7.306  2.2210  2.2132 -0.0318
   53MOL   H11519979   7.503   7.271   7.426  0.7070  0.8765 -0.5778
   53MOL   C11619980   7.378   7.333   6.766  0.4753 -0.4936  0.2167
   53MOL   C11719981   7.383   7.211   6.658 -0.3603 -0.2190 -0.2138
   53MOL   C11819982   7.263   7.233   6.559 -0.2109 -0.1576  0.5593
   53MOL   C11919983   7.234   7.117   6.460 -0.0502 -0.1787 -0.4655
   53MOL   C12019984   7.098   7.145   6.393 -0.3435  0.2151 -0.1369
   53MOL   C12119985   7.091   7.077   6.265  0.4219  0.2476 -0.6851
   53MOL   O12219986   7.358   7.085   6.721 -0.6331  0.0076  0.1666
   53MOL   H12319987   7.294   7.332   6.836  0.4297 -1.7944  0.1629
   53MOL   H12419988   7.358   7.423   6.708  1.6345 -0.5420 -0.2775
   53MOL   H12519989   7.477   7.198   6.603  0.1473  0.2645  0.5326
   53MOL   H12619990   7.181   7.250   6.628  1.4371  1.5257  2.1673
   53MOL   H12719991   7.288   7.325   6.506 -0.3505  0.3043  1.2962
   53MOL   H12819992   7.236   7.020   6.510  1.5139  1.3536  2.5301
   53MOL   H12919993   7.324   7.124   6.399  0.2939 -0.8833 -0.0450
   53MOL   H13019994   7.014   7.115   6.457  0.0788  0.4931  0.5605
   53MOL   H13119995   7.079   7.251   6.374  0.3084  0.1700 -1.0192
   53MOL   H13219996   6.998   7.104   6.215 -0.5442 -1.4489  0.1727
   53MOL   H13319997   7.177   7.096   6.200  0.9305  1.6946  0.3681
   53MOL   H13419998   7.088   6.969   6.278 -0.3535  0.3711  0.1769
   53MOL   C13519999   7.461   7.044   6.817  0.0763  0.1906 -0.2930
   53MOL   C13620000   7.456   6.896   6.845 -0.0040 -0.3987 -0.1670
   53MOL   C13720001   7.541   6.858   6.966 -0.2904 -0.1071  0.2342
   53MOL   C13820002   7.513   6.727   7.042 -0.9039 -0.1215  0.3511
   53MOL   C13920003   7.612   6.702   7.161  0.0510  0.4357 -0.7904
   53MOL   C14020004   7.569   6.776   7.288 -0.0579  0.3262 -0.0710
   53MOL   O14120005   7.503   6.826   6.735 -0.2581 -0.3542 -0.3689
   53MOL   H14220006   7.560   7.060   6.774  0.4404 -2.0899 -0.3412
   53MOL   H14320007   7.467   7.092   6.915  0.6765 -0.3949 -0.0418
   53MOL   H14420008   7.359   6.859   6.877  1.2138 -1.6185  2.3082
   53MOL   H14520009   7.646   6.874   6.944 -0.6005  0.4372 -0.9178
   53MOL   H14620010   7.524   6.944   7.031 -1.1043  1.5360 -2.0742
   53MOL   H14720011   7.521   6.649   6.967 -1.5792 -1.4433  1.6239
   53MOL   H14820012   7.414   6.723   7.089 -0.7088 -1.5721  0.6562
   53MOL   H14920013   7.718   6.716   7.140 -0.3370  0.5001 -2.7991
   53MOL   H15020014   7.606   6.596   7.184 -0.8550  0.6499 -0.0047
   53MOL   H15120015   7.471   6.754   7.331 -0.6369 -1.2663 -2.1241
   53MOL   H15220016   7.636   6.750   7.370  2.1542 -1.9006 -2.5338
   53MOL   H15320017   7.565   6.885   7.282  2.9558  0.4977  0.1262
   53MOL   C15420018   7.413   6.800   6.623 -0.5260  0.7375 -0.1518
   53MOL   C15520019   7.431   6.653   6.585  0.8083  0.3617 -0.3842
   53MOL   C15620020   7.307   6.595   6.509 -0.3221 -0.8482  0.2485
   53MOL   C15720021   7.276   6.677   6.377  0.4015  0.5562 -0.4050
   53MOL   C15820022   7.373   6.642   6.265 -0.3273 -0.3053  0.5036
   53MOL   C15920023   7.330   6.684   6.123  0.2764 -0.5397  0.0331
   53MOL   O16020024   7.540   6.619   6.508  0.1382 -0.3069 -0.0033
   53MOL   H16120025   7.458   6.861   6.546  1.4821 -0.1121  0.3128
   53MOL   H16220026   7.315   6.843   6.641 -0.2691  1.4006 -0.3331
   53MOL   H16320027   7.441   6.603   6.681 -0.3092 -0.5835 -0.7509
   53MOL   H16420028   7.221   6.595   6.576  1.1883 -0.3226  2.2505
   53MOL   H16520029   7.322   6.488   6.496 -0.7996 -0.8176 -0.6195
   53MOL   H16620030   7.272   6.785   6.389 -1.5973  0.6041 -1.3210
   53MOL   H16720031   7.178   6.641   6.346  0.9000 -0.2559 -1.0787
   53MOL   H16820032   7.464   6.701   6.275  0.1400 -1.2076  1.6979
   53MOL   H16920033   7.405   6.539   6.257 -1.0504 -0.7016  2.3913
   53MOL   H17020034   7.253   6.622   6.076  1.4764 -1.2618 -1.0086
   53MOL   H17120035   7.409   6.655   6.053 -2.6878 -1.4460 -3.1255
   53MOL   H17220036   7.315   6.790   6.101  1.8456 -0.9957 -3.6314
   53MOL   C17320037   7.631   6.533   6.571 -0.0590  0.2242  0.3115
   53MOL   C17420038   7.755   6.511   6.484 -0.2554  0.4944  0.3537
   53MOL   C17520039   0.094   6.487   6.564  0.8109 -0.1188  0.2435
   53MOL   C17620040   0.219   6.496   6.480 -0.7943  0.3731  0.8289
   53MOL   C17720041   0.335   6.453   6.566  0.3060  0.0183 -0.1005
   53MOL   C17820042   0.454   6.431   6.482  0.5601  0.1681 -0.4251
   53MOL   O17920043   7.740   6.401   6.393 -0.5824  0.0243  0.2650
   53MOL   H18020044   7.583   6.438   6.596 -0.5185  0.0909 -1.0101
   53MOL   H18120045   7.666   6.573   6.666  1.1581 -0.8573  0.3323
   53MOL   H18220046   7.770   6.605   6.431 -0.9432 -0.6336 -1.8874
   53MOL   H18320047   0.101   6.572   6.632  1.5316  1.3807 -1.6743
   53MOL   H18420048   0.089   6.391   6.616 -3.6822  0.3671  0.8894
   53MOL   H18520049   0.214   6.434   6.391 -0.6911  1.4755  0.0437
   53MOL   H18620050   0.249   6.596   6.448  0.4090 -0.1318  0.3520
   53MOL   H18720051   0.353   6.536   6.634 -1.3976  0.3198  0.0035
   53MOL   H18820052   0.307   6.361   6.618 -2.1517 -0.2761 -1.8272
   53MOL   H18920053   0.434   6.341   6.424 -0.5433 -1.3090  2.1704
   53MOL   H19020054   0.546   6.404   6.535  1.0412  0.7065 -0.9777
   53MOL   H19120055   0.470   6.510   6.409  5.7442  0.3946  0.7160
   53MOL   C19220056   7.653   6.420   6.285 -0.3510  0.0002 -0.3536
   53MOL   C19320057   7.654   6.293   6.198  0.5016 -0.2263 -0.4295
   53MOL   C19420058   7.754   6.317   6.088  0.5517 -0.2243  0.2239
   53MOL   C19520059   7.770   6.201   5.990  0.1096 -0.3269 -0.2662
   53MOL   C19620060   0.098   6.228   5.878 -0.4903 -0.8430 -0.8454
   53MOL   C19720061   0.219   6.135   5.887  0.5526 -0.0085  0.1279
   53MOL   O19820062   7.528   6.258   6.142 -0.4211 -0.1860 -0.3248
   53MOL   H19920063   7.552   6.434   6.325 -0.9404  1.1301 -2.1758
   53MOL   H20020064   7.671   6.509   6.226 -0.8993 -0.2831 -0.9536
   53MOL   H20120065   7.673   6.196   6.246 -1.8230 -0.8070 -0.6483
   53MOL   H20220066   7.738   6.410   6.033  3.2736  2.2104  3.3423
   53MOL   H20320067   0.067   6.348   6.124 -0.3242  1.7850  0.9598
   53MOL   H20420068   7.682   6.169   5.934 -0.2741  0.4633 -0.1190
   53MOL   H20520069   0.028   6.115   6.041  1.4425 -1.0834 -2.5729
   53MOL   H20620070   0.065   6.216   5.774  0.1425  0.1675 -1.1695
   53MOL   H20720071   0.131   6.330   5.894 -0.1396 -1.5629  3.4686
   53MOL   H20820072   0.254   6.144   5.990  4.0137  0.2664 -0.9771
   53MOL   H20920073   0.194   6.033   5.858 -1.0427  0.9659 -1.9980
   53MOL   H21020074   0.298   6.167   5.819  0.7815 -2.0869 -0.6213
   53MOL   C21120075   7.433   6.204   6.235 -0.1686 -0.9628  0.1423
   53MOL   C21220076   7.296   6.200   6.156  0.5027 -0.2290 -0.5290
   53MOL   C21320077   7.185   6.278   6.237 -0.5240 -0.4524 -0.4490
   53MOL   C21420078   7.046   6.284   6.171  0.5136  0.0656 -0.4074
   53MOL   C21520079   6.950   6.384   6.242  0.1372  0.1616  0.3741
   53MOL   C21620080   6.806   6.377   6.185  0.0247  0.6920  0.6211
   53MOL   O21720081   7.245   6.070   6.143 -0.3717  0.3464  0.3774
   53MOL   H21820082   7.424   6.255   6.331 -1.8052 -0.0901 -0.4708
   53MOL   H21920083   7.467   6.103   6.259 -1.1527 -0.9139  1.8167
   53MOL   H22020084   7.303   6.234   6.053 -1.2946 -1.2120 -1.0077
   53MOL   H22120085   7.174   6.242   6.339  1.1985  1.1248  0.3377
   53MOL   H22220086   7.224   6.380   6.248 -0.1194 -0.4346 -1.8663
   53MOL   H22320087   7.050   6.302   6.063  0.7459 -1.8743 -0.7404
   53MOL   H22420088   7.004   6.184   6.168 -0.5461  0.5253 -1.5417
   53MOL   H22520089   6.953   6.346   6.344  0.5987  2.5537  1.2785
   53MOL   H22620090   6.998   6.482   6.243 -2.6256  1.5518  1.2713
   53MOL   H22720091   6.755   6.281   6.190 -0.0998  0.6619 -1.1679
   53MOL   H22820092   6.815   6.389   6.077 -2.2237 -0.2126  0.3157
   53MOL   H22920093   6.738   6.452   6.226 -1.8226 -1.2426  1.1463
   53MOL   C23020094   7.291   5.986   6.030 -1.1596  0.3034  0.6817
   53MOL   C23120095   7.234   5.840   6.029 -0.2092 -0.1462  0.3525
   53MOL   C23220096   7.331   5.755   5.951 -0.1573  0.3752 -0.4794
   53MOL   C23320097   7.300   5.606   5.949  0.7758  0.4730 -0.2136
   53MOL   C23420098   7.423   5.529   5.892  0.6368 -0.2674  0.7880
   53MOL   C23520099   7.417   5.519   5.744 -0.0756 -0.5855 -0.3732
   53MOL   O23620100   7.112   5.846   5.954  0.3656  0.7325  0.2863
   53MOL   H23720101   7.263   6.039   5.938 -0.2605  0.2165  0.3504
   53MOL   H23820102   7.400   5.985   6.031 -1.1187  0.8433 -0.8658
   53MOL   H23920103   7.219   5.799   6.129 -3.1260  1.0589  0.4678
   53MOL   H24020104   7.422   5.763   6.010 -0.0897 -0.6955 -0.4148
   53MOL   H24120105   7.345   5.795   5.851 -1.2759 -3.1410 -2.1232
   53MOL   H24220106   7.215   5.599   5.881 -0.4828  1.2838  1.2656
   53MOL   H24320107   7.282   5.566   6.048 -2.5881  2.6098  0.1057
   53MOL   H24420108   7.521   5.559   5.927  0.0614 -0.0938  2.2830
   53MOL   H24520109   7.418   5.422   5.912 -0.1030 -0.8524 -2.2374
   53MOL   H24620110   7.513   5.486   5.705 -0.5078  1.1019 -2.9310
   53MOL   H24720111   7.419   5.622   5.710  2.4802  0.0387  1.5125
   53MOL   H24820112   7.342   5.454   5.698 -0.6926  0.0668 -0.2965
   53MOL   C24920113   6.996   5.880   6.031  0.5605 -0.1775 -0.5295
   53MOL   C25020114   6.859   5.847   5.969  0.0527  0.2837  0.2031
   53MOL   C25120115   6.821   5.699   5.981 -0.0362  0.3316 -0.1317
   53MOL   C25220116   6.672   5.676   5.943  0.1354  0.2791  0.2840
   53MOL   C25320117   6.632   5.527   5.936 -0.0450 -0.3524  0.5812
   53MOL   C25420118   6.627   5.462   6.076  0.7883  0.2000 -0.0205
   53MOL   O25520119   6.848   5.892   5.833  0.1624 -0.0280  0.1555
   53MOL   H25620120   7.015   5.823   6.123  1.1845 -2.2431 -1.9038
   53MOL   H25720121   6.995   5.987   6.051 -0.5478  0.2091 -2.5460
   53MOL   H25820122   6.781   5.890   6.031  0.6720  0.5349  0.8193
   53MOL   H25920123   6.894   5.650   5.917 -1.8318 -0.8074 -1.3515
   53MOL   H26020124   6.846   5.655   6.078  0.1549 -1.0907 -0.8233
   53MOL   H26120125   6.610   5.731   6.014 -0.2114 -0.9158  0.9136
   53MOL   H26220126   6.675   5.722   5.844 -1.3544 -0.4709 -0.1341
   53MOL   H26320127   6.533   5.524   5.889 -0.0769  3.0820  0.2545
   53MOL   H26420128   6.705   5.465   5.885 -0.9591 -0.2957 -0.8104
   53MOL   H26520129   6.549   5.502   6.141  0.5319 -1.4622  0.7240
   53MOL   H26620130   6.723   5.478   6.127  1.1205 -1.5028 -0.1090
   53MOL   H26720131   6.614   5.354   6.074  0.8400  0.1851  0.2871
   53MOL   C26820132   6.819   6.025   5.832  0.6305 -0.3553 -0.8150
   53MOL   C26920133   6.848   6.090   5.695  0.4484 -0.5763  1.0842
   53MOL   C27020134   6.757   6.026   5.584 -0.5823  0.2566 -0.1925
   53MOL   C27120135   6.809   6.072   5.440 -0.2876  0.4475 -0.9079
   53MOL   C27220136   6.729   6.023   5.313  0.1283  0.0021 -0.6393
   53MOL   C27320137   6.805   6.040   5.178 -0.3532  1.1981  0.1984
   53MOL   O27420138   6.984   6.077   5.665 -0.3149 -0.8557 -0.1292
   53MOL   H27520139   6.875   6.082   5.906 -0.9584 -0.2394  0.3430
   53MOL   H27620140   6.716   6.045   5.862  0.6620  0.3239 -1.1469
   53MOL   H27720141   6.818   6.195   5.705  3.5168  0.7305 -2.2787
   53MOL   H27820142   6.765   5.918   5.579 -2.1126  0.0069  1.8756
   53MOL   H27920143   6.653   6.058   5.591 -0.5734  0.1277  0.6185
   53MOL   H28020144   6.826   6.180   5.434 -0.1787  0.3676 -2.2451
   53MOL   H28120145   6.906   6.023   5.426 -0.3775  0.3027 -1.0247
   53MOL   H28220146   6.684   5.924   5.325  2.4236 -0.9001  0.8100
   53MOL   H28320147   6.641   6.086   5.326  1.5345  1.8844 -0.0708
   53MOL   H28420148   6.737   6.041   5.093  0.9457  1.9802 -0.8408
   53MOL   H28520149   6.866   6.130   5.186  1.9518 -0.5436  3.4435
   53MOL   H28620150   6.870   5.957   5.148 -1.2268  1.4359 -2.5264
   53MOL   C28720151   7.060   6.196   5.660  0.6859 -0.1984 -0.2341
   53MOL   C28820152   7.207   6.156   5.643 -0.1309 -0.0180 -0.4868
   53MOL   C28920153   7.303   6.278   5.672  0.4168 -0.3996  0.4454
   53MOL   C29020154   7.448   6.247   5.645 -0.2134 -0.2334 -0.3831
   53MOL   C29120155   7.543   6.375   5.649  0.2016  0.6157  0.6023
   53MOL   C29220156   7.531   6.469   5.769  0.1603 -0.0420  0.5834
   53MOL   O29320157   7.231   6.108   5.511 -0.0523  0.0008 -0.1809
   53MOL   H29420158   7.055   6.260   5.747  0.8976 -0.1943 -0.2253
   53MOL   H29520159   7.030   6.254   5.572  0.3089 -2.9195 -1.9729
   53MOL   H29620160   7.220   6.077   5.716  1.7534  2.1827  1.6306
   53MOL   H29720161   7.273   6.358   5.603 -4.1049 -0.1440  2.5374
   53MOL   H29820162   7.281   6.310   5.774 -2.4599 -1.5105  0.2366
   53MOL   H29920163   7.479   6.181   5.727 -1.6490  0.7102  0.9503
   53MOL   H30020164   7.475   6.203   5.549  2.3014 -0.5527  0.4308
   53MOL   H30120165   7.527   6.432   5.558  0.9533 -1.2969 -0.7495
   53MOL   H30220166   7.641   6.328   5.644 -0.5491 -0.7834 -1.7572
   53MOL   H30320167   7.625   6.524   5.773 -0.0628  0.5046 -1.1739
   53MOL   H30420168   7.458   6.549   5.760  1.4132  0.9757 -0.8648
   53MOL   H30520169   7.517   6.410   5.860 -1.8663 -2.4216 -1.2066
   53MOL   C30620170   7.223   5.966   5.500  0.4272 -0.0039 -0.5246
   53MOL   C30720171   7.272   5.934   5.354  1.1888 -0.0562  0.2232
   53MOL   C30820172   7.252   5.780   5.313 -0.8784  0.0421 -0.5592
   53MOL   C30920173   7.277   5.761   5.160  0.0420 -0.2926  0.3816
   53MOL   C31020174   7.298   5.619   5.113  0.7024  0.5072  0.1704
   53MOL   C31120175   7.197   5.523   5.175  0.4460  0.2372  0.5566
   53MOL   O31220176   7.414   5.950   5.357 -0.1556 -0.1703  0.3198
   53MOL   H31320177   7.281   5.918   5.579  0.9244 -0.2742 -1.0454
   53MOL   H31420178   7.123   5.929   5.522  0.6453  0.6709  1.6828
   53MOL   H31520179   7.231   5.996   5.274  2.0892  1.2045  0.7241
   53MOL   H31620180   7.159   5.739   5.352 -0.1220  0.5783  1.9320
   53MOL   H31720181   7.328   5.714   5.355 -0.5228  1.3349  0.8974
   53MOL   H31820182   7.194   5.821   5.123  0.1359  0.2550  1.0319
   53MOL   H31920183   7.362   5.821   5.127 -1.4004  1.7355  0.2604
   53MOL   H32020184   7.397   5.589   5.148  0.6987  0.2502 -0.0392
   53MOL   H32120185   7.301   5.612   5.005  1.2332 -2.2050  0.3126
   53MOL   H32220186   7.212   5.532   5.283 -2.0276 -2.0135  1.1602
   53MOL   H32320187   7.094   5.542   5.143 -0.2427 -1.1915  1.8083
   53MOL   H32420188   7.234   5.424   5.148  2.6322  0.8561  1.2024
   53MOL   C32520189   7.458   6.070   5.294 -0.6193  0.2868  0.4186
   53MOL   C32620190   7.604   6.079   5.322 -0.4486  0.8230  0.4214
   53MOL   C32720191   7.646   6.221   5.313 -0.3514  0.3785 -0.4046
   53MOL   C32820192   0.013   6.236   5.342  0.0128 -0.0798  0.4815
   53MOL   C32920193   0.072   6.167   5.465 -0.0595 -0.6370 -0.5706
   53MOL   C33020194   0.221   6.199   5.481  0.0938  0.0310  0.3566
   53MOL   O33120195   7.673   6.006   5.222  0.2471 -0.1940 -0.3151
   53MOL   H33220196   7.398   6.155   5.327 -1.0989  0.5613 -1.1258
   53MOL   H33320197   7.438   6.074   5.187 -0.9171 -1.1560  0.4153
   53MOL   H33420198   7.627   6.035   5.419 -0.7623 -1.6751 -0.6256
   53MOL   H33520199   7.619   6.260   5.216 -0.1806 -1.3165 -1.1540
   53MOL   H33620200   7.584   6.278   5.383 -0.4448  0.9767 -0.9746
   53MOL   H33720201   0.061   6.202   5.250 -0.8393 -1.2672  0.4690
   53MOL   H33820202   0.026   6.344   5.347 -2.2385  0.2114  0.4994
   53MOL   H33920203   0.012   6.194   5.552 -0.9543 -0.0904 -1.3490
   53MOL   H34020204   0.068   6.058   5.459  1.2675 -0.8195  1.3769
   53MOL   H34120205   0.252   6.171   5.581 -1.7627  0.4504  1.0565
   53MOL   H34220206   0.270   6.145   5.400 -0.3548  0.2543 -0.0665
   53MOL   H34320207   0.220   6.308   5.472 -2.0057  0.0223  0.3237
   53MOL   C34420208   7.672   5.862   5.211  0.2960  0.9953  0.2024
   53MOL   C34520209   7.782   5.803   5.306 -0.1927 -0.1425 -0.1235
   53MOL   C34620210   7.734   5.671   5.363  0.5158 -0.6829  0.1047
   53MOL   C34720211   0.054   5.583   5.445 -0.2976 -0.0251 -0.1755
   53MOL   C34820212   0.003   5.457   5.508  0.2862 -0.0067  0.7502
   53MOL   C34920213   7.677   5.373   5.447 -0.1787  0.2133  0.7700
   53MOL   O35020214   0.119   5.783   5.231 -0.5509  0.2741 -0.1573
   53MOL   H35120215   7.692   5.851   5.105  0.3776  0.2718  0.2873
   53MOL   H35220216   7.569   5.829   5.222 -0.0210  1.6027 -0.8458
   53MOL   H35320217   0.012   5.856   5.401 -0.0666 -1.1279  0.4125
   53MOL   H35420218   7.699   5.611   5.279 -0.5360  0.3788 -0.2330
   53MOL   H35520219   7.644   5.689   5.422 -0.0112 -2.0255 -0.2697
   53MOL   H35620220   0.097   5.636   5.530  2.5867  0.4810 -1.8876
   53MOL   H35720221   0.131   5.563   5.370 -0.2570 -1.2198  0.1805
   53MOL   H35820222   7.759   5.493   5.607 -1.3835  3.3603 -0.9103
   53MOL   H35920223   0.079   5.383   5.536  2.0119  1.1204 -0.8780
   53MOL   H36020224   7.712   5.328   5.354  0.5171  1.5571  0.3649
   53MOL   H36120225   7.595   5.430   5.405  0.2402  0.8692  0.8290
   53MOL   H36220226   7.621   5.300   5.507 -1.3834  1.8045  1.6157
   53MOL   C36320227   0.187   5.902   5.193  0.0962  0.4855  0.4232
   53MOL   C36420228   0.288   5.859   5.083  0.3682  0.2560 -0.3843
   53MOL   C36520229   0.377   5.979   5.043  0.2764 -0.3348 -0.0137
   53MOL   C36620230   0.469   5.955   4.926 -0.0495  0.4437  0.3103
   53MOL   C36720231   0.559   6.071   4.886  0.2257  0.0867 -0.0634
   53MOL   C36820232   0.641   6.042   4.762 -0.6627 -0.7237 -0.3280
   53MOL   O36920233   0.362   5.749   5.120 -0.1017 -0.3342  0.1271
   53MOL   H37020234   0.238   5.943   5.280 -1.0048 -2.8061  2.7154
   53MOL   H37120235   0.124   5.981   5.153  1.4021  0.4427 -1.8032
   53MOL   H37220236   0.221   5.831   5.002  1.1027 -1.4730 -0.4132
   53MOL   H37320237   0.314   6.065   5.019 -0.6638 -0.5230  1.6452
   53MOL   H37420238   0.427   6.005   5.137  0.1542  0.6070 -0.2055
   53MOL   H37520239   0.534   5.870   4.949  0.6624  1.4511  2.1041
   53MOL   H37620240   0.416   5.923   4.836 -2.4311 -3.3721  2.9088
   53MOL   H37720241   0.492   6.153   4.860 -0.4641 -0.3222  0.3949
   53MOL   H37820242   0.615   6.111   4.970  1.0068  1.5775 -1.2651
   53MOL   H37920243   0.710   6.121   4.734 -1.2398 -0.0054  0.2505
   53MOL   H38020244   0.690   5.946   4.781 -1.0626 -0.7179  0.7929
   53MOL   H38120245   0.584   6.020   4.672 -1.5276  0.7978 -0.1543
   53MOL   H38220246   0.312   5.690   5.174  0.4722 -1.2745 -0.3510
   54MOL     C120247   2.637   5.574   2.216  0.2412 -0.9312  0.6089
   54MOL     C220248   2.648   5.690   2.118  0.2922 -0.7116  0.4305
   54MOL     C320249   2.647   5.639   1.978  0.3802 -0.2653 -0.6645
   54MOL     C420250   2.792   5.609   1.935  0.1730  0.1540  0.2012
   54MOL     C520251   2.813   5.559   1.790 -0.0568  0.9267 -0.3515
   54MOL     C620252   2.956   5.542   1.749 -0.0357 -0.3777  0.0040
   54MOL     O720253   2.533   5.768   2.122 -0.0311 -0.0912 -0.2794
   54MOL     H820254   2.638   5.628   2.310  1.5411  0.1855 -0.0276
   54MOL     H920255   2.721   5.503   2.215  1.9950  1.0919 -1.7625
   54MOL    H1020256   2.732   5.757   2.135  0.9323 -1.4433  0.1750
   54MOL    H1120257   2.588   5.548   1.968  0.9700 -0.6147 -0.9373
   54MOL    H1220258   2.595   5.712   1.915 -2.4191  0.0215  1.8614
   54MOL    H1320259   2.860   5.693   1.945  0.9991 -0.4027 -0.6203
   54MOL    H1420260   2.826   5.530   2.003 -0.1390  0.6346  0.9197
   54MOL    H1520261   2.759   5.466   1.775 -0.1496  1.1962 -1.7937
   54MOL    H1620262   2.765   5.633   1.726  1.4509  1.0705 -1.3483
   54MOL    H1720263   3.014   5.633   1.764 -0.6984  0.3428 -1.6889
   54MOL    H1820264   3.004   5.457   1.797  0.2320 -0.5501 -0.5643
   54MOL    H1920265   2.963   5.519   1.643  0.3034 -0.2586  0.0011
   54MOL    H2020266   2.546   5.514   2.217  0.3873 -1.1881 -0.3305
   54MOL    C2120267   2.529   5.858   2.230  0.4702  0.5507  0.3228
   54MOL    C2220268   2.391   5.926   2.248  0.2356  0.0530  0.0829
   54MOL    C2320269   2.272   5.819   2.243 -0.3446 -0.0762  0.8076
   54MOL    C2420270   2.142   5.899   2.208 -0.3223  0.1259 -0.2409
   54MOL    C2520271   2.015   5.806   2.225  0.5480 -0.0164 -1.2329
   54MOL    C2620272   1.997   5.703   2.116 -0.0631 -0.1675 -0.2325
   54MOL    O2720273   2.374   5.990   2.374 -0.2017  0.6077 -0.4244
   54MOL    H2820274   2.523   5.800   2.322  2.9169  2.5851  1.8049
   54MOL    H2920275   2.616   5.924   2.228 -0.5667  1.9182 -1.0487
   54MOL    H3020276   2.381   5.998   2.167 -0.7309  0.6272  0.7084
   54MOL    H3120277   2.266   5.757   2.333 -0.7257 -0.2094  0.6865
   54MOL    H3220278   2.300   5.753   2.161  2.5269  1.0223  0.8246
   54MOL    H3320279   2.157   5.942   2.109 -0.3672  0.1682 -0.2297
   54MOL    H3420280   2.132   5.982   2.278 -0.1624  0.2619 -0.3804
   54MOL    H3520281   2.007   5.758   2.323 -1.2315  1.0289 -0.8525
   54MOL    H3620282   1.931   5.874   2.213 -1.0096 -1.2641  1.8760
   54MOL    H3720283   2.086   5.643   2.098 -0.1945 -0.8567  1.3167
   54MOL    H3820284   1.968   5.753   2.023  2.0014  1.1683 -0.1816
   54MOL    H3920285   1.912   5.649   2.159  1.0297  0.4966  2.8210
   54MOL    C4020286   2.439   6.113   2.379  0.1795  0.3090  0.2541
   54MOL    C4120287   2.354   6.216   2.461 -0.6276  0.3103  0.2330
   54MOL    C4220288   2.412   6.363   2.439  0.2159  0.2631 -0.0798
   54MOL    C4320289   2.330   6.473   2.503  0.0301 -0.2131  0.0291
   54MOL    C4420290   2.420   6.604   2.496  0.1076 -1.0627 -0.1615
   54MOL    C4520291   2.440   6.670   2.355  0.2807 -0.0632  0.1644
   54MOL    O4620292   2.370   6.191   2.597 -0.1840  0.4320 -0.6387
   54MOL    H4720293   2.451   6.151   2.278 -1.3708  1.5667  0.5061
   54MOL    H4820294   2.538   6.106   2.422  0.4062  2.0124  0.0567
   54MOL    H4920295   2.254   6.208   2.418 -0.5198 -2.2064  0.3961
   54MOL    H5020296   2.515   6.371   2.474 -0.1923  1.8136  0.7988
   54MOL    H5120297   2.411   6.383   2.332 -1.5360  0.0431 -0.1209
   54MOL    H5220298   2.329   6.448   2.609  0.3338  0.9749  0.3223
   54MOL    H5320299   2.227   6.491   2.470 -0.3352 -0.0252  1.2550
   54MOL    H5420300   2.391   6.685   2.563  0.6661 -1.3236  0.4088
   54MOL    H5520301   2.513   6.581   2.549 -0.6972  1.4855  2.4896
   54MOL    H5620302   2.340   6.705   2.327  1.1449  2.1209 -0.3665
   54MOL    H5720303   2.501   6.760   2.342 -0.2446 -0.0482 -2.5034
   54MOL    H5820304   2.465   6.600   2.275  0.5349 -0.3433  0.4890
   54MOL    C5920305   2.316   6.081   2.655 -0.2895  0.2410 -0.6365
   54MOL    C6020306   2.163   6.068   2.625  0.1390 -0.0103 -0.0687
   54MOL    C6120307   2.121   5.922   2.647  0.3712  0.9306  0.5217
   54MOL    C6220308   1.980   5.880   2.605  0.1758 -0.5342  0.0734
   54MOL    C6320309   1.961   5.723   2.604 -0.6213  0.3361  0.2662
   54MOL    C6420310   1.823   5.693   2.543  0.4264 -0.4312 -0.5801
   54MOL    O6520311   2.074   6.135   2.708  0.6228  0.1480 -0.4481
   54MOL    H6620312   2.328   6.097   2.762  1.0479 -1.4481 -0.5225
   54MOL    H6720313   2.379   5.994   2.639 -1.8171 -1.1880  0.9488
   54MOL    H6820314   2.136   6.089   2.521  0.8655  0.7032 -0.1140
   54MOL    H6920315   2.136   5.905   2.754  0.6160  1.3690  0.5596
   54MOL    H7020316   2.193   5.856   2.598 -0.2654  0.0200  0.8033
   54MOL    H7120317   1.958   5.920   2.505  0.7592  0.1914  0.2215
   54MOL    H7220318   1.905   5.923   2.670  1.3988  2.3771 -0.3480
   54MOL    H7320319   1.969   5.687   2.707  2.5441  0.1495 -0.0068
   54MOL    H7420320   2.041   5.681   2.543  1.2241  2.4242  1.1842
   54MOL    H7520321   1.797   5.587   2.553 -2.9077  0.5173  1.9983
   54MOL    H7620322   1.758   5.754   2.607  0.9704 -1.9681  1.5150
   54MOL    H7720323   1.819   5.716   2.437 -2.0341  1.5471 -0.1038
   54MOL    C7820324   2.057   6.272   2.691  0.0851 -0.3070 -0.5863
   54MOL    C7920325   1.906   6.304   2.660  0.0021  0.0394  0.3397
   54MOL    C8020326   1.901   6.445   2.599 -0.1510 -0.0673  1.4982
   54MOL    C8120327   1.761   6.497   2.559 -1.1368  0.1833  0.9280
   54MOL    C8220328   1.693   6.599   2.649  0.3244  0.2752 -0.9607
   54MOL    C8320329   1.553   6.624   2.608  0.8820 -0.1914 -0.0049
   54MOL    O8420330   1.836   6.302   2.780 -0.0447 -0.5206  0.6963
   54MOL    H8520331   2.116   6.309   2.608  0.0691  2.3991  0.5407
   54MOL    H8620332   2.090   6.331   2.777 -1.5507  0.3350 -0.3654
   54MOL    H8720333   1.865   6.236   2.586  1.8364 -0.4589 -0.2642
   54MOL    H8820334   1.953   6.515   2.664  1.7223  0.6463 -0.7356
   54MOL    H8920335   1.961   6.455   2.509 -2.0775  0.8882  0.2882
   54MOL    H9020336   1.710   6.401   2.558  0.1285 -0.5052  1.2672
   54MOL    H9120337   1.760   6.529   2.455 -0.0773 -1.0408  0.5310
   54MOL    H9220338   1.688   6.564   2.752 -1.0906  1.0812 -0.7350
   54MOL    H9320339   1.751   6.691   2.646  1.1894 -0.1949  0.7452
   54MOL    H9420340   1.484   6.540   2.616 -1.0107  1.4840  1.9205
   54MOL    H9520341   1.545   6.668   2.508  1.3966  1.0567  0.4952
   54MOL    H9620342   1.509   6.698   2.674 -1.1203 -0.9809 -0.4090
   54MOL    C9720343   1.811   6.174   2.844 -0.1163 -0.1910  0.3938
   54MOL    C9820344   1.712   6.166   2.961  0.4225  0.5865  0.8774
   54MOL    C9920345   1.714   6.018   3.012  0.6766 -0.2464 -0.4814
   54MOL   C10020346   1.610   5.987   3.117  0.2717 -0.8483  0.3326
   54MOL   C10120347   1.630   5.853   3.188 -0.9098  0.2991 -0.0411
   54MOL   C10220348   1.558   5.836   3.316 -0.2194  0.8059  0.0953
   54MOL   O10320349   1.772   6.249   3.065 -0.5386  0.5285  0.5370
   54MOL   H10420350   1.901   6.127   2.882  0.7719  0.3866 -0.9619
   54MOL   H10520351   1.763   6.112   2.769  1.1352 -0.9050  0.1835
   54MOL   H10620352   1.615   6.199   2.924 -1.0299 -1.8270  2.4264
   54MOL   H10720353   1.812   5.997   3.055  0.7086  0.0202 -0.4224
   54MOL   H10820354   1.701   5.955   2.924 -0.3024  0.6435 -0.9826
   54MOL   H10920355   1.505   5.987   3.084  0.6330 -1.5527 -0.8663
   54MOL   H11020356   1.619   6.070   3.187 -0.8728 -1.3328  1.0710
   54MOL   H11120357   1.736   5.838   3.203 -1.0362 -0.7564 -0.1093
   54MOL   H11220358   1.602   5.771   3.120  2.3528 -2.0125  1.2661
   54MOL   H11320359   1.586   5.905   3.395 -0.3065  0.1704  0.6813
   54MOL   H11420360   1.451   5.852   3.299 -0.0687  0.7419 -0.9740
   54MOL   H11520361   1.584   5.735   3.346  1.2117  0.8544 -0.9211
   54MOL   C11620362   1.705   6.372   3.096  0.2922  1.4287  0.4448
   54MOL   C11720363   1.769   6.422   3.226 -0.0978 -0.3080  0.0824
   54MOL   C11820364   1.677   6.385   3.340  0.1565  0.3412 -0.0346
   54MOL   C11920365   1.728   6.424   3.479  0.0796  0.0573  0.8810
   54MOL   C12020366   1.837   6.320   3.532 -0.0586 -0.0261  0.1681
   54MOL   C12120367   1.778   6.189   3.583 -0.1116 -0.1404  0.2090
   54MOL   O12220368   1.798   6.564   3.214  0.0232  0.4827  0.3246
   54MOL   H12320369   1.738   6.429   3.010 -2.1595  0.2217 -1.3644
   54MOL   H12420370   1.596   6.371   3.106  0.1959 -1.1424 -0.5628
   54MOL   H12520371   1.859   6.370   3.261  0.9563  1.8951  0.7176
   54MOL   H12620372   1.578   6.425   3.318  1.2204  2.1271 -1.7311
   54MOL   H12720373   1.654   6.278   3.341  3.2574 -0.3569  0.9737
   54MOL   H12820374   1.645   6.425   3.550 -1.1609  0.3404 -0.5455
   54MOL   H12920375   1.780   6.520   3.475 -2.1914  1.3051  0.4331
   54MOL   H13020376   1.926   6.323   3.469 -0.8194  0.4537 -0.9061
   54MOL   H13120377   1.872   6.371   3.621 -1.9521  0.1854  0.8084
   54MOL   H13220378   1.708   6.215   3.662 -1.1215  0.0657 -0.7516
   54MOL   H13320379   1.716   6.132   3.514  0.5342  0.4116 -0.8542
   54MOL   H13420380   1.839   6.114   3.633  0.0630 -1.2591 -1.6302
   54MOL   C13520381   1.915   6.603   3.153 -0.1374 -0.2075  0.2570
   54MOL   C13620382   1.912   6.754   3.118  0.3287 -0.0960  0.0886
   54MOL   C13720383   1.814   6.791   3.002 -0.1520  0.1042  0.0018
   54MOL   C13820384   1.816   6.944   2.951 -0.3900 -0.0421  0.0879
   54MOL   C13920385   1.779   6.971   2.807 -0.0695  0.1867  0.4959
   54MOL   C14020386   1.627   6.953   2.774 -0.0131  0.5726  0.3819
   54MOL   O14120387   2.043   6.781   3.065  0.1360  0.0265  0.1359
   54MOL   H14220388   1.992   6.573   3.224 -1.2034 -1.7849  0.7789
   54MOL   H14320389   1.943   6.535   3.072  2.4002 -0.9225  1.6625
   54MOL   H14420390   1.891   6.815   3.205  1.1276  1.1576 -0.5906
   54MOL   H14520391   1.830   6.721   2.920 -0.3123 -1.3603  1.2090
   54MOL   H14620392   1.715   6.755   3.032  0.7432 -0.8184  1.9480
   54MOL   H14720393   1.913   6.990   2.970 -1.0428  1.0344  0.8582
   54MOL   H14820394   1.751   6.994   3.022 -0.8770 -2.9109  1.7412
   54MOL   H14920395   1.841   6.908   2.743  1.3683  2.0304  0.0162
   54MOL   H15020396   1.811   7.075   2.794 -1.3695  0.3280 -1.8611
   54MOL   H15120397   1.556   7.017   2.827 -3.5252  0.0269 -3.3324
   54MOL   H15220398   1.619   6.970   2.666  3.6228  0.6105  0.0613
   54MOL   H15320399   1.589   6.852   2.791  0.5134  0.6477  2.0167
   54MOL   C15420400   2.124   6.836   3.168 -1.0565 -0.0095  0.5657
   54MOL   C15520401   2.265   6.840   3.113  0.2052  1.1226  0.9709
   54MOL   C15620402   2.366   6.919   3.194 -0.5635  0.6278 -0.2493
   54MOL   C15720403   2.496   6.907   3.117 -0.4939 -0.0324  0.4572
   54MOL   C15820404   2.579   7.041   3.121 -0.6735  0.5104 -0.0914
   54MOL   C15920405   2.712   7.010   3.062 -0.3914 -0.3893  0.2198
   54MOL   O16020406   2.324   6.705   3.115 -0.0747 -0.0578 -0.2041
   54MOL   H16120407   2.115   6.769   3.254 -1.0296 -0.9145 -0.1289
   54MOL   H16220408   2.097   6.939   3.190 -0.7926 -0.0797  1.2272
   54MOL   H16320409   2.263   6.883   3.013 -0.9343 -0.4854  0.2835
   54MOL   H16420410   2.375   6.875   3.293 -0.4851 -3.8019 -2.1259
   54MOL   H16520411   2.338   7.024   3.190  1.1276  1.0955 -0.2248
   54MOL   H16620412   2.469   6.885   3.013 -0.9235 -0.8977  0.7487
   54MOL   H16720413   2.549   6.828   3.169 -0.1330  0.1906  0.4321
   54MOL   H16820414   2.532   7.126   3.073 -0.2618  0.5309 -0.4622
   54MOL   H16920415   2.605   7.075   3.221  1.8576 -1.3201 -0.0554
   54MOL   H17020416   2.709   6.987   2.956 -1.0161 -1.8641  0.5497
   54MOL   H17120417   2.759   6.927   3.116  0.0102 -1.3697 -1.6050
   54MOL   H17220418   2.778   7.097   3.066  0.6774 -1.0763 -1.6250
   54MOL   C17320419   2.278   6.613   3.018 -0.6951 -0.5221 -0.2504
   54MOL   C17420420   2.360   6.482   3.001 -0.4723 -0.0151  0.3892
   54MOL   C17520421   2.509   6.524   2.983  0.2819  0.1363  0.0438
   54MOL   C17620422   2.608   6.405   3.000  0.3415  0.0397  0.8475
   54MOL   C17720423   2.751   6.445   2.993 -0.5457  0.1217  0.4473
   54MOL   C17820424   2.794   6.478   2.853  0.4936 -0.5517 -0.4641
   54MOL   O17920425   2.344   6.404   3.125  0.4552  0.2184 -0.2867
   54MOL   H18020426   2.274   6.664   2.922 -0.8356 -1.3771 -0.7051
   54MOL   H18120427   2.174   6.593   3.043 -0.7960 -0.1872 -0.3927
   54MOL   H18220428   2.333   6.435   2.907 -1.4132  1.1094  0.0823
   54MOL   H18320429   2.515   6.570   2.885 -0.5375 -1.4224 -0.7538
   54MOL   H18420430   2.535   6.605   3.051 -2.0818  1.0523 -0.0757
   54MOL   H18520431   2.584   6.350   3.091  1.0408 -1.1462  0.3167
   54MOL   H18620432   2.586   6.336   2.919  0.8997 -0.6603  1.2867
   54MOL   H18720433   2.771   6.531   3.057 -0.7892 -0.2138  0.9796
   54MOL   H18820434   2.812   6.359   3.018  2.7625  2.2964  0.1820
   54MOL   H18920435   2.903   6.490   2.852  0.3568  0.8505 -1.7695
   54MOL   H19020436   2.739   6.566   2.820  2.6445  0.3639 -1.7963
   54MOL   H19120437   2.761   6.393   2.794  1.4947 -0.8804 -0.5709
   54MOL   C19220438   2.226   6.326   3.134  0.1234 -0.0781  0.0874
   54MOL   C19320439   2.222   6.252   3.273 -0.0597  0.5665  0.1336
   54MOL   C19420440   2.109   6.143   3.262 -0.3471 -0.2583 -0.1112
   54MOL   C19520441   2.100   6.066   3.402  0.5860  0.1684 -0.1273
   54MOL   C19620442   2.044   5.929   3.387 -0.1870 -0.3817  0.3068
   54MOL   C19720443   2.045   5.857   3.521  0.6249 -0.1105  0.5248
   54MOL   O19820444   2.176   6.333   3.383  0.6843  0.0293 -0.2544
   54MOL   H19920445   2.133   6.379   3.113 -1.5453 -2.0298  2.2603
   54MOL   H20020446   2.232   6.255   3.051 -1.8338 -0.3753  0.1856
   54MOL   H20120447   2.314   6.204   3.306 -0.6487  0.6850  2.0340
   54MOL   H20220448   2.016   6.188   3.228 -1.0173 -1.5619 -0.0278
   54MOL   H20320449   2.142   6.063   3.196  3.8328 -1.7114  3.4523
   54MOL   H20420450   2.038   6.128   3.468  1.8773  0.9482  0.3634
   54MOL   H20520451   2.202   6.052   3.436 -0.2062  0.1029  2.3552
   54MOL   H20620452   1.938   5.934   3.361 -0.1509  0.5417  0.3254
   54MOL   H20720453   2.092   5.868   3.310 -0.4252 -0.7996  0.4865
   54MOL   H20820454   2.146   5.845   3.560  0.2371 -0.3002  1.4736
   54MOL   H20920455   1.999   5.915   3.600  0.5731 -1.9768  1.8925
   54MOL   H21020456   1.998   5.759   3.513  0.5583  0.0034 -0.6906
   54MOL   C21120457   2.270   6.443   3.407 -0.5177 -0.1531 -0.0768
   54MOL   C21220458   2.210   6.512   3.528 -0.1546  0.9200  0.2800
   54MOL   C21320459   2.236   6.657   3.533  0.0341  0.7189 -0.2207
   54MOL   C21420460   2.149   6.723   3.635 -0.5750 -0.4374  0.1029
   54MOL   C21520461   2.178   6.868   3.634  0.2597 -0.1871 -0.1142
   54MOL   C21620462   2.125   6.938   3.516  0.3851  0.4859 -0.1902
   54MOL   O21720463   2.259   6.461   3.656  0.1373  0.7704  0.2763
   54MOL   H21820464   2.264   6.504   3.317  0.7933  0.7927  0.4522
   54MOL   H21920465   2.375   6.417   3.422 -0.2910  1.7833  1.8302
   54MOL   H22020466   2.101   6.506   3.519 -0.2170  0.0007  1.5199
   54MOL   H22120467   2.339   6.677   3.561  0.6251 -2.0741 -0.2601
   54MOL   H22220468   2.213   6.697   3.434 -1.7556 -0.1554 -0.1979
   54MOL   H22320469   2.041   6.712   3.622 -1.3250  1.1057  4.2225
   54MOL   H22420470   2.175   6.685   3.733  0.5995 -3.0517 -1.1655
   54MOL   H22520471   2.143   6.916   3.726  0.2432  1.9675 -1.2127
   54MOL   H22620472   2.286   6.883   3.639  0.2314  0.4828 -1.3430
   54MOL   H22720473   2.137   7.046   3.512  2.7620  0.2997  0.7730
   54MOL   H22820474   2.017   6.942   3.512  0.4360  0.0489 -2.6826
   54MOL   H22920475   2.156   6.903   3.418  1.8319  0.3546  0.3020
   54MOL   C23020476   2.208   6.335   3.692  0.2856  0.0916 -0.0004
   54MOL   C23120477   2.262   6.300   3.833  0.5183 -0.1314  0.0120
   54MOL   C23220478   2.268   6.415   3.933 -0.5817 -0.6838  0.7485
   54MOL   C23320479   2.292   6.378   4.082  0.3723 -0.2520  0.1282
   54MOL   C23420480   2.265   6.482   4.183 -0.2682  0.6041  0.1263
   54MOL   C23520481   2.129   6.471   4.244  0.3011  0.2382 -0.5906
   54MOL   O23620482   2.381   6.221   3.833 -0.4456 -0.2328 -0.1975
   54MOL   H23720483   2.100   6.346   3.706  0.0643  0.5197 -1.8598
   54MOL   H23820484   2.218   6.259   3.615  0.3192  1.2097 -1.1132
   54MOL   H23920485   2.189   6.238   3.883 -0.5954  1.1329 -0.0222
   54MOL   H24020486   2.181   6.479   3.918 -1.5926 -2.4002 -0.9142
   54MOL   H24120487   2.357   6.472   3.903  0.5469 -3.7636 -2.1567
   54MOL   H24220488   2.392   6.341   4.103  0.4659 -0.4511 -0.6427
   54MOL   H24320489   2.247   6.280   4.101 -1.2320  0.2247 -1.0309
   54MOL   H24420490   2.333   6.476   4.268 -1.4518 -0.1631  1.0391
   54MOL   H24520491   2.272   6.577   4.129  0.7174  0.6853  0.3841
   54MOL   H24620492   2.125   6.393   4.320  0.2538  0.9441  0.1388
   54MOL   H24720493   2.056   6.448   4.166 -0.6428 -1.4738  0.7732
   54MOL   H24820494   2.107   6.559   4.305 -2.4209  0.3930 -1.7421
   54MOL   C24920495   2.490   6.288   3.776 -0.6328 -0.1044 -0.5024
   54MOL   C25020496   2.589   6.185   3.725  0.1634  1.1419  0.2868
   54MOL   C25120497   2.736   6.214   3.736 -0.2704  0.2627 -0.0918
   54MOL   C25220498   2.799   6.228   3.877  0.6035 -0.4233 -0.0555
   54MOL   C25320499   2.948   6.251   3.869 -0.0030  0.4403  0.3343
   54MOL   C25420500   3.025   6.245   4.003  0.1684  0.0515 -0.1905
   54MOL   O25520501   2.560   6.160   3.588 -0.1043 -0.0685  0.7639
   54MOL   H25620502   2.470   6.356   3.694 -0.5750 -0.1655 -0.5669
   54MOL   H25720503   2.536   6.341   3.859 -1.0536  1.0974 -1.0334
   54MOL   H25820504   2.574   6.087   3.771 -0.5455  1.1479  0.0735
   54MOL   H25920505   2.786   6.135   3.679  1.3006  1.1234  0.0779
   54MOL   H26020506   2.765   6.300   3.675 -1.3056  0.6635 -0.0211
   54MOL   H26120507   2.750   6.314   3.923  0.7050  0.1081 -0.9390
   54MOL   H26220508   2.778   6.149   3.948 -0.5259  1.4247  1.7198
   54MOL   H26320509   2.987   6.166   3.814 -0.7424 -0.6354  1.4548
   54MOL   H26420510   2.984   6.335   3.808  0.6850  0.0326  0.1738
   54MOL   H26520511   3.134   6.246   3.996 -0.0013 -0.2686 -3.3701
   54MOL   H26620512   2.999   6.154   4.058 -3.0327  0.8977 -0.2454
   54MOL   H26720513   3.003   6.337   4.057  0.2609  0.5136 -0.9410
   54MOL   C26820514   2.527   6.024   3.552 -0.7131 -0.0834  0.1185
   54MOL   C26920515   2.531   6.013   3.395 -0.0535  0.3441 -0.0864
   54MOL   C27020516   2.453   5.896   3.333 -0.0627  0.5492  0.0489
   54MOL   C27120517   2.434   5.907   3.182  0.4546 -0.3631  0.0730
   54MOL   C27220518   2.371   5.778   3.116  0.8883 -0.4156  0.3647
   54MOL   C27320519   2.328   5.806   2.971  0.1879 -0.1718  0.0376
   54MOL   O27420520   2.664   5.993   3.350  0.1764 -0.5468  0.9448
   54MOL   H27520521   2.430   6.004   3.598 -1.2908 -2.4584 -2.0484
   54MOL   H27620522   2.584   5.945   3.600  1.2627  0.6953 -0.8909
   54MOL   H27720523   2.494   6.105   3.349 -0.4703 -0.4524 -1.3780
   54MOL   H27820524   2.511   5.804   3.345  0.8846  0.9248 -1.5447
   54MOL   H27920525   2.358   5.873   3.381  0.3311 -2.3606 -0.4263
   54MOL   H28020526   2.375   5.996   3.165  4.1661  2.1489 -0.3425
   54MOL   H28120527   2.531   5.922   3.134 -0.3321  1.2852 -1.0378
   54MOL   H28220528   2.446   5.699   3.111  0.4416 -0.8794  0.9584
   54MOL   H28320529   2.292   5.739   3.181  0.6476 -0.6216 -0.0500
   54MOL   H28420530   2.285   5.715   2.928 -2.0066  0.4003  0.9283
   54MOL   H28520531   2.252   5.883   2.964 -0.6323 -0.9570  0.1131
   54MOL   H28620532   2.414   5.833   2.910 -0.4238  0.3662 -0.5943
   54MOL   C28720533   2.748   6.103   3.327 -0.0942  0.9162  0.0266
   54MOL   C28820534   2.887   6.045   3.282 -1.0745  0.3535  0.1080
   54MOL   C28920535   2.865   5.991   3.140  0.1187  0.6521 -0.2753
   54MOL   C29020536   2.988   5.941   3.073 -0.3514  0.1883 -0.3623
   54MOL   C29120537   2.967   5.879   2.939 -0.0342  0.2753  0.9543
   54MOL   C29220538   3.082   5.784   2.894  0.1171 -0.0846  0.3382
   54MOL   O29320539   2.941   5.935   3.362 -0.2168 -0.0664 -0.1394
   54MOL   H29420540   2.763   6.158   3.420  1.3724 -2.4053  1.8512
   54MOL   H29520541   2.712   6.170   3.249 -1.5696  0.1516  0.0283
   54MOL   H29620542   2.951   6.133   3.279  0.4246 -0.7129  0.2523
   54MOL   H29720543   2.803   5.902   3.144  0.7182  0.1986 -0.9230
   54MOL   H29820544   2.808   6.062   3.081 -1.7147 -0.0582  0.6018
   54MOL   H29920545   3.061   6.022   3.064 -0.3434  0.0952 -1.2380
   54MOL   H30020546   3.046   5.871   3.134 -0.8938 -1.1370 -1.3457
   54MOL   H30120547   2.972   5.962   2.868  1.7488  0.4948  1.3346
   54MOL   H30220548   2.870   5.829   2.933 -1.0809  2.0573  2.4592
   54MOL   H30320549   3.058   5.689   2.944 -1.5598 -0.7124 -1.6077
   54MOL   H30420550   3.075   5.769   2.787 -0.6367 -0.2997  0.4131
   54MOL   H30520551   3.182   5.819   2.919  0.3132 -1.5298  1.6657
   54MOL   C30620552   2.954   5.973   3.494  0.0374  0.5015 -0.2784
   54MOL   C30720553   3.057   5.883   3.559 -0.3962 -0.1207 -0.8851
   54MOL   C30820554   2.989   5.784   3.651 -0.0510 -0.6936 -0.5892
   54MOL   C30920555   3.085   5.685   3.699  0.2235  0.0479  0.0314
   54MOL   C31020556   3.010   5.575   3.777 -0.3840 -0.0601 -0.0413
   54MOL   C31120557   3.105   5.478   3.853  0.2219 -0.4017  0.7296
   54MOL   O31220558   3.149   5.966   3.637 -0.2661  0.3752  0.9004
   54MOL   H31320559   2.981   6.078   3.501  2.5893 -0.0316 -1.3908
   54MOL   H31420560   2.852   5.968   3.532  0.7508 -2.1966  1.4315
   54MOL   H31520561   3.106   5.826   3.480 -0.3750  1.0018 -1.6996
   54MOL   H31620562   2.912   5.728   3.597 -0.5650 -0.0295 -0.5528
   54MOL   H31720563   2.939   5.827   3.738  0.8793 -0.6184 -0.0855
   54MOL   H31820564   3.130   5.630   3.616  1.7408  0.5716  0.4889
   54MOL   H31920565   3.167   5.725   3.759 -0.7630  0.5838  1.0311
   54MOL   H32020566   2.937   5.530   3.710 -0.7533 -1.6191  1.3660
   54MOL   H32120567   2.943   5.614   3.853 -0.6229  1.2722 -0.9237
   54MOL   H32220568   3.163   5.526   3.932  1.4655  4.0962 -2.6444
   54MOL   H32320569   3.046   5.389   3.874 -2.0130  0.1824 -2.7096
   54MOL   H32420570   3.184   5.452   3.783  0.4887  1.7099  0.1932
   54MOL   C32520571   3.269   5.991   3.575 -0.2243 -0.4933  0.0446
   54MOL   C32620572   3.347   6.105   3.652  0.2017  0.1531 -0.3400
   54MOL   C32720573   3.382   6.058   3.792 -0.3585  0.4568 -0.0458
   54MOL   C32820574   3.457   6.167   3.879 -0.6021  0.5850  0.8592
   54MOL   C32920575   3.504   6.117   4.015 -0.6292  0.7453  0.7216
   54MOL   C33020576   3.644   6.171   4.046 -0.5106  0.6530  0.9097
   54MOL   O33120577   3.277   6.238   3.650  0.0490 -0.4415 -0.2269
   54MOL   H33220578   3.240   6.020   3.475  0.6491  1.4112  0.3227
   54MOL   H33320579   3.331   5.903   3.558 -1.1507 -1.1183 -0.1235
   54MOL   H33420580   3.443   6.111   3.602  0.3874 -0.3553 -0.0520
   54MOL   H33520581   3.291   6.031   3.845 -0.7216 -2.0016 -1.8856
   54MOL   H33620582   3.441   5.968   3.775 -1.9080 -1.2076  3.0399
   54MOL   H33720583   3.546   6.215   3.837  0.9026 -1.6128  1.4858
   54MOL   H33820584   3.387   6.251   3.885  0.6582  1.6594  0.8197
   54MOL   H33920585   3.419   6.122   4.084  0.6902  1.2810  2.3326
   54MOL   H34020586   3.519   6.012   3.991  2.4921  0.8502  1.9539
   54MOL   H34120587   3.664   6.131   4.145  0.1400 -0.2213  0.4333
   54MOL   H34220588   3.713   6.129   3.972 -0.8995  0.0762  0.8709
   54MOL   H34320589   3.639   6.279   4.052 -0.9795  0.9142 -2.8590
   54MOL   C34420590   3.360   6.335   3.582  0.4765 -0.6801 -0.0981
   54MOL   C34520591   3.293   6.472   3.561 -0.3238 -1.1617  0.0025
   54MOL   C34620592   3.390   6.595   3.551  0.1559  0.0864 -0.1270
   54MOL   C34720593   3.318   6.723   3.585  0.2971 -0.0929  0.8221
   54MOL   C34820594   3.412   6.843   3.582  0.1864 -1.2979 -0.3286
   54MOL   C34920595   3.506   6.849   3.705  0.1279 -0.2768 -0.4829
   54MOL   O35020596   3.218   6.470   3.439  0.4909  0.7428 -0.2407
   54MOL   H35120597   3.398   6.290   3.490  5.4258  1.8982  0.4757
   54MOL   H35220598   3.442   6.345   3.654  1.2768  1.0015 -1.1981
   54MOL   H35320599   3.230   6.480   3.650 -1.2597 -1.1065 -0.6547
   54MOL   H35420600   3.438   6.595   3.453  1.3788  0.6665  0.4559
   54MOL   H35520601   3.468   6.585   3.627  0.3312 -0.4343 -0.3674
   54MOL   H35620602   3.281   6.710   3.687  0.6351 -0.7611  0.8633
   54MOL   H35720603   3.233   6.748   3.522  1.3449  2.2187  0.2710
   54MOL   H35820604   3.358   6.935   3.563  2.5020  0.3453  0.7854
   54MOL   H35920605   3.467   6.830   3.489 -0.5729  0.8039 -1.0848
   54MOL   H36020606   3.562   6.942   3.714 -0.4830  0.1677 -1.2086
   54MOL   H36120607   3.577   6.767   3.708  3.2839  2.3298 -1.5616
   54MOL   H36220608   3.442   6.833   3.792  1.9322 -3.5067  0.2936
   54MOL   C36320609   3.110   6.383   3.448 -0.5694 -0.0279  1.0744
   54MOL   C36420610   3.000   6.416   3.348 -0.1377  0.4856 -0.2083
   54MOL   C36520611   2.940   6.553   3.358  0.7870 -0.3975  0.1739
   54MOL   C36620612   2.779   6.549   3.374  0.6020  0.3606  0.3231
   54MOL   C36720613   2.726   6.691   3.402  0.0736 -0.6714  1.3052
   54MOL   C36820614   2.577   6.710   3.414 -0.7627 -0.3682  0.0943
   54MOL   O36920615   3.057   6.395   3.222  0.3770  0.1534  0.2499
   54MOL   H37020616   3.070   6.368   3.548  0.5619 -0.4431  1.4693
   54MOL   H37120617   3.149   6.284   3.426  1.5060  0.7774  0.9932
   54MOL   H37220618   2.927   6.335   3.356 -0.5180  0.7861 -0.5696
   54MOL   H37320619   2.965   6.606   3.450 -0.7646 -0.6863  0.7662
   54MOL   H37420620   2.950   6.616   3.270 -2.6707  1.2341  0.8620
   54MOL   H37520621   2.741   6.501   3.284 -0.9720  0.8965  0.6939
   54MOL   H37620622   2.762   6.484   3.459 -0.7250 -0.8193 -0.8123
   54MOL   H37720623   2.772   6.735   3.490 -0.2802 -1.8278  2.0685
   54MOL   H37820624   2.763   6.762   3.328  1.3353 -2.2970  0.3317
   54MOL   H37920625   2.549   6.812   3.438  2.9486  1.0005 -1.0768
   54MOL   H38020626   2.521   6.681   3.324  1.2609 -0.0466 -1.2988
   54MOL   H38120627   2.542   6.640   3.490  2.4262 -1.5604  0.5352
   54MOL   H38220628   3.148   6.420   3.220 -0.2122  2.5174  1.3412
   55MOL     C120629   7.407   7.584   2.929  0.1272 -0.5659 -0.1057
   55MOL     C220630   7.277   7.660   2.951 -0.4630  0.4435 -0.0001
   55MOL     C320631   7.288   7.763   3.059 -0.0727  0.2565 -0.6353
   55MOL     C420632   7.147   0.007   3.119  0.3699 -0.3377 -0.4574
   55MOL     C520633   7.153   0.098   3.245 -0.0202 -0.1641  0.5212
   55MOL     C620634   7.024   0.160   3.295  0.1850  0.3509 -0.3818
   55MOL     O720635   7.225   7.716   2.833 -0.1456  0.5113  0.0316
   55MOL     H820636   7.431   7.525   3.017 -0.5411 -1.4620 -0.5118
   55MOL     H920637   7.488   7.652   2.901 -1.5327  1.5791  0.1569
   55MOL    H1020638   7.193   7.597   2.982  0.3286  0.2333  1.8209
   55MOL    H1120639   7.356   7.724   3.135  0.4591  2.4261  0.0319
   55MOL    H1220640   7.332   0.067   3.016 -1.0544  1.6905  1.2266
   55MOL    H1320641   7.085   0.051   3.040 -1.2918 -0.2613  0.8483
   55MOL    H1420642   7.108   7.693   3.142 -0.2786  0.7021  3.2918
   55MOL    H1520643   7.192   0.033   3.323  1.7457 -1.4893 -1.4058
   55MOL    H1620644   7.237   0.164   3.225  0.8825 -1.4786 -0.0314
   55MOL    H1720645   7.046   0.223   3.381  0.2621  1.1814 -0.9944
   55MOL    H1820646   6.988   0.221   3.211  1.3723 -0.9502 -1.8582
   55MOL    H1920647   6.956   0.077   3.312  0.3145  0.7329  2.1077
   55MOL    H2020648   7.395   7.509   2.851  1.4339  1.7015 -2.5728
   55MOL    C2120649   7.314   0.006   2.743 -0.1355 -0.1508  0.8261
   55MOL    C2220650   7.223   0.081   2.637  0.8450 -0.8046  0.1575
   55MOL    C2320651   7.303   0.165   2.540  0.4980  0.0602  0.5063
   55MOL    C2420652   7.224   0.215   2.418  0.7039 -0.4375  0.0019
   55MOL    C2520653   7.302   0.323   2.346  0.1609  0.1760  0.2777
   55MOL    C2620654   7.235   0.378   2.216 -0.5713 -0.3573 -0.3353
   55MOL    O2720655   7.172   7.760   2.563 -0.0321  0.3730 -0.6669
   55MOL    H2820656   7.368   0.080   2.802  0.8638  1.8954 -2.5735
   55MOL    H2920657   7.380   7.713   2.706  2.3831  1.2022  2.3610
   55MOL    H3020658   7.145   0.141   2.686  0.4506  0.1419 -1.6094
   55MOL    H3120659   7.395   0.119   2.504  0.0631  1.2271 -2.2425
   55MOL    H3220660   7.329   0.251   2.602  1.9760 -0.1556  0.2210
   55MOL    H3320661   7.128   0.252   2.453  0.1270 -1.2467 -0.7016
   55MOL    H3420662   7.187   0.132   2.357  0.1089  0.5157 -0.9382
   55MOL    H3520663   7.313   0.413   2.407 -1.1333  0.3885  0.2064
   55MOL    H3620664   7.399   0.283   2.315  0.0310 -0.0678  0.1900
   55MOL    H3720665   7.148   0.440   2.237 -0.4175 -0.0620 -0.5699
   55MOL    H3820666   7.210   0.292   2.153 -0.5022  0.3674 -1.3613
   55MOL    H3920667   7.310   0.421   2.150  1.3430 -0.2644  1.8659
   55MOL    C4020668   7.028   7.757   2.579  0.0597  0.3365 -0.2982
   55MOL    C4120669   6.983   7.626   2.503 -0.1677 -0.0747  0.0276
   55MOL    C4220670   6.847   7.649   2.430  0.2646  1.3946 -0.0651
   55MOL    C4320671   6.833   7.750   2.320 -0.7363  0.3398  0.4022
   55MOL    C4420672   6.690   7.742   2.261 -0.1343 -0.2966  0.0865
   55MOL    C4520673   6.668   0.065   2.144 -0.0918  0.4101  0.1238
   55MOL    O4620674   6.970   7.524   2.597 -0.1213  0.0348 -0.0736
   55MOL    H4720675   6.988   0.062   2.535 -0.5005 -2.3446 -5.7446
   55MOL    H4820676   7.002   7.737   2.683  0.0251 -0.3740 -0.4380
   55MOL    H4920677   7.046   7.597   2.419 -1.1969 -1.8283 -0.1552
   55MOL    H5020678   6.805   7.556   2.391  2.5114 -0.1420  1.0306
   55MOL    H5120679   6.772   7.671   2.505  0.3274 -0.7789  0.6783
   55MOL    H5220680   6.900   7.728   2.237 -2.4636 -2.1872 -0.4097
   55MOL    H5320681   6.863   0.064   2.352  0.6345 -1.1905  4.0621
   55MOL    H5420682   6.665   7.642   2.227 -0.6266 -1.1380  2.7511
   55MOL    H5520683   6.622   7.761   2.345  0.7230 -1.5333  1.0953
   55MOL    H5620684   6.730   0.042   2.058  1.0026 -0.8979  1.2405
   55MOL    H5720685   6.563   0.074   2.115  0.1629  1.4799 -0.5103
   55MOL    H5820686   6.700   0.163   2.180 -0.5578  0.4430  0.4523
   55MOL    C5920687   7.094   7.464   2.643 -0.2654  0.3317 -0.2453
   55MOL    C6020688   7.073   7.310   2.676 -0.5494 -0.0646  0.0274
   55MOL    C6120689   7.205   7.232   2.639 -0.4313  0.2873 -1.1156
   55MOL    C6220690   7.203   7.082   2.669 -0.1740  0.3439 -0.3088
   55MOL    C6320691   7.325   7.007   2.616 -0.2060 -0.7005 -0.2863
   55MOL    C6420692   7.451   7.022   2.694  0.1754 -0.0806 -0.8561
   55MOL    O6520693   7.041   7.275   2.810  0.6563  0.3416  0.1185
   55MOL    H6620694   7.133   7.508   2.735 -5.5704 -0.7793  2.7364
   55MOL    H6720695   7.177   7.472   2.573  1.2298 -0.8452  1.3624
   55MOL    H6820696   6.999   7.277   2.602  0.0471  0.7693 -0.9579
   55MOL    H6920697   7.293   7.277   2.685  0.4362 -0.2693 -2.2039
   55MOL    H7020698   7.223   7.243   2.532  0.7631  0.2177 -0.9248
   55MOL    H7120699   7.110   7.042   2.632 -0.2156 -1.1852  1.3788
   55MOL    H7220700   7.215   7.073   2.777 -0.8300 -4.2990 -0.5555
   55MOL    H7320701   7.346   7.038   2.514 -1.6347  0.5036 -0.2282
   55MOL    H7420702   7.297   6.901   2.611  0.7145 -0.8481 -2.9662
   55MOL    H7520703   7.462   6.964   2.786  2.5940  0.7198 -0.5859
   55MOL    H7620704   7.533   7.006   2.624  0.0626 -0.9611 -0.7929
   55MOL    H7720705   7.460   7.124   2.731 -1.4902 -0.8392  1.7956
   55MOL    C7820706   6.932   7.352   2.850  0.6148  0.1165 -0.6741
   55MOL    C7920707   6.915   7.336   2.997  0.1789 -0.3656 -0.5393
   55MOL    C8020708   6.800   7.424   3.059 -0.7937  0.1364 -0.0967
   55MOL    C8120709   6.838   7.574   3.061  0.3478  0.4423  0.5645
   55MOL    C8220710   6.724   7.673   3.034 -0.3680  0.1318 -0.0017
   55MOL    C8320711   6.761   0.036   3.047 -0.6674  0.3280  0.2187
   55MOL    O8420712   7.038   7.381   3.052 -0.2787 -0.2031 -0.0728
   55MOL    H8520713   6.844   7.314   2.799 -1.3564  1.5191  1.6163
   55MOL    H8620714   6.933   7.459   2.834 -2.1626  0.9196  3.5593
   55MOL    H8720715   6.905   7.231   3.023 -2.4152 -0.0562 -0.1322
   55MOL    H8820716   6.704   7.413   3.008 -0.9313 -0.2093  0.2343
   55MOL    H8920717   6.786   7.401   3.165  1.2085  0.3286  0.2276
   55MOL    H9020718   6.920   7.604   2.996 -0.1213 -0.7604 -0.5898
   55MOL    H9120719   6.880   7.602   3.158 -0.6803  0.9444  0.8755
   55MOL    H9220720   6.691   7.655   2.932 -0.7638  1.3179 -0.0872
   55MOL    H9320721   6.638   7.655   3.099  0.2839  2.0283  1.4495
   55MOL    H9420722   6.697   0.106   2.994  1.7487  2.3830 -0.1185
   55MOL    H9520723   6.858   0.055   2.999 -0.6745 -0.9299 -0.3252
   55MOL    H9620724   6.781   0.069   3.149  0.9860  1.7564 -0.5349
   55MOL    C9720725   7.054   7.342   3.185 -0.7484 -0.0396 -0.1258
   55MOL    C9820726   7.208   7.326   3.214  0.4952  1.0417 -0.4408
   55MOL    C9920727   7.243   7.412   3.337 -0.1497 -0.5060 -0.9801
   55MOL   C10020728   7.388   7.406   3.367  0.0558  0.3199 -0.0304
   55MOL   C10120729   7.436   7.498   3.477 -0.1662 -0.2182 -0.7348
   55MOL   C10220730   7.587   7.493   3.525  0.5548 -0.1858 -0.0678
   55MOL   O10320731   7.236   7.185   3.245  0.0984  0.2062  0.1525
   55MOL   H10420732   7.006   7.250   3.216  1.7386 -1.3618 -0.0737
   55MOL   H10520733   7.012   7.417   3.251  2.9703  2.2066 -0.1543
   55MOL   H10620734   7.267   7.357   3.129  2.2398 -0.0776  0.3370
   55MOL   H10720735   7.191   7.397   3.432  0.0903  0.0581 -0.7548
   55MOL   H10820736   7.220   7.517   3.317 -1.1533 -0.6335 -0.5295
   55MOL   H10920737   7.438   7.435   3.274 -0.5153  0.7001 -0.2198
   55MOL   H11020738   7.417   7.302   3.385  2.4955  0.8740 -0.5892
   55MOL   H11120739   7.370   7.486   3.563 -2.8057  2.2675 -2.2994
   55MOL   H11220740   7.412   7.598   3.440 -2.2493 -0.6843 -0.7082
   55MOL   H11320741   7.611   7.393   3.560 -0.1295 -0.8741 -1.5317
   55MOL   H11420742   7.658   7.531   3.452  0.0607  1.2677  0.1745
   55MOL   H11520743   7.593   7.563   3.609 -1.7604 -1.0462  0.8528
   55MOL   C11620744   7.236   7.095   3.134  0.1257 -0.2455 -0.7236
   55MOL   C11720745   7.261   6.951   3.183 -0.8130 -0.4327  0.0382
   55MOL   C11820746   7.403   6.932   3.246  0.4106 -0.4039 -0.7046
   55MOL   C11920747   7.433   6.797   3.305 -1.1273 -0.5398  0.0460
   55MOL   C12020748   7.547   6.795   3.406 -0.1441  0.1802 -0.2932
   55MOL   C12120749   7.590   6.661   3.448  0.1963  0.0532 -0.1758
   55MOL   O12220750   7.262   6.858   3.073  0.5856  0.0660  0.0493
   55MOL   H12320751   7.140   7.095   3.082 -0.2044 -0.9656 -0.1302
   55MOL   H12420752   7.319   7.132   3.075  1.8205  0.8327  2.2054
   55MOL   H12520753   7.202   6.917   3.268 -1.3745  2.6845  0.9755
   55MOL   H12620754   7.477   6.963   3.172  0.5566  0.8403 -0.0459
   55MOL   H12720755   7.428   6.996   3.330  1.3004 -1.2402 -0.3233
   55MOL   H12820756   7.463   6.730   3.224  1.7766 -0.9539  1.3845
   55MOL   H12920757   7.345   6.754   3.352 -1.2050 -1.4704 -0.9231
   55MOL   H13020758   7.635   6.853   3.379 -1.4393  1.7551 -1.2083
   55MOL   H13120759   7.529   6.851   3.497 -0.8706  2.9426 -2.0845
   55MOL   H13220760   7.537   6.615   3.531  1.8099  0.5069  1.1149
   55MOL   H13320761   7.580   6.586   3.369  0.0526 -1.2624  1.0688
   55MOL   H13420762   7.693   6.657   3.483  0.9407  0.8570 -2.2138
   55MOL   C13520763   7.134   6.826   3.018  0.4221  0.1112  0.0733
   55MOL   C13620764   7.133   6.688   2.951 -0.3156 -0.0638  0.5147
   55MOL   C13720765   7.233   6.675   2.836  0.0725 -0.2192  0.0950
   55MOL   C13820766   7.204   6.541   2.755 -0.0661 -0.0326  0.2630
   55MOL   C13920767   7.201   6.415   2.846 -0.3753 -0.2843 -0.1841
   55MOL   C14020768   7.325   6.395   2.933  0.0448  0.3131 -0.3003
   55MOL   O14120769   7.002   6.688   2.901 -0.2737  0.3396  0.4029
   55MOL   H14220770   7.059   6.825   3.097  1.1105 -2.6748  0.7288
   55MOL   H14320771   7.110   6.890   2.933 -0.9361  0.6137  0.8145
   55MOL   H14420772   7.149   6.614   3.029  1.4475 -1.4722 -1.1400
   55MOL   H14520773   7.227   6.763   2.772 -1.3649  0.3344  0.9428
   55MOL   H14620774   7.337   6.682   2.865  0.4217 -1.7556 -0.7300
   55MOL   H14720775   7.281   6.537   2.679  0.5294  2.0074  0.7194
   55MOL   H14820776   7.112   6.558   2.699  0.2871 -1.0203 -0.6182
   55MOL   H14920777   7.205   6.327   2.782  0.4516 -0.5494  0.2178
   55MOL   H15020778   7.105   6.404   2.896 -0.2856  1.1706  0.3454
   55MOL   H15120779   7.354   6.486   2.985 -1.2773  0.2951  0.4744
   55MOL   H15220780   7.318   6.311   3.002  0.5669  1.3432  1.0360
   55MOL   H15320781   7.406   6.362   2.869  0.5224  1.1393 -0.1301
   55MOL   C15420782   6.907   6.629   2.993  0.1431  0.4284 -0.8186
   55MOL   C15520783   6.776   6.614   2.908  0.3340  1.1509 -0.5918
   55MOL   C15620784   6.658   6.541   2.976 -0.3469 -0.3472 -0.0444
   55MOL   C15720785   6.546   6.521   2.873  0.0854  0.1975 -0.2560
   55MOL   C15820786   6.420   6.457   2.933  0.2986 -0.1256 -0.1103
   55MOL   C15920787   6.300   6.432   2.844 -0.5129 -0.6470  0.0303
   55MOL   O16020788   6.748   6.742   2.863 -0.3551 -0.0499  0.2480
   55MOL   H16120789   6.888   6.685   3.084 -0.3909 -0.7888 -0.1608
   55MOL   H16220790   6.940   6.531   3.028  2.5719  1.1842 -0.8771
   55MOL   H16320791   6.802   6.536   2.837 -1.2984 -0.6323  0.7053
   55MOL   H16420792   6.624   6.598   3.063  2.4794  0.9996  0.2526
   55MOL   H16520793   6.691   6.443   3.010 -0.1203  0.3427  1.7685
   55MOL   H16620794   6.589   6.453   2.799  1.1223 -0.4816  0.9534
   55MOL   H16720795   6.521   6.611   2.817 -1.5122  0.7855  1.3793
   55MOL   H16820796   6.444   6.369   2.992  1.6741  1.6473  2.0950
   55MOL   H16920797   6.384   6.530   3.006 -1.1785 -1.3365  0.3895
   55MOL   H17020798   6.305   6.333   2.798  0.3054 -0.5365 -0.1241
   55MOL   H17120799   6.298   6.509   2.767 -0.4550 -0.9618 -0.2897
   55MOL   H17220800   6.213   6.434   2.910  0.3841 -2.9727  1.3325
   55MOL   C17320801   6.773   6.741   2.722  0.1275  0.4107  0.4087
   55MOL   C17420802   6.787   6.883   2.671  0.7064  0.0370 -0.0619
   55MOL   C17520803   6.839   6.900   2.529  0.7211  0.2305  0.4120
   55MOL   C17620804   6.744   6.850   2.415 -0.3033  0.3442  0.0262
   55MOL   C17720805   6.832   6.783   2.303  0.6734 -0.7418  0.7830
   55MOL   C17820806   6.739   6.723   2.196  0.4894  0.2693  0.2054
   55MOL   O17920807   6.656   6.943   2.672 -0.7382  0.2700 -0.8392
   55MOL   H18020808   6.693   6.684   2.675 -0.0540 -0.9394  2.2801
   55MOL   H18120809   6.855   6.675   2.693 -0.2608  0.4563 -0.8124
   55MOL   H18220810   6.850   6.935   2.743  0.6117 -2.1199  1.5995
   55MOL   H18320811   6.868   7.004   2.513  1.3600  0.3145  1.9883
   55MOL   H18420812   6.931   6.840   2.528  0.1241 -0.6884 -0.1682
   55MOL   H18520813   6.661   6.790   2.454 -0.0961  0.9123  1.3785
   55MOL   H18620814   6.693   6.935   2.369  0.1307  0.2866 -0.5657
   55MOL   H18720815   6.900   6.855   2.258  0.7368 -1.1446  0.2284
   55MOL   H18820816   6.889   6.699   2.343  1.2063 -0.1036  1.3831
   55MOL   H18920817   6.674   6.794   2.145 -0.1047 -0.4400 -0.0223
   55MOL   H19020818   6.678   6.650   2.247  1.3538 -0.0022  0.8604
   55MOL   H19120819   6.795   6.669   2.119 -1.3189  0.6585 -1.4368
   55MOL   C19220820   6.664   7.080   2.687 -0.9099 -1.0335  0.2436
   55MOL   C19320821   6.514   7.120   2.668  0.2170  0.7394 -0.4077
   55MOL   C19420822   6.498   7.274   2.623 -0.5213 -0.2954  0.1180
   55MOL   C19520823   6.359   7.316   2.560  0.1722  0.4668 -0.0438
   55MOL   C19620824   6.302   7.209   2.466  0.2070 -0.2616 -0.5802
   55MOL   C19720825   6.186   7.264   2.382 -0.1378  0.3150  0.2646
   55MOL   O19820826   6.446   7.099   2.794 -0.0633 -0.4840  0.4961
   55MOL   H19920827   6.694   7.115   2.786 -3.3495  0.9604  0.3536
   55MOL   H20020828   6.735   7.125   2.617  0.0800 -0.9507  1.2923
   55MOL   H20120829   6.464   7.049   2.601 -1.5829  0.9358  0.7002
   55MOL   H20220830   6.510   7.343   2.706  0.3756  0.6855 -0.8180
   55MOL   H20320831   6.572   7.295   2.546 -0.3245  3.9979  1.4000
   55MOL   H20420832   6.364   7.413   2.510  0.1215  0.5102  0.0344
   55MOL   H20520833   6.281   7.338   2.633 -0.8604 -0.4384 -0.8550
   55MOL   H20620834   6.373   7.159   2.399  0.8570  0.5795 -0.5283
   55MOL   H20720835   6.259   7.143   2.541  0.5703 -0.2453 -0.3549
   55MOL   H20820836   6.222   7.325   2.299 -1.7292  1.6116  0.5115
   55MOL   H20920837   6.136   7.183   2.328  1.5820 -0.0439 -0.8394
   55MOL   H21020838   6.122   7.327   2.443  0.4093  2.1602 -1.0404
   55MOL   C21120839   6.373   6.975   2.802  0.1124 -0.7769  0.6722
   55MOL   C21220840   6.292   6.983   2.932  0.0683 -0.7607 -0.3980
   55MOL   C21320841   6.294   6.852   3.014 -0.2881 -0.1664  0.1503
   55MOL   C21420842   6.207   6.872   3.142 -0.4142 -0.0299 -0.4104
   55MOL   C21520843   6.212   6.756   3.232  0.4552  0.0762 -0.0816
   55MOL   C21620844   6.123   6.780   3.348 -0.8852  0.2613  0.1436
   55MOL   O21720845   6.151   7.013   2.910 -0.0655  0.3776 -0.1253
   55MOL   H21820846   6.450   6.898   2.807  0.1807 -0.7426  0.1982
   55MOL   H21920847   6.310   6.953   2.715  1.3070  0.2862 -0.4837
   55MOL   H22020848   6.333   7.062   2.994 -1.5661  0.9418 -1.4189
   55MOL   H22120849   6.257   6.763   2.962 -1.8823 -0.1956  1.3069
   55MOL   H22220850   6.399   6.831   3.035  0.9614  1.7982 -3.5875
   55MOL   H22320851   6.246   6.964   3.186  0.4440 -0.6662  0.1786
   55MOL   H22420852   6.104   6.896   3.118 -0.3738  0.1958 -0.3646
   55MOL   H22520853   6.168   6.668   3.185  2.2281 -0.3655 -0.9661
   55MOL   H22620854   6.313   6.721   3.255  0.3863 -1.0326 -1.4050
   55MOL   H22720855   6.129   6.882   3.384 -0.0555  0.2916 -0.0622
   55MOL   H22820856   6.148   6.716   3.433  0.5872 -0.2320 -0.6308
   55MOL   H22920857   6.019   6.758   3.325 -0.9546  1.0038 -0.2429
   55MOL   C23020858   6.133   7.133   2.833  0.5499 -0.4960  0.7263
   55MOL   C23120859   5.983   7.178   2.844  0.3700  0.3022 -0.3023
   55MOL   C23220860   5.939   7.278   2.742  0.0494  0.3401  0.1677
   55MOL   C23320861   5.794   7.328   2.747 -0.3273  0.0081  0.0767
   55MOL   C23420862   5.745   7.407   2.618 -0.1397  0.2319  0.3972
   55MOL   C23520863   5.617   7.481   2.651  0.3561  0.7651 -1.2377
   55MOL   O23620864   5.967   7.247   2.974  0.0407  0.3319 -0.2848
   55MOL   H23720865   6.194   7.221   2.849 -1.6779  1.2306  0.0519
   55MOL   H23820866   6.142   7.108   2.727 -0.2695 -1.0806  0.7881
   55MOL   H23920867   5.924   7.087   2.850 -2.5920  2.1855 -0.3184
   55MOL   H24020868   5.936   7.231   2.643 -0.3400 -1.1282  0.8605
   55MOL   H24120869   6.005   7.360   2.715  1.6944 -0.7979  0.6911
   55MOL   H24220870   5.808   7.389   2.837  1.6463  0.4587 -0.5105
   55MOL   H24320871   5.734   7.242   2.775  0.0249  0.1405  1.3007
   55MOL   H24420872   5.815   7.484   2.589 -3.2853  2.6024 -1.2251
   55MOL   H24520873   5.726   7.335   2.539 -0.2676  0.1647  0.4876
   55MOL   H24620874   5.565   7.516   2.562 -0.8323  2.5086  0.1167
   55MOL   H24720875   5.634   7.566   2.717 -2.0114 -1.4508  2.4237
   55MOL   H24820876   5.540   7.421   2.699  0.9756  1.2935  0.4514
   55MOL   C24920877   5.937   7.166   3.090  0.9056  0.1806  0.7425
   55MOL   C25020878   5.904   7.263   3.203 -0.3095 -0.4033 -0.1072
   55MOL   C25120879   5.807   7.382   3.161 -0.6995  0.1943  0.0054
   55MOL   C25220880   5.770   7.490   3.260 -0.0112 -0.2424  0.0629
   55MOL   C25320881   5.689   7.602   3.190  0.2592  0.2065  0.2976
   55MOL   C25420882   5.547   7.552   3.140 -0.6026  0.1099  0.0599
   55MOL   O25520883   6.018   7.317   3.269  0.0479 -0.1721 -0.5676
   55MOL   H25620884   5.852   7.103   3.066 -0.3667  1.8029  0.8847
   55MOL   H25720885   6.017   7.095   3.110  0.7024 -0.7095 -1.4405
   55MOL   H25820886   5.856   7.194   3.273  0.5999  0.1433  1.0896
   55MOL   H25920887   5.864   7.446   3.093  1.4710 -2.2324 -0.5658
   55MOL   H26020888   5.720   7.338   3.113 -0.8729  0.1046  0.4040
   55MOL   H26120889   5.713   7.456   3.346 -4.1232 -0.6586 -2.6653
   55MOL   H26220890   5.866   7.529   3.293 -1.0129  1.9126  0.5524
   55MOL   H26320891   5.680   7.686   3.259  3.6571 -0.5417  1.7489
   55MOL   H26420892   5.744   7.637   3.102 -2.0619 -1.1552 -1.7425
   55MOL   H26520893   5.559   7.480   3.059  0.2121  1.3748 -0.9770
   55MOL   H26620894   5.494   7.642   3.107 -0.2260  0.5673  0.6723
   55MOL   H26720895   5.499   7.505   3.225  1.2662 -0.8696  0.6132
   55MOL   C26820896   6.116   7.381   3.186  0.6053 -0.1034 -0.4479
   55MOL   C26920897   6.210   7.472   3.261  0.3225 -0.1348  0.4450
   55MOL   C27020898   6.231   7.609   3.193  0.1326  0.4157  0.0696
   55MOL   C27120899   6.322   7.705   3.270 -0.4884 -0.3702 -0.1388
   55MOL   C27220900   6.349   0.045   3.196 -0.2172  0.3041 -0.7567
   55MOL   C27320901   6.455   0.124   3.276 -0.5813 -0.2798  0.2393
   55MOL   O27420902   6.337   7.413   3.254  0.3967  0.5823  0.3786
   55MOL   H27520903   6.076   7.430   3.097  0.4441 -0.1714 -0.4139
   55MOL   H27620904   6.184   7.303   3.151 -0.6678 -1.4270 -0.0570
   55MOL   H27720905   6.179   7.484   3.364  1.6880  0.1036  0.8286
   55MOL   H27820906   6.269   7.588   3.093  2.6455  1.5128  0.7725
   55MOL   H27920907   6.133   7.657   3.190  0.6395  1.3726 -1.3308
   55MOL   H28020908   6.286   7.727   3.370  1.8486  0.5281  0.5378
   55MOL   H28120909   6.417   7.653   3.278  1.3009  2.6639 -0.8653
   55MOL   H28220910   6.374   0.016   3.094 -0.8936  0.8095 -1.0737
   55MOL   H28320911   6.269   0.116   3.176 -1.5729 -0.5544  1.4019
   55MOL   H28420912   6.406   0.162   3.366 -1.0017  1.2670 -0.6249
   55MOL   H28520913   6.545   0.070   3.305 -0.4113  0.3205  0.8425
   55MOL   H28620914   6.484   0.216   3.227 -0.1955  0.1766  1.2977
   55MOL   C28720915   6.366   7.329   3.363  0.3237  0.1450 -0.3062
   55MOL   C28820916   6.507   7.261   3.340  0.3839 -0.3982  0.5755
   55MOL   C28920917   6.517   7.143   3.238  0.4048 -0.3328 -0.5054
   55MOL   C29020918   6.662   7.088   3.231 -0.0152 -0.0848 -0.5261
   55MOL   C29120919   6.692   7.025   3.099  0.6705  0.1644 -0.3646
   55MOL   C29220920   6.829   6.960   3.093 -0.5406  0.5487  0.3689
   55MOL   O29320921   6.561   7.211   3.462 -0.5660 -0.2104 -0.0695
   55MOL   H29420922   6.284   7.258   3.370  2.2646 -2.3284 -1.7605
   55MOL   H29520923   6.363   7.397   3.448 -0.1917  0.3232 -0.4700
   55MOL   H29620924   6.568   7.346   3.306  1.2130 -0.8083  1.0140
   55MOL   H29720925   6.443   7.064   3.249 -1.7607  1.5258 -1.4374
   55MOL   H29820926   6.491   7.197   3.147  0.2748  0.3348 -0.0774
   55MOL   H29920927   6.743   7.157   3.253  1.4720 -2.0359  0.2352
   55MOL   H30020928   6.664   7.007   3.303  0.8441  1.9768  1.8283
   55MOL   H30120929   6.678   7.102   3.024 -0.7623  0.7244  0.4532
   55MOL   H30220930   6.617   6.952   3.069  1.8402 -1.4694  0.6326
   55MOL   H30320931   6.908   7.034   3.103  1.3932 -0.8318 -3.5381
   55MOL   H30420932   6.838   6.891   3.177  1.6527 -1.1363 -1.1783
   55MOL   H30520933   6.836   6.905   2.999 -0.2377 -0.7729  1.1427
   55MOL   C30620934   6.594   7.295   3.569  0.1780 -0.6833 -0.3035
   55MOL   C30720935   6.744   7.324   3.556  0.0047  0.1122 -0.4946
   55MOL   C30820936   6.821   7.216   3.621  0.4387 -0.5930 -0.8350
   55MOL   C30920937   6.972   7.222   3.581  0.3255  0.1735 -0.1002
   55MOL   C31020938   7.028   7.083   3.608 -0.3748  0.2727 -0.6121
   55MOL   C31120939   7.037   6.985   3.483  0.2077 -0.6511  0.1546
   55MOL   O31220940   6.765   7.444   3.634  1.0504  0.4728  0.5869
   55MOL   H31320941   6.538   7.388   3.572  0.5922 -0.4939  1.8661
   55MOL   H31420942   6.559   7.263   3.667 -1.0825 -1.2943 -0.9329
   55MOL   H31520943   6.765   7.336   3.450  0.2964 -0.4574 -0.5044
   55MOL   H31620944   6.782   7.118   3.593  1.1530 -1.4653  1.1023
   55MOL   H31720945   6.797   7.215   3.727  0.9665  0.6086 -0.6973
   55MOL   H31820946   6.981   7.254   3.477 -0.0960  1.3091  0.2120
   55MOL   H31920947   7.026   7.287   3.649 -1.9512  0.0884  1.8478
   55MOL   H32020948   6.977   7.026   3.686 -2.7142  1.0395 -1.5635
   55MOL   H32120949   7.130   7.100   3.644  0.3265  1.3497 -3.0439
   55MOL   H32220950   7.098   7.034   3.408 -2.1540  0.8902 -0.8245
   55MOL   H32320951   7.085   6.891   3.511 -1.5595 -1.9615 -1.1315
   55MOL   H32420952   6.932   6.966   3.459 -0.2470  1.4662  0.3593
   55MOL   C32520953   6.771   7.561   3.543  0.0928 -0.1831 -0.1453
   55MOL   C32620954   6.783   7.699   3.613  0.0582  0.4297 -0.1740
   55MOL   C32720955   6.738   0.022   3.512  0.1219  0.6907  0.0863
   55MOL   C32820956   6.753   0.169   3.568 -0.0277 -0.3858  0.1576
   55MOL   C32920957   6.698   0.284   3.482  0.5748 -0.8859 -0.0420
   55MOL   C33020958   6.729   0.428   3.530 -0.6638 -0.0946 -0.4152
   55MOL   O33120959   6.917   7.732   3.634  0.0048 -0.1314  0.7037
   55MOL   H33220960   6.677   7.569   3.489 -0.4813  1.9327  1.1162
   55MOL   H33320961   6.845   7.551   3.463  1.3292 -2.2237  1.1855
   55MOL   H33420962   6.724   7.713   3.704  1.8070 -0.8552  1.2015
   55MOL   H33520963   6.791   0.015   3.418 -1.8887  1.4942 -1.1574
   55MOL   H33620964   6.633   0.002   3.490  0.2019  1.0016 -0.5824
   55MOL   H33720965   6.710   0.178   3.668 -0.9886 -0.8973 -0.2051
   55MOL   H33820966   6.860   0.183   3.583 -0.1847  0.7037  0.2574
   55MOL   H33920967   6.744   0.285   3.383  2.0707  2.4952  0.6166
   55MOL   H34020968   6.591   0.265   3.474  0.7464 -1.6810 -0.4918
   55MOL   H34120969   6.689   0.460   3.627  0.8596  0.9938 -0.1348
   55MOL   H34220970   6.836   0.448   3.536 -1.0286  1.7726  0.3595
   55MOL   H34320971   6.703   0.503   3.456  1.0580  0.0037 -0.9339
   55MOL   C34420972   7.007   7.660   3.721 -0.7062 -0.5126 -0.7568
   55MOL   C34520973   7.134   7.737   3.745  0.5880  0.4192  0.5128
   55MOL   C34620974   7.200   7.779   3.608  0.0541  0.3671  0.0695
   55MOL   C34720975   7.329   0.065   3.622  0.9733 -0.5101  0.1575
   55MOL   C34820976   7.402   0.104   3.497 -0.2305  0.0857 -0.1822
   55MOL   C34920977   7.548   0.142   3.523  0.2853  0.0587 -0.6651
   55MOL   O35020978   7.125   0.059   3.834 -0.5009  0.4730  0.2695
   55MOL   H35120979   7.034   7.568   3.669  0.3129  1.6133 -4.1125
   55MOL   H35220980   6.957   7.621   3.810  0.6220 -1.2867 -0.3331
   55MOL   H35320981   7.197   7.663   3.795 -0.5396 -0.4130  0.7019
   55MOL   H35420982   7.122   0.048   3.554 -1.4912 -2.1145 -0.3061
   55MOL   H35520983   7.215   7.691   3.545 -1.5279  0.2675 -0.2100
   55MOL   H35620984   7.387   7.777   3.678 -1.7937 -2.4648  0.5342
   55MOL   H35720985   7.337   0.158   3.678 -2.1647  0.3284 -0.6846
   55MOL   H35820986   7.354   0.190   3.451  1.3559  0.4321 -1.2461
   55MOL   H35920987   7.406   0.018   3.429  0.5703 -1.1502  1.3833
   55MOL   H36020988   7.593   0.157   3.425  0.3797  2.7244 -0.2640
   55MOL   H36120989   7.595   0.071   3.592 -0.1401 -0.7663 -1.2141
   55MOL   H36220990   7.551   0.242   3.566  0.5903  0.7980 -2.3553
   55MOL   C36320991   7.118   0.017   3.973 -0.5186  0.3467 -0.6766
   55MOL   C36420992   7.100   0.142   4.053  0.3181 -0.0760 -0.5756
   55MOL   C36520993   7.088   0.125   4.210 -0.4166 -0.2111  0.0273
   55MOL   C36620994   7.058   0.263   4.275 -0.2324  1.1744  0.3285
   55MOL   C36720995   7.006   0.244   4.423 -1.0520  0.0728 -0.2259
   55MOL   C36820996   6.966   0.375   4.488  0.0244 -0.0547 -0.1282
   55MOL   O36920997   7.212   0.215   4.039  0.1656  0.0268 -0.1892
   55MOL   H37020998   7.210   7.756   4.008 -1.2279 -2.3494 -2.2583
   55MOL   H37120999   7.024   7.752   3.994 -0.6322  0.7856 -0.1027
   55MOL   H37221000   7.015   0.195   4.010 -0.6485 -0.1170  1.2184
   55MOL   H37321001   7.009   0.050   4.218 -0.9494  0.0344 -2.4843
   55MOL   H37421002   7.178   0.081   4.251 -1.1451 -0.3025  1.5433
   55MOL   H37521003   7.141   0.333   4.261 -0.3282  0.7261 -2.6868
   55MOL   H37621004   6.974   0.304   4.218 -0.0539 -2.2756 -2.5943
   55MOL   H37721005   6.920   0.177   4.426 -0.6906 -0.3471  2.2655
   55MOL   H37821006   7.066   0.177   4.484  1.2763  0.6721 -1.8199
   55MOL   H37921007   6.885   0.426   4.436  0.8551  2.1277  0.6140
   55MOL   H38021008   6.947   0.365   4.594  0.9540  2.0690  0.2743
   55MOL   H38121009   7.047   0.448   4.481 -0.9329  1.1304  0.9832
   55MOL   H38221010   7.246   0.202   3.952  2.4306 -0.5831  0.7625
   56MOL     C121011   6.017   4.979   0.999 -0.5167  0.1851  0.2359
   56MOL     C221012   6.159   5.012   1.039 -0.5474 -0.3763  0.0898
   56MOL     C321013   6.177   5.052   1.186 -0.5816  0.4827 -0.1356
   56MOL     C421014   6.097   5.174   1.235  0.2086 -0.1342  0.3312
   56MOL     C521015   6.164   5.309   1.200  0.3357 -0.0923 -0.5858
   56MOL     C621016   6.060   5.423   1.182  0.2336  0.4487 -0.0545
   56MOL     O721017   6.227   4.887   1.003 -0.4434 -0.4014  0.5440
   56MOL     H821018   6.003   4.924   0.906  0.8986  1.4964 -0.7909
   56MOL     H921019   5.967   5.076   0.997 -2.5496 -0.8448  0.2725
   56MOL    H1021020   6.205   5.090   0.978 -0.3289  0.1047  0.8724
   56MOL    H1121021   6.137   4.966   1.241 -0.6267  1.2075  0.9825
   56MOL    H1221022   6.283   5.051   1.210 -0.3618 -1.6791 -1.0638
   56MOL    H1321023   5.996   5.174   1.195  0.9640 -0.6571 -1.6640
   56MOL    H1421024   6.079   5.161   1.342  0.0697 -1.2663  0.1791
   56MOL    H1521025   6.248   5.339   1.262 -0.5597 -0.5112  0.8677
   56MOL    H1621026   6.199   5.296   1.098  0.1264  0.5404 -0.7470
   56MOL    H1721027   6.108   5.509   1.134 -1.5387  1.1706 -0.5587
   56MOL    H1821028   5.984   5.392   1.110 -0.8719  1.4444  0.6524
   56MOL    H1921029   5.999   5.455   1.266  1.3828 -0.3501  1.1081
   56MOL    H2021030   5.976   4.915   1.077 -1.2532 -0.9159 -1.0406
   56MOL    C2121031   6.361   4.907   0.955  0.5665 -0.3328 -0.3927
   56MOL    C2221032   6.451   4.784   0.952  0.4305  0.7173 -0.5161
   56MOL    C2321033   6.556   4.801   0.838 -0.8578  0.0168  0.2202
   56MOL    C2421034   6.642   4.932   0.842  1.1742 -0.3216 -0.1778
   56MOL    C2521035   6.711   4.948   0.702  0.3049  0.6187 -0.3535
   56MOL    C2621036   6.773   4.823   0.638  0.2074  0.6600  0.5712
   56MOL    O2721037   6.522   4.770   1.075  0.1974  0.0672 -0.3724
   56MOL    H2821038   6.351   4.949   0.855 -0.0304 -0.2676 -0.3122
   56MOL    H2921039   6.413   4.985   1.011  0.0302  0.2528 -0.6964
   56MOL    H3021040   6.406   4.688   0.925  0.7384  0.2036  0.7537
   56MOL    H3121041   6.485   4.802   0.756 -1.9041  2.6004  1.0727
   56MOL    H3221042   6.605   4.705   0.849 -2.9200 -1.3621 -2.1335
   56MOL    H3321043   6.716   4.925   0.922  0.5016 -2.0030  0.3279
   56MOL    H3421044   6.582   5.017   0.873  0.6961 -0.1746 -1.4867
   56MOL    H3521045   6.630   4.989   0.642  0.9303 -0.1213 -1.7139
   56MOL    H3621046   6.785   5.028   0.698  0.2230  0.6944 -0.3519
   56MOL    H3721047   6.875   4.801   0.669  0.6094  0.2328 -1.0175
   56MOL    H3821048   6.781   4.829   0.530 -1.2239 -0.9840  0.3282
   56MOL    H3921049   6.715   4.730   0.650 -2.1463  1.7501 -1.9097
   56MOL    C4021050   6.461   4.703   1.180 -0.2122  0.2525 -0.3037
   56MOL    C4121051   6.537   4.718   1.310 -0.4136  0.3549  0.6902
   56MOL    C4221052   6.504   4.852   1.381  0.1151  0.4404  0.0022
   56MOL    C4321053   6.559   4.986   1.327 -0.2666 -0.3121  0.0787
   56MOL    C4421054   6.518   5.116   1.408 -0.1830 -0.0673  0.1257
   56MOL    C4521055   6.571   5.241   1.335 -0.3007  0.9911 -0.5103
   56MOL    O4621056   6.677   4.714   1.295 -0.1381  0.2492  0.1144
   56MOL    H4721057   6.454   4.597   1.154  0.3970 -0.0113  0.5858
   56MOL    H4821058   6.357   4.732   1.193 -0.7421 -1.1927 -1.1518
   56MOL    H4921059   6.508   4.635   1.374  0.0540  0.4611  1.0421
   56MOL    H5021060   6.397   4.866   1.401 -0.1563 -0.6451 -0.6837
   56MOL    H5121061   6.545   4.853   1.482  1.9568 -1.5269 -0.6776
   56MOL    H5221062   6.520   4.994   1.225  0.7780  2.0883 -0.1749
   56MOL    H5321063   6.667   4.983   1.310 -0.3448 -1.9209 -0.1998
   56MOL    H5421064   6.410   5.125   1.413 -0.1511 -0.3808  1.5747
   56MOL    H5521065   6.564   5.119   1.506 -1.6650  1.2295  0.7893
   56MOL    H5621066   6.677   5.238   1.307 -0.9768 -2.4345 -3.0932
   56MOL    H5721067   6.525   5.254   1.237 -0.9435  1.6228 -0.1268
   56MOL    H5821068   6.532   5.319   1.401  1.1543 -0.1458  1.7328
   56MOL    C5921069   6.736   4.592   1.319 -0.7161  0.6903  0.1629
   56MOL    C6021070   6.880   4.588   1.279  0.2899 -0.8019 -1.0344
   56MOL    C6121071   6.943   4.472   1.354 -0.2456  0.7890 -0.1253
   56MOL    C6221072   7.094   4.464   1.350  0.4515 -0.5324  0.1562
   56MOL    C6321073   7.150   4.336   1.412  0.5115 -0.3913  0.0113
   56MOL    C6421074   7.099   4.207   1.344  0.0431  0.0498 -0.8808
   56MOL    O6521075   6.880   4.555   1.139  0.2843  0.3371  0.0644
   56MOL    H6621076   6.673   4.510   1.286  2.8739 -1.3882 -1.9191
   56MOL    H6721077   6.727   4.583   1.427  0.8044 -1.3877  0.1438
   56MOL    H6821078   6.941   4.674   1.307 -2.5360  0.2883  2.0596
   56MOL    H6921079   6.903   4.374   1.329 -0.6588  0.9456 -0.0724
   56MOL    H7021080   6.929   4.482   1.461  0.7156 -2.5953  0.3941
   56MOL    H7121081   7.141   4.553   1.391  1.3378  0.3882 -2.8147
   56MOL    H7221082   7.124   4.465   1.246  0.7280 -0.0110  0.2403
   56MOL    H7321083   7.132   4.334   1.520  1.3032  1.8666  0.2071
   56MOL    H7421084   7.258   4.331   1.402  0.5849 -1.8494  1.3219
   56MOL    H7521085   7.107   4.211   1.235  3.0628 -5.2622 -1.0120
   56MOL    H7621086   7.175   4.131   1.356 -1.1169 -0.7372  1.9928
   56MOL    H7721087   7.006   4.164   1.381 -0.0394  1.1871  0.2810
   56MOL    C7821088   6.868   4.663   1.043 -0.1563 -0.1212  0.0611
   56MOL    C7921089   6.999   4.699   0.973  0.5953 -0.0050  0.6389
   56MOL    C8021090   7.067   4.591   0.893  0.2456 -0.4656  0.2141
   56MOL    C8121091   7.198   4.622   0.827  0.1591 -0.4505 -0.2242
   56MOL    C8221092   7.244   4.511   0.733  0.0270 -1.0811  0.0214
   56MOL    C8321093   7.356   4.548   0.635 -0.3923  0.0169  0.1636
   56MOL    O8421094   7.084   4.750   1.067 -0.3153  0.5014  0.0040
   56MOL    H8521095   6.825   4.751   1.092  1.2049 -0.3974  1.8022
   56MOL    H8621096   6.795   4.629   0.969 -0.0378  1.2379 -0.6957
   56MOL    H8721097   6.978   4.782   0.905  3.5193  0.0912 -0.1942
   56MOL    H8821098   7.072   4.503   0.957 -2.9490 -1.3131 -0.5937
   56MOL    H8921099   6.995   4.564   0.816 -1.4747  1.5563  1.0529
   56MOL    H9021100   7.279   4.644   0.896 -0.6891  0.6963  0.4193
   56MOL    H9121101   7.193   4.717   0.773  0.2970  0.7341  1.8046
   56MOL    H9221102   7.283   4.434   0.800  2.1589 -0.5466 -0.5617
   56MOL    H9321103   7.158   4.472   0.678 -0.2376 -0.6373  0.1171
   56MOL    H9421104   7.387   4.465   0.573 -1.7805 -0.6314  0.3343
   56MOL    H9521105   7.438   4.596   0.690 -2.1570  1.8576  1.2764
   56MOL    H9621106   7.312   4.626   0.573 -0.5687 -0.2305 -0.0178
   56MOL    C9721107   7.074   4.887   1.092  0.1422  0.3182  0.0440
   56MOL    C9821108   7.166   4.919   1.215 -0.0887 -0.5998  0.2909
   56MOL    C9921109   7.311   4.876   1.201 -1.0185  0.2107 -0.9244
   56MOL   C10021110   7.407   4.921   1.310 -0.1149  0.5389  0.2934
   56MOL   C10121111   7.508   5.025   1.263  0.2705  0.1718 -0.4070
   56MOL   C10221112   7.606   5.066   1.368 -0.0685 -1.2197  0.0332
   56MOL   O10321113   7.177   5.060   1.218 -0.5485 -0.1768  0.1600
   56MOL   H10421114   6.972   4.915   1.121 -0.3076 -2.1516  0.9302
   56MOL   H10521115   7.104   4.939   1.001  0.3543  1.2276  0.6262
   56MOL   H10621116   7.120   4.885   1.308 -1.3873  1.6042  0.4689
   56MOL   H10721117   7.353   4.903   1.104  0.9841  0.4946 -0.0049
   56MOL   H10821118   7.327   4.769   1.190  1.4692 -0.0536  3.8165
   56MOL   H10921119   7.465   4.834   1.338  0.0925  0.4985 -0.2509
   56MOL   H11021120   7.341   4.941   1.394 -0.6309 -0.6317  0.1740
   56MOL   H11121121   7.455   5.114   1.230 -0.2415  0.2072  0.4963
   56MOL   H11221122   7.565   4.992   1.176  1.3122  1.2058 -0.1235
   56MOL   H11321123   7.559   5.106   1.458 -0.1738  2.5379 -1.5749
   56MOL   H11421124   7.672   4.985   1.399  1.8663  0.4051  0.2362
   56MOL   H11521125   7.659   5.155   1.333 -0.9803 -1.2702 -1.5186
   56MOL   C11621126   7.059   5.137   1.255  0.1703 -0.2564  0.5694
   56MOL   C11721127   7.091   5.287   1.285 -0.0913 -0.6108  0.9141
   56MOL   C11821128   6.983   5.369   1.357  0.2067  0.4379  0.0813
   56MOL   C11921129   7.035   5.508   1.390 -0.2703 -0.6643 -0.5497
   56MOL   C12021130   6.917   5.588   1.454  0.1314  0.3254  0.0023
   56MOL   C12121131   6.953   5.702   1.545  0.5866  0.4992  1.2427
   56MOL   O12221132   7.133   5.357   1.172 -0.6330 -0.2120  0.3616
   56MOL   H12321133   6.983   5.138   1.177  0.4445  1.4411  0.3087
   56MOL   H12421134   7.018   5.095   1.347  3.4101  0.4118  2.4367
   56MOL   H12521135   7.174   5.282   1.356 -0.5674  0.8638  1.6018
   56MOL   H12621136   6.895   5.385   1.294  1.5170  1.5957 -1.5120
   56MOL   H12721137   6.941   5.313   1.441  1.4001 -1.6650 -0.6675
   56MOL   H12821138   7.069   5.558   1.299  0.3198 -0.6267 -0.3143
   56MOL   H12921139   7.118   5.506   1.461 -0.5207  0.5453 -0.2009
   56MOL   H13021140   6.856   5.626   1.372  1.1391  0.8566 -0.5026
   56MOL   H13121141   6.856   5.523   1.518 -0.3741  0.1795 -0.6205
   56MOL   H13221142   6.856   5.739   1.579 -1.0509 -3.5405  1.2375
   56MOL   H13321143   7.011   5.670   1.632  2.2083 -0.3966 -0.1539
   56MOL   H13421144   7.004   5.778   1.486 -0.9645  0.4597 -0.1786
   56MOL   C13521145   7.265   5.346   1.121 -0.0408 -0.2328  0.3940
   56MOL   C13621146   7.256   5.298   0.971  0.3695 -0.4010  0.5961
   56MOL   C13721147   7.363   5.190   0.942 -0.3667  0.3268 -0.5493
   56MOL   C13821148   7.335   5.118   0.806  0.2155 -0.2080  0.3091
   56MOL   C13921149   7.433   5.012   0.757 -0.6249  0.5334  0.1364
   56MOL   C14021150   7.378   4.942   0.630  0.3001  0.4494 -0.4320
   56MOL   O14121151   7.284   5.406   0.887 -0.7506  0.4739 -0.2975
   56MOL   H14221152   7.321   5.438   1.139 -1.2247  0.5070  0.3440
   56MOL   H14321153   7.313   5.271   1.184 -0.6604 -1.9883 -1.1729
   56MOL   H14421154   7.156   5.260   0.949 -0.0509  1.0036 -0.0245
   56MOL   H14521155   7.454   5.250   0.935 -1.3782  2.1108  1.0078
   56MOL   H14621156   7.366   5.122   1.027  0.3360  0.8336 -0.1685
   56MOL   H14721157   7.313   5.195   0.731  0.4141 -1.5001 -1.0948
   56MOL   H14821158   7.241   5.062   0.813  1.1558 -2.0430 -1.1427
   56MOL   H14921159   7.446   4.942   0.840  0.2189 -0.5374 -0.8767
   56MOL   H15021160   7.524   5.069   0.737  0.6860 -1.4413  0.3140
   56MOL   H15121161   7.440   4.855   0.612  1.9247  1.4137  0.4397
   56MOL   H15221162   7.274   4.908   0.630 -0.0781  1.5502  0.6984
   56MOL   H15321163   7.390   5.015   0.550  2.1581  1.6380  0.8889
   56MOL   C15421164   7.168   5.484   0.852 -0.5491  0.2090 -0.2028
   56MOL   C15521165   7.208   5.604   0.764  0.3104  0.4514 -1.1388
   56MOL   C15621166   7.287   5.711   0.843  0.5882  0.0003 -0.5270
   56MOL   C15721167   7.293   5.849   0.773  0.5871  0.5864  0.0241
   56MOL   C15821168   7.207   5.960   0.839  0.3121  0.3414  0.2545
   56MOL   C15921169   7.055   5.930   0.816 -0.6254  0.0816  0.3093
   56MOL   O16021170   7.251   5.581   0.634 -0.3705 -0.4399 -0.5855
   56MOL   H16121171   7.127   5.521   0.946 -1.9742  2.4104 -1.6291
   56MOL   H16221172   7.086   5.420   0.819 -0.4895  0.3652 -0.6649
   56MOL   H16321173   7.117   5.663   0.751  0.9778  1.2453 -2.3090
   56MOL   H16421174   7.384   5.683   0.886 -0.0325  0.1855  1.0525
   56MOL   H16521175   7.230   5.727   0.935  2.0569  0.3697  0.3531
   56MOL   H16621176   7.263   5.849   0.668 -1.3261 -1.4481  0.5037
   56MOL   H16721177   7.398   5.877   0.776  1.5992 -3.0417  0.8978
   56MOL   H16821178   7.235   5.970   0.944 -1.5727  0.6980  0.7502
   56MOL   H16921179   7.237   6.054   0.793  1.4540  1.1321  2.5362
   56MOL   H17021180   7.033   5.942   0.710  1.8060  1.1516 -0.1195
   56MOL   H17121181   6.988   6.002   0.862  1.0910  1.3213  0.9524
   56MOL   H17221182   7.030   5.831   0.852 -1.2976  0.3902  0.6894
   56MOL   C17321183   7.360   5.490   0.626  1.1347  0.0968 -0.4629
   56MOL   C17421184   7.422   5.492   0.488  0.1848  0.1601 -0.9045
   56MOL   C17521185   7.567   5.463   0.486 -0.6562  0.3102 -0.2306
   56MOL   C17621186   7.592   5.312   0.524 -0.0510 -0.4115  0.1445
   56MOL   C17721187   7.741   5.281   0.552 -0.0217 -0.9672 -0.4715
   56MOL   C17821188   0.049   5.307   0.433  0.5287  0.0540 -0.2294
   56MOL   O17921189   7.349   5.409   0.394  0.7723 -0.2617  0.1481
   56MOL   H18021190   7.312   5.395   0.650  1.1024  0.5220  1.1571
   56MOL   H18121191   7.440   5.517   0.694  0.1242 -0.1424  0.8450
   56MOL   H18221192   7.415   5.593   0.447 -0.7901  0.0615 -0.9987
   56MOL   H18321193   7.613   5.484   0.389 -0.9710  0.0540 -0.4341
   56MOL   H18421194   7.625   5.533   0.546  1.6798 -2.2757  0.6849
   56MOL   H18521195   7.526   5.276   0.603 -0.3027 -2.2190 -0.8352
   56MOL   H18621196   7.579   5.250   0.435 -2.3083  0.0411  0.1142
   56MOL   H18721197   7.781   5.344   0.632 -2.0910 -0.7535  0.4163
   56MOL   H18821198   7.753   5.178   0.586  0.6111  0.0039  2.3457
   56MOL   H18921199   0.086   5.409   0.440  1.2274 -0.0811 -1.7365
   56MOL   H19021200   0.008   5.283   0.334  0.3723 -1.9703  0.2966
   56MOL   H19121201   0.141   5.250   0.446 -1.2552 -2.4406  1.8260
   56MOL   C19221202   7.214   5.445   0.370  0.0552  0.5921  0.1099
   56MOL   C19321203   7.149   5.345   0.277 -0.1740 -0.3072 -0.7461
   56MOL   C19421204   7.175   5.197   0.327 -0.1334 -0.2633  0.1388
   56MOL   C19521205   7.050   5.114   0.298  0.0876  0.7798 -0.4708
   56MOL   C19621206   7.063   4.964   0.330 -0.6117 -0.3945 -0.3938
   56MOL   C19721207   7.117   4.868   0.220 -0.0536 -1.0175  0.7491
   56MOL   O19821208   7.190   5.351   0.146  0.2280 -0.0622 -0.2285
   56MOL   H19921209   7.163   5.422   0.463  2.1571 -0.7649  0.9516
   56MOL   H20021210   7.203   5.549   0.337  1.7949  0.7931  0.1309
   56MOL   H20121211   7.044   5.376   0.284  0.3455  1.0201  1.5212
   56MOL   H20221212   7.261   5.146   0.284  0.5891  1.3766 -0.3816
   56MOL   H20321213   7.197   5.192   0.433 -0.3395 -0.7229  0.1642
   56MOL   H20421214   6.999   5.135   0.204 -2.2145 -1.2819  0.2638
   56MOL   H20521215   6.977   5.154   0.369 -0.2340 -1.2668  0.3980
   56MOL   H20621216   7.128   4.962   0.418  0.4843  0.2972 -1.1636
   56MOL   H20721217   6.964   4.927   0.354 -1.3988 -0.4835 -3.6476
   56MOL   H20821218   7.216   4.890   0.181  0.1072 -0.8828  1.2265
   56MOL   H20921219   7.110   4.769   0.266  1.4449 -0.2769  2.6133
   56MOL   H21021220   7.052   4.865   0.133 -0.7103 -0.7052  1.2239
   56MOL   C21121221   7.152   5.470   0.080 -0.2182  0.2735 -0.6427
   56MOL   C21221222   7.162   5.463   7.714  0.1765  0.2942  0.1713
   56MOL   C21321223   7.123   5.596   7.641 -0.0749  0.2417  0.3508
   56MOL   C21421224   6.974   5.635   7.633 -0.1581  0.0588  0.0754
   56MOL   C21521225   6.950   5.788   7.642  0.3570  0.0350 -0.6266
   56MOL   C21621226   6.808   5.835   7.616 -0.6010  0.5683 -0.1252
   56MOL   O21721227   7.060   5.363   7.674 -0.6230  0.2958 -0.1836
   56MOL   H21821228   7.212   5.550   0.124  0.9078 -1.6892  1.5653
   56MOL   H21921229   7.046   5.488   0.096  0.2694 -0.2469  3.9469
   56MOL   H22021230   7.260   5.427   7.682  0.6290  0.1449  1.7208
   56MOL   H22121231   7.187   5.670   7.689  2.0437 -0.3630 -1.4238
   56MOL   H22221232   7.153   5.587   7.536  0.4066  0.6100  0.4543
   56MOL   H22321233   6.929   5.598   7.540  1.5303 -0.8670 -0.3940
   56MOL   H22421234   6.917   5.577   7.706 -1.2811 -0.3136 -1.0812
   56MOL   H22521235   6.990   5.830   7.734  0.0445  0.2957 -0.6105
   56MOL   H22621236   7.008   5.830   7.560  1.9381  0.0817  0.4810
   56MOL   H22721237   6.815   5.927   7.674  1.5317 -0.3255  1.1048
   56MOL   H22821238   6.732   5.772   7.661 -2.6438  2.7145 -0.4216
   56MOL   H22921239   6.795   5.850   7.508 -1.5066  1.7180  0.1326
   56MOL   C23021240   7.111   5.248   7.620 -0.0549  0.0601 -0.2540
   56MOL   C23121241   6.987   5.145   7.615  0.3440  0.5765  0.0534
   56MOL   C23221242   7.016   5.018   7.536 -0.6964  0.1778 -0.7402
   56MOL   C23321243   7.115   4.927   7.611 -0.1478 -0.0364 -0.1536
   56MOL   C23421244   7.150   4.807   7.525  0.1796 -0.4138 -0.5364
   56MOL   C23521245   7.178   4.688   7.619  1.0525  0.3428 -0.1885
   56MOL   O23621246   6.890   5.202   7.528 -0.1253 -0.1806  0.4230
   56MOL   H23721247   7.150   5.273   7.521  0.4898  0.6921  0.1201
   56MOL   H23821248   7.190   5.208   7.683  1.7160  2.8466 -0.6150
   56MOL   H23921249   6.948   5.118   7.713 -1.4259  1.7225 -0.3068
   56MOL   H24021250   7.057   5.037   7.437 -0.4983  0.5283 -0.5917
   56MOL   H24121251   6.921   4.971   7.509  1.3491 -2.3124 -3.9828
   56MOL   H24221252   7.063   4.900   7.703 -1.2401  0.2871 -0.6728
   56MOL   H24321253   7.209   4.978   7.632 -0.9427  1.8467 -1.0552
   56MOL   H24421254   7.072   4.773   7.457 -1.1934 -0.5089  1.0525
   56MOL   H24521255   7.234   4.824   7.458  0.1603 -0.7179 -0.6404
   56MOL   H24621256   7.090   4.647   7.669  0.7826  1.8951  0.6373
   56MOL   H24721257   7.261   4.713   7.684  1.7946 -0.6292 -0.7519
   56MOL   H24821258   7.217   4.605   7.560  0.7164  0.0127  0.0483
   56MOL   C24921259   6.773   5.261   7.592 -0.2032  0.1257 -0.5171
   56MOL   C25021260   6.664   5.163   7.586 -0.6299  0.5205 -0.0242
   56MOL   C25121261   6.525   5.237   7.585 -0.7101  0.0292 -0.4291
   56MOL   C25221262   6.395   5.154   7.597 -0.0168 -0.1322  0.0300
   56MOL   C25321263   6.266   5.235   7.582  0.7652  0.0156  0.0595
   56MOL   C25421264   6.132   5.159   7.569  0.1293 -0.0147  0.2746
   56MOL   O25521265   6.679   5.075   7.695  0.4998  0.0247 -0.4506
   56MOL   H25621266   6.796   5.296   7.693  1.4360  0.4361 -0.9758
   56MOL   H25721267   6.754   5.351   7.533 -0.4527  0.9485  0.7854
   56MOL   H25821268   6.661   5.110   7.491 -1.7835 -2.2914  1.5268
   56MOL   H25921269   6.522   5.308   7.668  0.1565 -0.4581  0.0264
   56MOL   H26021270   6.531   5.286   7.487  2.4438 -0.3197 -0.4824
   56MOL   H26121271   6.394   5.076   7.520 -2.0374 -0.0262 -0.0604
   56MOL   H26221272   6.401   5.101   7.692  1.3410  1.7656  1.0254
   56MOL   H26321273   6.261   5.308   7.663  0.9518  1.7893 -1.4813
   56MOL   H26421274   6.272   5.291   7.488 -1.5859  0.3012  0.0410
   56MOL   H26521275   6.145   5.089   7.486  0.8383 -1.5296  1.6505
   56MOL   H26621276   6.051   5.223   7.535  1.2683  0.4962 -1.6236
   56MOL   H26721277   6.108   5.099   7.656  0.4918 -0.9609 -0.2661
   56MOL   C26821278   6.654   4.942   7.649 -0.7872  0.1101  0.3170
   56MOL   C26921279   6.711   4.851   7.755  0.5080  0.7134 -0.2151
   56MOL   C27021280   6.719   4.707   7.706  0.3118 -0.2547 -0.4398
   56MOL   C27121281   6.785   4.609   0.006 -0.1106 -0.0975  0.0202
   56MOL   C27221282   6.770   4.458   7.758 -0.0891  0.7764 -0.1937
   56MOL   C27321283   6.790   4.422   7.611  0.0221  0.4993 -0.2476
   56MOL   O27421284   6.620   4.842   0.077 -0.1031  0.5225 -0.2034
   56MOL   H27521285   6.710   4.916   7.560  1.1866 -0.7816  1.7926
   56MOL   H27621286   6.548   4.923   7.631 -0.6041 -0.2467 -0.3921
   56MOL   H27721287   6.810   4.883   0.002  0.2543  2.7997 -1.4157
   56MOL   H27821288   6.617   4.673   7.687  0.8268 -0.9609 -2.0767
   56MOL   H27921289   6.773   4.698   7.612  1.8283  0.6064  0.3401
   56MOL   H28021290   6.891   4.632   0.012 -0.1276  0.0960 -0.4378
   56MOL   H28121291   6.759   4.629   0.110  0.4525 -0.9421  0.3378
   56MOL   H28221292   6.847   4.405   0.029  0.6429 -1.5605 -3.2972
   56MOL   H28321293   6.677   4.412   0.005 -0.1810 -0.9355 -2.7452
   56MOL   H28421294   6.817   4.317   7.601 -0.9109  0.2915 -0.6433
   56MOL   H28521295   6.695   4.436   7.560  0.0332  0.1173 -0.3807
   56MOL   H28621296   6.871   4.474   7.560 -1.4929  3.5846  0.3938
   56MOL   C28721297   6.670   4.909   0.194  0.6149  0.0107 -0.2827
   56MOL   C28821298   6.547   4.933   0.281  0.2695  0.3386 -1.0432
   56MOL   C28921299   6.561   5.056   0.370  0.2220 -0.2674  0.1708
   56MOL   C29021300   6.425   5.081   0.444 -0.8897 -0.3207  0.0293
   56MOL   C29121301   6.420   5.202   0.540 -0.1952 -0.3417  0.2469
   56MOL   C29221302   6.301   5.170   0.641 -0.1402 -0.5695  0.2382
   56MOL   O29321303   6.519   4.817   0.365  0.4912  0.3924 -0.2315
   56MOL   H29421304   6.708   5.003   0.155  0.6115  0.0506 -0.1904
   56MOL   H29521305   6.750   4.855   0.244 -0.0012  0.0023  0.7164
   56MOL   H29621306   6.459   4.938   0.217 -1.6232 -3.3915  1.0768
   56MOL   H29721307   6.652   5.048   0.428 -0.2917 -0.7378  0.9187
   56MOL   H29821308   6.596   5.143   0.314  2.4825 -2.0819 -1.3129
   56MOL   H29921309   6.337   5.079   0.380 -2.2079  1.0301  1.7351
   56MOL   H30021310   6.415   4.992   0.506 -0.1010 -1.4485 -1.4197
   56MOL   H30121311   6.412   5.298   0.488  0.9874  0.0687  0.8022
   56MOL   H30221312   6.522   5.202   0.579  0.1160  0.9123 -0.5355
   56MOL   H30321313   6.311   5.232   0.730  0.8080 -1.1923  0.5734
   56MOL   H30421314   6.208   5.194   0.589  0.8882  2.4391 -0.2878
   56MOL   H30521315   6.317   5.067   0.672 -1.6112 -1.0630 -0.5983
   56MOL   C30621316   6.437   4.715   0.296  0.1547 -1.1347  0.3115
   56MOL   C30721317   6.392   4.619   0.416 -0.5769 -0.3890 -0.7061
   56MOL   C30821318   6.300   4.689   0.515 -0.6014  0.8022 -0.4943
   56MOL   C30921319   6.249   4.598   0.629  0.0815 -0.0132 -0.0770
   56MOL   C31021320   6.152   4.670   0.713 -0.6461 -0.2692  0.2813
   56MOL   C31121321   6.038   4.579   0.755  0.2512  0.5527 -0.5867
   56MOL   O31221322   6.515   4.583   0.485 -0.3065  0.1836 -0.3389
   56MOL   H31321323   6.347   4.744   0.242 -0.1357  0.7539  1.7524
   56MOL   H31421324   6.504   4.663   0.228  1.1323 -0.0039  0.3961
   56MOL   H31521325   6.345   4.532   0.371 -0.7366  0.6674 -2.6661
   56MOL   H31621326   6.220   4.736   0.457  0.1796  1.4787 -1.0441
   56MOL   H31721327   6.342   4.779   0.561  0.0710  0.0903  0.2958
   56MOL   H31821328   6.214   4.510   0.575  0.3358  1.0562 -2.0361
   56MOL   H31921329   6.335   4.560   0.684 -0.6111 -1.1922  0.2025
   56MOL   H32021330   6.103   4.746   0.652 -1.3311 -1.0505 -0.1610
   56MOL   H32121331   6.196   4.734   0.790  0.3477  1.3604 -1.6063
   56MOL   H32221332   5.992   4.536   0.667 -0.7580 -3.9302  1.9606
   56MOL   H32321333   6.065   4.496   0.820 -0.8283 -0.4416 -1.3958
   56MOL   H32421334   5.955   4.631   0.803  0.6557 -0.6222  1.4256
   56MOL   C32521335   6.588   4.476   0.423 -0.2809  0.3999  0.1576
   56MOL   C32621336   6.730   4.475   0.485  0.1514  0.1596  0.0640
   56MOL   C32721337   6.834   4.437   0.382  0.3681 -0.2469  0.9623
   56MOL   C32821338   6.973   4.424   0.434  0.5425  0.1661 -0.4960
   56MOL   C32921339   7.072   4.379   0.331  1.0683  0.8623 -0.3822
   56MOL   C33021340   7.146   4.491   0.269 -0.0705  0.3281  0.6493
   56MOL   O33121341   6.719   4.376   0.585  0.3277  0.3298  0.8355
   56MOL   H33221342   6.594   4.494   0.316  0.8481 -0.0166  0.1535
   56MOL   H33321343   6.532   4.383   0.436  0.9806 -0.3028  0.6332
   56MOL   H33421344   6.756   4.576   0.515 -0.7219  0.6065 -0.6559
   56MOL   H33521345   6.812   4.341   0.335  1.2367 -0.1399  0.3169
   56MOL   H33621346   6.834   4.512   0.303 -1.8486 -0.0569  1.1272
   56MOL   H33721347   6.996   4.520   0.479 -0.4905  0.0382  0.3128
   56MOL   H33821348   6.982   4.358   0.521  1.6712  1.1822  0.1727
   56MOL   H33921349   7.145   4.310   0.373 -2.1997 -1.9811  0.8344
   56MOL   H34021350   7.026   4.319   0.253  1.5244  1.7447 -1.3488
   56MOL   H34121351   7.213   4.440   0.200 -2.7947 -0.3513 -1.5906
   56MOL   H34221352   7.077   4.561   0.220 -1.9113 -2.0235 -0.2222
   56MOL   H34321353   7.211   4.538   0.342 -0.3296 -2.1237  2.5265
   56MOL   C34421354   6.654   4.411   0.708 -0.4450 -0.2941  0.2419
   56MOL   C34521355   6.632   4.281   0.791 -0.1249 -0.1244 -0.1209
   56MOL   C34621356   6.568   4.167   0.705 -0.2538  0.4066 -0.4453
   56MOL   C34721357   6.418   4.187   0.674 -0.5369 -0.0722  0.1794
   56MOL   C34821358   6.358   4.105   0.555  0.4282  0.6406 -0.3517
   56MOL   C34921359   6.399   3.955   0.569  0.0915  0.4089  0.0465
   56MOL   O35021360   6.756   4.224   0.828 -0.3037 -0.3820 -0.2197
   56MOL   H35121361   6.556   4.458   0.694 -0.5368 -1.0436 -1.9909
   56MOL   H35221362   6.720   4.474   0.766 -2.5370  0.0197  2.3371
   56MOL   H35321363   6.560   4.293   0.873 -0.5795 -1.0664 -0.3820
   56MOL   H35421364   6.579   4.071   0.754  2.4732  1.3273  0.8445
   56MOL   H35521365   6.620   4.151   0.611  2.0969  2.6289  0.3867
   56MOL   H35621366   6.405   4.294   0.659  0.9351 -0.1122 -1.4016
   56MOL   H35721367   6.377   4.167   0.773 -2.1813  1.1396 -0.2328
   56MOL   H35821368   6.399   4.143   0.461  0.3098  1.1512 -0.1998
   56MOL   H35921369   6.251   4.124   0.565  0.2137  0.8910 -2.8867
   56MOL   H36021370   6.352   3.896   0.490 -0.6659  0.3738  0.5163
   56MOL   H36121371   6.350   3.912   0.656  0.1728  1.3019  0.5417
   56MOL   H36221372   6.500   3.917   0.576 -0.6575 -1.4665  0.9610
   56MOL   C36321373   6.815   4.281   0.947  0.4211  0.4587 -0.4338
   56MOL   C36421374   6.951   4.217   0.942  0.0338  0.1410 -0.3146
   56MOL   C36521375   6.955   4.061   0.925  0.0112  0.5263  0.1413
   56MOL   C36621376   6.896   3.980   1.041 -0.1917 -0.0714  1.3699
   56MOL   C36721377   6.904   3.831   1.023  0.2677 -0.2022  0.5196
   56MOL   C36821378   7.046   3.778   1.035  0.2243  0.2356 -0.3475
   56MOL   O36921379   6.994   4.266   0.820  0.1460  0.5612  0.3432
   56MOL   H37021380   6.754   4.256   1.035  0.3869 -0.5335 -0.7254
   56MOL   H37121381   6.813   4.389   0.943 -0.7425  0.5344  1.4320
   56MOL   H37221382   7.013   4.254   1.024  0.5582 -2.4790  0.5304
   56MOL   H37321383   6.923   4.023   0.828 -0.2092 -0.0443  0.4358
   56MOL   H37421384   7.061   4.038   0.927 -0.2715 -0.8866 -0.2243
   56MOL   H37521385   6.943   4.013   1.134  0.8765  1.9512  0.1484
   56MOL   H37621386   6.790   4.004   1.049 -0.3497  0.0572 -0.9587
   56MOL   H37721387   6.839   3.787   1.099  3.3109 -0.0319  3.3341
   56MOL   H37821388   6.868   3.807   0.923 -1.1696 -0.8091  1.1572
   56MOL   H37921389   7.119   3.846   0.990  0.8303 -0.9149 -1.1260
   56MOL   H38021390   7.089   3.757   1.133  0.1868 -1.1800 -0.6178
   56MOL   H38121391   7.044   3.679   0.990 -0.0195 -0.5054  1.2644
   56MOL   H38221392   6.916   4.247   0.769 -0.4037 -1.2246  1.8190
   57MOL     C121393   4.818   2.693   0.770  0.0115  0.9304 -1.3678
   57MOL     C221394   4.685   2.634   0.835 -0.0416  0.4487 -0.2699
   57MOL     C321395   4.717   2.568   0.974 -0.2024 -0.6507 -1.0574
   57MOL     C421396   4.754   2.665   1.086 -0.6265  0.2655  0.6944
   57MOL     C521397   4.760   2.599   1.223  0.1407 -0.2187  0.3639
   57MOL     C621398   4.810   2.691   1.334  0.2694  0.5703 -0.0709
   57MOL     O721399   4.597   2.743   0.853 -0.3713 -0.2063 -0.7500
   57MOL     H821400   4.863   2.764   0.839  0.2605 -0.2690 -0.2842
   57MOL     H921401   4.804   2.731   0.669 -1.0609 -1.6310 -2.2272
   57MOL    H1021402   4.656   2.548   0.775  0.8188 -0.0604  0.0366
   57MOL    H1121403   4.630   2.509   1.001 -0.9238  0.6568 -0.4908
   57MOL    H1221404   4.800   2.499   0.955  1.4165  1.2062 -0.8777
   57MOL    H1321405   4.852   2.705   1.058 -0.9905  1.7111  1.4118
   57MOL    H1421406   4.683   2.747   1.078 -2.8181 -1.5306  1.3105
   57MOL    H1521407   4.662   2.565   1.256 -1.1534  2.2220 -0.7824
   57MOL    H1621408   4.819   2.508   1.214  2.1651  0.9684  1.2064
   57MOL    H1721409   4.833   2.638   1.427 -0.5782 -0.5496 -0.4890
   57MOL    H1821410   4.890   2.758   1.301  1.0463 -0.8965 -1.2253
   57MOL    H1921411   4.729   2.752   1.374  0.4077 -0.1183  1.2918
   57MOL    H2021412   4.892   2.613   0.768 -0.5851  0.2865  0.8013
   57MOL    C2121413   4.466   2.709   0.895 -0.2391 -0.2681 -0.2600
   57MOL    C2221414   4.362   2.826   0.888  0.3369  0.3169  0.4744
   57MOL    C2321415   4.435   2.959   0.927  0.1989 -0.1925 -0.4490
   57MOL    C2421416   4.351   3.086   0.912 -0.1102  0.2958 -0.6206
   57MOL    C2521417   4.221   3.073   1.000 -0.1055  0.0746  0.0550
   57MOL    C2621418   4.138   3.198   1.023  0.2932 -0.2320  0.0484
   57MOL    O2721419   4.304   2.821   0.763 -0.2282 -0.4202 -0.3051
   57MOL    H2821420   4.436   2.616   0.848  0.3298 -1.1845  1.1760
   57MOL    H2921421   4.476   2.680   0.999 -0.1371 -0.4880 -0.3310
   57MOL    H3021422   4.280   2.808   0.957 -0.9325  1.3846 -0.7421
   57MOL    H3121423   4.531   2.977   0.878  0.0851  1.1123 -0.2111
   57MOL    H3221424   4.451   2.948   1.034 -2.5126  2.2112  0.2606
   57MOL    H3321425   4.337   3.085   0.804 -0.1091 -1.7295 -0.6111
   57MOL    H3421426   4.418   3.168   0.939 -0.4447  0.7180 -1.0597
   57MOL    H3521427   4.149   3.006   0.953 -1.1588  1.5919 -0.5060
   57MOL    H3621428   4.248   3.028   1.095 -0.5004 -0.1764  0.0493
   57MOL    H3721429   4.205   3.270   1.070 -1.3638  1.0415  0.5231
   57MOL    H3821430   4.051   3.169   1.081  0.8890 -0.4257  0.8588
   57MOL    H3921431   4.098   3.235   0.929  1.6171  0.2162 -0.3496
   57MOL    C4021432   4.377   2.863   0.646 -0.3765  0.1897 -0.3536
   57MOL    C4121433   4.274   2.905   0.540  0.8104 -0.0107  0.0012
   57MOL    C4221434   4.251   2.799   0.434  0.4929  0.4412  0.9867
   57MOL    C4321435   4.188   2.670   0.482 -0.2148 -0.0831  0.5389
   57MOL    C4421436   4.145   2.595   0.351 -0.2743  0.1105  0.3244
   57MOL    C4521437   4.072   2.464   0.371  0.1764  0.2369 -0.3447
   57MOL    O4621438   4.330   3.027   0.480  0.4662  0.0019  1.0860
   57MOL    H4721439   4.447   2.782   0.631 -0.1910  0.5932 -1.7247
   57MOL    H4821440   4.441   2.949   0.665 -1.6531  1.0526  0.1790
   57MOL    H4921441   4.190   2.916   0.608  1.0046  3.2203 -0.1746
   57MOL    H5021442   4.197   2.849   0.354  0.6204  0.8466  1.1522
   57MOL    H5121443   4.350   2.765   0.403 -0.6501 -0.0194 -2.3204
   57MOL    H5221444   4.101   2.685   0.546  1.3215 -1.7427  3.1292
   57MOL    H5321445   4.252   2.611   0.549  1.5680  1.3074  0.1043
   57MOL    H5421446   4.083   2.659   0.289 -0.9903 -1.8198 -0.9907
   57MOL    H5521447   4.231   2.584   0.285 -0.5593 -0.5498  0.0626
   57MOL    H5621448   3.981   2.476   0.431  1.0071  1.1558  0.7675
   57MOL    H5721449   4.028   2.432   0.277  1.6894 -0.3022 -0.8712
   57MOL    H5821450   4.130   2.385   0.418 -0.6358  0.4811  1.1199
   57MOL    C5921451   4.233   3.113   0.428 -1.0265 -0.2388 -0.2531
   57MOL    C6021452   4.180   3.210   0.531  0.2983 -0.7497 -1.0240
   57MOL    C6121453   4.288   3.314   0.559  0.7462  0.3529  0.1839
   57MOL    C6221454   4.250   3.426   0.663  0.4638 -0.2236 -0.3184
   57MOL    C6321455   4.351   3.545   0.647 -0.5177  0.1122  0.2706
   57MOL    C6421456   4.349   3.655   0.754 -0.0508  0.1628  0.2739
   57MOL    O6521457   4.051   3.275   0.499 -0.6375 -0.1467  0.7019
   57MOL    H6621458   4.149   3.062   0.381 -1.8161  1.7637 -1.0734
   57MOL    H6721459   4.271   3.168   0.342  0.4474 -0.2735  0.3599
   57MOL    H6821460   4.157   3.147   0.617  1.0401  0.9462  0.4456
   57MOL    H6921461   4.320   3.361   0.465 -0.1386 -0.2919 -0.4474
   57MOL    H7021462   4.383   3.271   0.591  1.5187  1.2935 -0.7838
   57MOL    H7121463   4.252   3.386   0.764  2.7769 -2.2579 -1.1126
   57MOL    H7221464   4.151   3.470   0.649  0.6532  0.3725  0.2408
   57MOL    H7321465   4.347   3.586   0.546 -0.8449 -1.3060 -0.2994
   57MOL    H7421466   4.454   3.511   0.639 -1.2366 -1.6935 -1.9158
   57MOL    H7521467   4.285   3.738   0.722  2.2897  0.6627 -3.3815
   57MOL    H7621468   4.333   3.610   0.852 -2.4620 -1.2237 -0.7031
   57MOL    H7721469   4.447   3.702   0.763 -0.0740  0.8825 -2.5788
   57MOL    C7821470   3.959   3.265   0.604  0.8721 -0.4798  0.1416
   57MOL    C7921471   3.838   3.349   0.559  0.1299  0.4102 -0.1176
   57MOL    C8021472   3.754   3.384   0.686  0.6173  0.0419  0.2298
   57MOL    C8121473   3.636   3.479   0.660 -0.2074  0.1052 -0.5709
   57MOL    C8221474   3.554   3.503   0.780 -0.5348  0.0048 -0.5851
   57MOL    C8321475   3.440   3.603   0.743  0.6834 -0.7840 -0.1246
   57MOL    O8421476   3.759   3.263   0.479 -0.7604  0.1580  0.1216
   57MOL    H8521477   4.004   3.311   0.692  0.5516 -0.4629  0.2964
   57MOL    H8621478   3.930   3.161   0.616  0.1987 -0.1029  1.8149
   57MOL    H8721479   3.871   3.444   0.518  0.6848  0.0484 -0.5090
   57MOL    H8821480   3.720   3.296   0.740  0.6231  0.3113  0.6812
   57MOL    H8921481   3.819   3.438   0.755  0.6998  1.1709 -0.6955
   57MOL    H9021482   3.568   3.435   0.587  0.7142 -0.1342 -1.2828
   57MOL    H9121483   3.663   3.574   0.613 -0.0886  0.2978 -0.1170
   57MOL    H9221484   3.507   3.419   0.830 -0.5951  0.1967 -0.3178
   57MOL    H9321485   3.625   3.549   0.849  0.6025 -0.3523 -1.4981
   57MOL    H9421486   3.377   3.634   0.826  0.0176 -2.6151  0.0674
   57MOL    H9521487   3.374   3.563   0.666  2.0865 -0.8203 -1.3342
   57MOL    H9621488   3.471   3.698   0.699 -0.5602 -0.7597 -0.9923
   57MOL    C9721489   3.795   3.250   0.348  0.3165 -0.0476  0.2167
   57MOL    C9821490   3.682   3.209   0.257 -0.7384 -0.5192 -0.1953
   57MOL    C9921491   3.606   3.087   0.307 -0.1468  0.1268 -0.5006
   57MOL   C10021492   3.490   3.059   0.214 -0.3427  0.2917  0.1503
   57MOL   C10121493   3.414   2.923   0.229  0.3136 -0.2371 -0.6426
   57MOL   C10221494   3.337   2.890   0.102  0.7501 -0.4596 -0.1117
   57MOL   O10321495   3.605   3.319   0.215 -0.0005  0.3546  0.1527
   57MOL   H10421496   3.868   3.170   0.335  1.1615  0.9573 -1.4563
   57MOL   H10521497   3.834   3.343   0.306 -0.6386 -0.3732 -1.4741
   57MOL   H10621498   3.733   3.164   0.172  0.3868 -1.1040  0.7745
   57MOL   H10721499   3.587   3.105   0.413 -2.5135 -0.9395 -0.7212
   57MOL   H10821500   3.684   3.013   0.326 -1.1066 -0.2618  2.1074
   57MOL   H10921501   3.524   3.074   0.112 -0.0337  0.7839  0.3222
   57MOL   H11021502   3.413   3.137   0.211 -0.5520  0.0265 -2.0369
   57MOL   H11121503   3.343   2.927   0.311  1.1230 -0.1607  0.0618
   57MOL   H11221504   3.480   2.842   0.262 -0.1517 -1.2844 -2.1970
   57MOL   H11321505   3.258   2.964   0.089 -0.3939 -1.5693  0.2818
   57MOL   H11421506   3.402   2.886   0.015 -0.3231  0.2785 -0.9695
   57MOL   H11521507   3.281   2.797   0.118  0.4853 -0.2795  0.0155
   57MOL   C11621508   3.533   3.388   0.317  0.2417 -0.3190  0.9555
   57MOL   C11721509   3.445   3.493   0.250  0.7962 -0.0477  0.2358
   57MOL   C11821510   3.430   3.616   0.350  0.5133  0.5604 -0.4393
   57MOL   C11921511   3.304   3.703   0.334  0.3043 -0.1954 -0.0024
   57MOL   C12021512   3.303   3.833   0.420  0.6807 -0.1337 -0.3543
   57MOL   C12121513   3.162   3.904   0.426 -0.3680 -0.9903 -0.2808
   57MOL   O12221514   3.319   3.422   0.221 -1.0353 -0.8138 -0.0620
   57MOL   H12321515   3.477   3.322   0.383  2.4721 -1.5067  1.7186
   57MOL   H12421516   3.616   3.433   0.372  0.0350  0.7840  0.3855
   57MOL   H12521517   3.494   3.531   0.161  0.3461 -0.8957 -0.3831
   57MOL   H12621518   3.427   3.575   0.451  2.1839 -2.0691 -1.4134
   57MOL   H12721519   3.525   3.669   0.344  0.0755  1.1945 -2.0819
   57MOL   H12821520   3.216   3.641   0.353 -0.4321  0.7280 -0.3427
   57MOL   H12921521   3.291   3.734   0.231  0.1632 -0.1783  0.0196
   57MOL   H13021522   3.335   3.811   0.521  0.6310  2.3514  0.2502
   57MOL   H13121523   3.381   3.901   0.385 -0.6481  2.0810  0.8644
   57MOL   H13221524   3.085   3.827   0.436  1.0352 -2.5021 -0.7514
   57MOL   H13321525   3.165   3.979   0.504  1.9305 -2.2040  0.8582
   57MOL   H13421526   3.139   3.956   0.333  1.7241  0.1617 -0.1965
   57MOL   C13521527   3.274   3.444   0.094 -0.2503  0.4284  0.2542
   57MOL   C13621528   3.129   3.394   0.077 -0.4140 -0.7443 -0.4329
   57MOL   C13721529   3.111   3.259   0.145 -0.2268 -0.2969  0.0896
   57MOL   C13821530   2.969   3.207   0.148  0.1417  0.1194  0.5279
   57MOL   C13921531   2.965   3.059   0.186  1.1977 -0.4459 -0.0652
   57MOL   C14021532   2.816   3.010   0.231  0.2552 -0.2880  0.2587
   57MOL   O14121533   3.080   3.390   7.738 -0.4419  0.6283 -0.1255
   57MOL   H14221534   3.271   3.552   0.082 -0.7666  0.1134 -2.9589
   57MOL   H14321535   3.347   3.399   0.026 -0.5983  1.6543 -0.9489
   57MOL   H14421536   3.067   3.463   0.135  0.1392 -0.0362 -0.6769
   57MOL   H14521537   3.168   3.186   0.088 -3.4314 -2.5987 -0.2686
   57MOL   H14621538   3.153   3.260   0.246  0.7680  0.6676 -0.3215
   57MOL   H14721539   2.917   3.204   0.052  0.3140 -1.3700  0.4723
   57MOL   H14821540   2.898   3.254   0.215  1.2192  1.2272  0.9121
   57MOL   H14921541   3.034   3.029   0.265  1.3722 -1.6293 -0.6534
   57MOL   H15021542   3.010   3.005   0.102 -1.0990 -2.7175  0.1334
   57MOL   H15121543   2.793   2.904   0.231  0.8453 -0.4296 -1.5331
   57MOL   H15221544   2.786   3.033   0.333 -0.3677  0.8633 -0.1736
   57MOL   H15321545   2.738   3.053   0.169  1.7870  1.4821 -0.4978
   57MOL   C15421546   3.063   3.521   7.673 -0.2858 -0.5278 -0.0991
   57MOL   C15521547   3.013   3.502   7.527 -0.3797  0.0044  0.8172
   57MOL   C15621548   2.939   3.624   7.482  0.5580 -0.5109 -0.6243
   57MOL   C15721549   2.878   3.620   7.338 -0.2059  0.1341 -0.3092
   57MOL   C15821550   2.831   3.753   7.290 -0.0880 -0.0375 -0.1974
   57MOL   C15921551   2.740   3.833   7.388 -0.1317 -0.2970  0.1177
   57MOL   O16021552   3.128   3.482   7.441  0.2527 -0.0256  0.0292
   57MOL   H16121553   3.154   3.582   7.674 -0.6688  0.0633 -0.7474
   57MOL   H16221554   2.976   3.565   7.722  1.5635  1.8157  1.2142
   57MOL   H16321555   2.940   3.422   7.524 -0.5321  0.1873 -2.2269
   57MOL   H16421556   2.997   3.716   7.474 -2.0766  1.2117 -0.3416
   57MOL   H16521557   2.867   3.652   7.558  1.3467  3.3524 -1.1956
   57MOL   H16621558   2.801   3.546   7.355 -0.2347  0.3337  0.4216
   57MOL   H16721559   2.940   3.567   7.265  0.4123 -2.5603  2.0773
   57MOL   H16821560   2.914   3.814   7.254 -0.8797 -0.3501 -2.6306
   57MOL   H16921561   2.772   3.722   7.204 -3.7382  3.5389  0.8192
   57MOL   H17021562   2.657   3.778   7.435  0.0004 -1.1393 -0.6354
   57MOL   H17121563   2.694   3.926   7.357  2.0233  1.7142  2.7282
   57MOL   H17221564   2.798   3.862   7.475 -0.1676 -0.1724  0.0994
   57MOL   C17321565   3.200   3.360   7.442  0.3879  0.2598  0.5055
   57MOL   C17421566   3.334   3.375   7.511 -0.3923  0.3484 -0.0925
   57MOL   C17521567   3.383   3.239   7.565  1.1782 -0.2078  0.0634
   57MOL   C17621568   3.531   3.247   7.619  0.1375 -0.3591  0.3800
   57MOL   C17721569   3.588   3.105   7.631 -0.1611  1.1771 -0.3732
   57MOL   C17821570   3.671   3.071   7.504 -0.8105  0.0442 -0.3214
   57MOL   O17921571   3.422   3.407   7.403 -0.4271  0.1196  0.5264
   57MOL   H18021572   3.218   3.337   7.337  1.9485  1.2694  0.5421
   57MOL   H18121573   3.138   3.275   7.472 -1.6804  1.1572 -1.1134
   57MOL   H18221574   3.322   3.445   7.593 -0.9612 -1.1159  1.0900
   57MOL   H18321575   3.316   3.204   7.644 -1.2955  0.3184 -1.7258
   57MOL   H18421576   3.380   3.161   7.488 -1.4215  1.2115 -1.3432
   57MOL   H18521577   3.592   3.308   7.551  1.8008 -1.1128  1.1645
   57MOL   H18621578   3.532   3.295   7.716  2.8454 -1.1259  0.7750
   57MOL   H18721579   3.660   3.105   7.713  0.3003 -1.0702 -0.7574
   57MOL   H18821580   3.516   3.026   7.654  1.6319 -0.8812 -1.6987
   57MOL   H18921581   3.607   3.095   7.419 -0.8063 -0.7304 -0.5452
   57MOL   H19021582   3.704   2.968   7.496 -1.3994 -0.1294 -0.5176
   57MOL   H19121583   3.758   3.136   7.503  0.8285 -2.0711  1.5332
   57MOL   C19221584   3.409   3.541   7.355 -0.0802  0.0593  0.3793
   57MOL   C19321585   3.548   3.601   7.353  0.3637  0.0132 -0.4205
   57MOL   C19421586   3.642   3.501   7.273  0.8551  0.8185  0.1777
   57MOL   C19521587   3.776   3.563   7.244 -0.0201 -0.3002 -0.2991
   57MOL   C19621588   3.886   3.453   7.247 -0.2851 -0.2722 -0.3854
   57MOL   C19721589   4.008   3.499   7.167  0.9236 -0.2101 -0.3686
   57MOL   O19821590   3.593   3.611   7.493  0.4878 -0.1570 -0.0106
   57MOL   H19921591   3.362   3.535   7.257 -0.2325  0.2423  0.4389
   57MOL   H20021592   3.353   3.609   7.420 -2.5978 -0.7486 -0.8566
   57MOL   H20121593   3.562   3.687   7.288 -2.4246  0.0448 -1.0266
   57MOL   H20221594   3.660   3.410   7.329  2.8504  0.3478 -1.1769
   57MOL   H20321595   3.599   3.461   7.181  0.8569  1.7767 -0.2453
   57MOL   H20421596   3.810   3.651   7.298  1.8287 -0.6789 -0.8105
   57MOL   H20521597   3.776   3.595   7.139 -0.6415 -2.2093 -0.9093
   57MOL   H20621598   3.914   3.440   7.351 -1.9560  1.0969  0.2446
   57MOL   H20721599   3.850   3.364   7.194  1.1209 -1.0302 -0.0840
   57MOL   H20821600   4.032   3.597   7.209  1.9062  0.1508 -1.7281
   57MOL   H20921601   4.093   3.432   7.173  1.2794  0.2123 -0.6834
   57MOL   H21021602   3.997   3.513   7.059  3.1645  0.7234 -0.5025
   57MOL   C21121603   3.619   3.743   7.538 -0.4983 -0.5340  0.8144
   57MOL   C21221604   3.631   3.742   7.695 -0.5698  0.2032  0.3073
   57MOL   C21321605   3.637   3.881   7.752 -0.2549  0.0598  0.2390
   57MOL   C21421606   3.627   3.894   0.119 -0.3729  0.2550  0.0885
   57MOL   C21521607   3.675   4.026   0.176 -0.2791 -0.0334  0.5869
   57MOL   C21621608   3.640   4.033   0.325  0.3918  0.1358  0.3169
   57MOL   O21721609   3.759   3.684   7.736  0.2887  0.0233  0.0520
   57MOL   H21821610   3.551   3.819   7.501  1.4582  0.0895 -1.6231
   57MOL   H21921611   3.714   3.768   7.490 -0.1696 -2.2428  0.5311
   57MOL   H22021612   3.554   3.681   7.742 -1.6932 -0.8292 -2.7641
   57MOL   H22121613   3.715   3.941   7.706  0.6311 -0.0478  1.5744
   57MOL   H22221614   3.553   3.937   7.710  1.4526  2.6161  0.0896
   57MOL   H22321615   3.531   3.864   0.159 -1.0337  1.8470 -0.2660
   57MOL   H22421616   3.706   3.826   0.150 -0.4919 -0.8620 -1.9772
   57MOL   H22521617   3.784   4.031   0.166 -0.3381  0.1552  0.0218
   57MOL   H22621618   3.646   4.111   0.113  0.8907 -1.3660 -1.8278
   57MOL   H22721619   3.652   3.942   0.384  0.0130 -0.3131 -0.2946
   57MOL   H22821620   3.542   4.079   0.338  0.5990  0.6183  0.1987
   57MOL   H22921621   3.697   4.112   0.374 -0.0789  0.9402 -0.4173
   57MOL   C23021622   3.755   3.542   7.751 -0.1922 -0.4951  0.3512
   57MOL   C23121623   3.905   3.495   0.012 -0.0632  0.0646 -0.4125
   57MOL   C23221624   3.933   3.345   7.777  0.6858  0.2757  0.1936
   57MOL   C23321625   4.056   3.280   0.065  0.1421  0.1891  0.0833
   57MOL   C23421626   4.059   3.122   0.075  0.5000 -0.3805  0.1557
   57MOL   C23521627   4.201   3.067   0.071  0.2270  0.2471 -0.0522
   57MOL   O23621628   3.927   3.511   0.147  0.1405  0.0331 -0.1657
   57MOL   H23721629   3.673   3.519   0.034 -1.5845  1.3898 -0.6204
   57MOL   H23821630   3.749   3.504   7.649  0.9721 -1.9061  0.8014
   57MOL   H23921631   3.981   3.543   7.736  2.6791 -0.5873  2.3280
   57MOL   H24021632   3.940   3.326   7.670 -2.4468  0.0916 -0.0125
   57MOL   H24121633   3.844   3.291   0.023  1.8910 -1.8848 -0.0069
   57MOL   H24221634   4.059   3.312   0.169  2.3682 -0.3797  0.2157
   57MOL   H24321635   4.153   3.309   0.024  0.3311  2.3648  1.9224
   57MOL   H24421636   4.022   3.099   0.175  2.1159  1.9250  1.3328
   57MOL   H24521637   3.982   3.085   0.007 -1.2298  1.6930  0.9038
   57MOL   H24621638   4.198   2.965   0.110 -1.0527 -0.1027 -1.0077
   57MOL   H24721639   4.268   3.112   0.144 -0.4755  0.5520  0.4101
   57MOL   H24821640   4.262   3.063   7.767  3.5153  1.4093  2.0496
   57MOL   C24921641   3.909   3.633   0.204 -0.5106  0.2110 -0.8822
   57MOL   C25021642   3.999   3.641   0.328 -0.0836 -0.2747 -0.1596
   57MOL   C25121643   3.948   3.746   0.426  0.0011  0.4535 -0.0061
   57MOL   C25221644   4.040   3.769   0.550  0.0635  0.2473 -0.2664
   57MOL   C25321645   3.992   3.883   0.645  0.3974  0.5332 -0.1061
   57MOL   C25421646   3.969   4.023   0.582 -0.1453 -0.5126 -0.5983
   57MOL   O25521647   4.128   3.690   0.290 -0.6161  0.0405  0.0980
   57MOL   H25621648   3.927   3.708   0.127 -1.0240  0.5485 -0.6824
   57MOL   H25721649   3.805   3.646   0.236 -0.2942  2.3976 -0.9562
   57MOL   H25821650   4.020   3.544   0.373  1.2342 -0.9148 -2.1314
   57MOL   H25921651   3.927   3.836   0.368 -0.4310 -0.0123 -0.5807
   57MOL   H26021652   3.853   3.720   0.471  2.1223 -0.6361  4.0254
   57MOL   H26121653   4.041   3.675   0.605 -0.7060  0.6252  0.4158
   57MOL   H26221654   4.142   3.789   0.517 -0.3522 -0.3503 -1.9615
   57MOL   H26321655   3.899   3.841   0.684  0.9022  1.1333  1.8056
   57MOL   H26421656   4.056   3.899   0.732 -0.7392  0.2058  0.7990
   57MOL   H26521657   4.048   4.062   0.517 -0.8965  1.7691 -0.1940
   57MOL   H26621658   3.948   4.105   0.650  2.2724  0.7832 -1.3265
   57MOL   H26721659   3.877   4.017   0.525  0.7330  1.6717 -2.3668
   57MOL   C26821660   4.218   3.587   0.257 -0.5457  0.2732  0.3791
   57MOL   C26921661   4.360   3.630   0.212 -0.2649  0.7110 -0.2580
   57MOL   C27021662   4.446   3.523   0.147 -0.4789 -1.0701 -0.2161
   57MOL   C27121663   4.473   3.408   0.249  0.1906 -0.6518 -0.1969
   57MOL   C27221664   4.567   3.304   0.195 -0.2834  0.1488  0.3689
   57MOL   C27321665   4.717   3.352   0.208  0.4238  0.4095  0.9361
   57MOL   O27421666   4.422   3.677   0.329  0.2854  0.0554  0.7792
   57MOL   H27521667   4.174   3.528   0.177  0.4264  0.6341 -0.4265
   57MOL   H27621668   4.234   3.520   0.342  0.5133  0.9360  0.7082
   57MOL   H27721669   4.350   3.716   0.145 -0.0002  1.2258  0.3545
   57MOL   H27821670   4.395   3.495   0.055  0.2282  1.8395 -1.5496
   57MOL   H27921671   4.539   3.567   0.108 -1.8230  0.6947 -1.5303
   57MOL   H28021672   4.511   3.438   0.347 -0.8594 -0.5521  0.1833
   57MOL   H28121673   4.378   3.360   0.272  0.2203 -1.2442 -1.3066
   57MOL   H28221674   4.556   3.213   0.255  0.7566 -0.9415 -1.0880
   57MOL   H28321675   4.531   3.265   0.101  0.7799 -0.5360  0.2448
   57MOL   H28421676   4.776   3.261   0.197 -0.3979 -0.1759  1.3470
   57MOL   H28521677   4.732   3.421   0.125 -3.0976 -1.2767 -1.2426
   57MOL   H28621678   4.732   3.396   0.306  0.6163 -1.6641  1.8569
   57MOL   C28721679   4.424   3.819   0.328 -0.2034  0.3804  0.4926
   57MOL   C28821680   4.464   3.871   0.461 -0.0413  0.4287 -0.5643
   57MOL   C28921681   4.393   4.006   0.490 -0.1053  0.1058  0.3053
   57MOL   C29021682   4.424   4.064   0.635 -0.2280 -0.1507 -0.5906
   57MOL   C29121683   4.341   4.184   0.656  0.6431 -0.7664  0.3172
   57MOL   C29221684   4.382   4.248   0.792 -0.0845 -0.0271  0.2203
   57MOL   O29321685   4.601   3.893   0.484  0.0677  0.5031  0.3343
   57MOL   H29421686   4.323   3.857   0.311 -0.2260  0.5653  1.0100
   57MOL   H29521687   4.486   3.851   0.245 -0.3290 -1.4173 -0.3044
   57MOL   H29621688   4.419   3.817   0.545 -0.2321  0.8222 -0.4115
   57MOL   H29721689   4.440   4.083   0.429 -0.2471 -0.0160  0.0411
   57MOL   H29821690   4.289   4.011   0.456  0.0811  0.6207 -0.2071
   57MOL   H29921691   4.389   3.996   0.712  2.4423 -1.3841 -0.3820
   57MOL   H30021692   4.530   4.088   0.640 -0.5750  1.3248 -0.2433
   57MOL   H30121693   4.236   4.156   0.666  0.1200  0.7050 -0.8146
   57MOL   H30221694   4.351   4.251   0.570 -1.1677 -2.0380 -0.9241
   57MOL   H30321695   4.360   4.183   0.877 -1.5487  2.1027  1.5303
   57MOL   H30421696   4.487   4.279   0.794 -0.1607  0.2073  0.6084
   57MOL   H30521697   4.325   4.339   0.809 -0.6980 -0.2799 -0.4768
   57MOL   C30621698   4.684   3.781   0.450  0.4409 -0.1057 -0.0718
   57MOL   C30721699   4.826   3.803   0.513 -0.1501  0.2514 -0.7656
   57MOL   C30821700   4.927   3.758   0.406 -0.5046  1.3316  0.5329
   57MOL   C30921701   4.915   3.609   0.374  0.2244  0.6104  0.4011
   57MOL   C31021702   5.042   3.558   0.303 -0.0296 -0.0733 -0.6138
   57MOL   C31121703   5.035   3.567   0.149  0.1503  0.4867  0.2690
   57MOL   O31221704   4.847   3.733   0.632  0.1970  0.4429  0.5522
   57MOL   H31321705   4.644   3.682   0.474  0.2721  0.4640  2.1374
   57MOL   H31421706   4.683   3.785   0.341 -2.6932 -0.9650 -0.1089
   57MOL   H31521707   4.840   3.909   0.533 -1.7420  0.3120  0.0506
   57MOL   H31621708   5.024   3.765   0.455 -0.1703  0.2586  0.0426
   57MOL   H31721709   4.924   3.826   0.321  0.6597  2.5114  1.4187
   57MOL   H31821710   4.910   3.558   0.470  0.7815 -0.3931 -0.0899
   57MOL   H31921711   4.824   3.584   0.318  2.2823 -0.7499 -2.4991
   57MOL   H32021712   5.052   3.453   0.331  1.4739 -0.0403 -1.0144
   57MOL   H32121713   5.132   3.614   0.327 -0.2853  0.4152 -0.7853
   57MOL   H32221714   5.134   3.552   0.107  0.3886 -0.4896  1.1380
   57MOL   H32321715   4.954   3.519   0.094  0.9758  4.6116 -4.9142
   57MOL   H32421716   5.023   3.673   0.126 -2.1434  0.3795  0.7950
   57MOL   C32521717   4.818   3.822   0.746  0.1033  0.3267  0.9051
   57MOL   C32621718   4.906   3.788   0.871  0.1771 -0.9459 -0.0051
   57MOL   C32721719   5.055   3.819   0.853 -0.5358  0.4158  0.1738
   57MOL   C32821720   5.125   3.799   0.988  0.7008  0.5397 -0.3729
   57MOL   C32921721   5.265   3.856   0.983  0.3364  0.3179  0.3868
   57MOL   C33021722   5.258   4.006   1.017  0.0181  0.4940  0.0121
   57MOL   O33121723   4.896   3.649   0.906  0.2468 -0.1350  0.1806
   57MOL   H33221724   4.711   3.813   0.768 -0.3900  2.4418 -0.4236
   57MOL   H33321725   4.829   3.930   0.732 -0.5440  0.4690  1.4506
   57MOL   H33421726   4.864   3.853   0.948  2.6543 -2.7038  2.9464
   57MOL   H33521727   5.087   3.750   0.776  0.0122  0.8413  0.0167
   57MOL   H33621728   5.074   3.919   0.814 -0.3417  0.1765 -0.3390
   57MOL   H33721729   5.064   3.844   1.066  0.2160 -0.2013 -0.3173
   57MOL   H33821730   5.132   3.691   1.004 -1.3346  0.2614 -1.2450
   57MOL   H33921731   5.335   3.807   1.051 -0.2860 -1.8960 -0.5503
   57MOL   H34021732   5.311   3.837   0.886 -0.6745 -1.3466  0.2225
   57MOL   H34121733   5.270   4.013   1.125  0.7460  0.3236 -0.0610
   57MOL   H34221734   5.331   4.068   0.965 -0.8681  1.1576 -0.4566
   57MOL   H34321735   5.158   4.047   0.998  0.3410  2.0237  1.4797
   57MOL   C34421736   4.770   3.607   0.955 -0.4084 -0.1153  0.7364
   57MOL   C34521737   4.754   3.453   0.959 -0.2162  1.0473 -0.2242
   57MOL   C34621738   4.648   3.408   1.048  0.2070 -0.1933 -0.3582
   57MOL   C34721739   4.667   3.419   1.199 -0.1150  0.1321  0.0594
   57MOL   C34821740   4.557   3.360   1.286 -0.4704 -0.6465 -0.1313
   57MOL   C34921741   4.420   3.418   1.263  0.3501  0.3477 -0.1554
   57MOL   O35021742   4.716   3.399   0.831  0.0510 -0.5340 -0.7070
   57MOL   H35121743   4.684   3.643   0.898 -1.7928 -5.2947 -0.6838
   57MOL   H35221744   4.769   3.642   1.058  2.0889  2.1649  0.0438
   57MOL   H35321745   4.849   3.411   0.993 -0.3270  1.2619  0.3418
   57MOL   H35421746   4.634   3.302   1.025 -1.0243  0.2800 -1.8648
   57MOL   H35521747   4.551   3.446   1.017 -0.5824 -0.0194  2.2462
   57MOL   H35621748   4.680   3.518   1.243 -0.4256 -0.2720  1.0694
   57MOL   H35721749   4.759   3.368   1.228  1.1129  2.9803  1.3159
   57MOL   H35821750   4.584   3.381   1.390  0.1489  0.2043 -0.4660
   57MOL   H35921751   4.563   3.254   1.262 -0.9387 -0.4921 -0.9313
   57MOL   H36021752   4.417   3.516   1.311 -1.9984  1.5006 -2.5036
   57MOL   H36121753   4.343   3.364   1.318 -0.3940  0.9191 -0.6191
   57MOL   H36221754   4.385   3.442   1.162 -1.0828 -4.1473 -0.8210
   57MOL   C36321755   4.831   3.377   0.748  0.7727 -0.0651 -0.7937
   57MOL   C36421756   4.781   3.317   0.620 -0.0398 -0.7363  0.1007
   57MOL   C36521757   4.746   3.172   0.623  0.0001 -0.5796 -0.6264
   57MOL   C36621758   4.687   3.112   0.491  0.4752 -0.1364  0.5557
   57MOL   C36721759   4.716   2.968   0.495 -0.1548  0.1584 -0.4192
   57MOL   C36821760   4.660   2.880   0.375  0.4587 -0.6450  0.5010
   57MOL   O36921761   4.679   3.397   0.567  0.1651  0.0035 -0.9990
   57MOL   H37021762   4.901   3.306   0.792 -1.6900 -2.1330 -0.1633
   57MOL   H37121763   4.874   3.476   0.731 -0.6645  0.4726 -1.3100
   57MOL   H37221764   4.855   3.329   0.541  0.2178  0.8192  0.5594
   57MOL   H37321765   4.833   3.113   0.650 -1.3570 -0.7470  3.8276
   57MOL   H37421766   4.680   3.153   0.708  0.6460  0.3070  0.0806
   57MOL   H37521767   4.582   3.136   0.508 -0.1460  0.0708 -3.3078
   57MOL   H37621768   4.726   3.148   0.396 -1.3320 -0.1718 -0.2219
   57MOL   H37721769   4.823   2.949   0.501 -0.2190 -0.0177  0.2721
   57MOL   H37821770   4.677   2.938   0.593 -0.6025 -0.2647 -0.7238
   57MOL   H37921771   4.682   2.774   0.383 -0.9733 -0.8421  1.9649
   57MOL   H38021772   4.552   2.879   0.370  0.2755 -3.3496  3.4388
   57MOL   H38121773   4.694   2.914   0.277 -1.8143  1.3847  0.3607
   57MOL   H38221774   4.618   3.420   0.635  1.6612 -0.5092  0.5561
   58MOL     C121775   6.665   2.993   2.886  0.2664  0.0211  0.2136
   58MOL     C221776   6.530   2.948   2.836  0.1270 -0.1683  0.4807
   58MOL     C321777   6.424   3.062   2.834 -0.2267 -0.0576 -0.1782
   58MOL     C421778   6.275   3.031   2.809  0.0305  0.0502  0.0036
   58MOL     C521779   6.178   3.141   2.858 -0.2384  0.1465 -0.7142
   58MOL     C621780   6.049   3.079   2.894  0.8682  0.0291  0.2357
   58MOL     O721781   6.557   2.895   2.703 -0.0289  0.1897 -0.5252
   58MOL     H821782   6.736   2.913   2.905 -2.8916 -2.3695  2.4747
   58MOL     H921783   6.655   3.033   2.987 -0.5661  2.6365 -0.8758
   58MOL    H1021784   6.500   2.866   2.901 -0.9120 -0.8886 -0.8777
   58MOL    H1121785   6.452   3.101   2.933  1.8353 -1.4939 -0.1631
   58MOL    H1221786   6.470   3.127   2.759 -0.7851  0.9377  0.3221
   58MOL    H1321787   6.267   3.006   2.703 -0.1328 -0.0096  0.0300
   58MOL    H1421788   6.260   2.941   2.868  0.9090  1.2904  2.2129
   58MOL    H1521789   6.216   3.195   2.945 -1.6223 -1.1306  0.7099
   58MOL    H1621790   6.156   3.219   2.785 -3.0400  1.3388  1.3356
   58MOL    H1721791   6.009   3.011   2.818  0.8457  0.2150  0.0827
   58MOL    H1821792   6.072   3.009   2.975 -1.2344  0.7879  1.5489
   58MOL    H1921793   5.965   3.140   2.928  1.5688  0.3034  1.5100
   58MOL    H2021794   6.720   3.072   2.834  0.6455 -1.3466 -1.5155
   58MOL    C2121795   6.475   2.781   2.665  0.0495  0.4334 -0.0976
   58MOL    C2221796   6.491   2.761   2.512 -0.0164 -0.2121 -0.4503
   58MOL    C2321797   6.448   2.618   2.477 -0.1384 -0.1059  0.0967
   58MOL    C2421798   6.455   2.574   2.327 -0.4506 -0.6469  1.3769
   58MOL    C2521799   6.374   2.446   2.305 -0.1831  0.2724 -0.0072
   58MOL    C2621800   6.368   2.390   2.167  0.6805 -0.2036  0.6088
   58MOL    O2721801   6.414   2.852   2.431  1.1271  0.0698 -0.1228
   58MOL    H2821802   6.504   2.686   2.712  1.8642  0.9462 -0.1287
   58MOL    H2921803   6.372   2.787   2.699  0.5159 -1.3805  1.7438
   58MOL    H3021804   6.598   2.771   2.493 -0.2488  0.6468 -1.3298
   58MOL    H3121805   6.342   2.610   2.501  0.0120 -0.4688  0.6376
   58MOL    H3221806   6.493   2.535   2.531 -1.2710  0.9594  2.7951
   58MOL    H3321807   6.558   2.548   2.304 -0.4102  0.0952  0.7173
   58MOL    H3421808   6.424   2.655   2.261 -1.5960 -0.3608  2.2294
   58MOL    H3521809   6.393   2.368   2.379  0.6833  0.3864 -0.1113
   58MOL    H3621810   6.272   2.479   2.326  0.2601  1.6556  0.0324
   58MOL    H3721811   6.361   2.467   2.089 -1.5286  0.5844  1.5682
   58MOL    H3821812   6.293   2.312   2.158  0.9104 -0.3861  0.2454
   58MOL    H3921813   6.465   2.348   2.139  1.0587  0.1423  1.3747
   58MOL    C4021814   6.451   2.987   2.437 -0.4647 -0.6453  0.2042
   58MOL    C4121815   6.369   3.075   2.339 -0.2077  0.0076  0.0914
   58MOL    C4221816   6.409   3.224   2.319 -0.4688 -0.1577 -0.2845
   58MOL    C4321817   6.367   3.327   2.422  0.7603  0.3930 -0.1804
   58MOL    C4421818   6.417   3.470   2.399 -0.5900  0.2107  0.1024
   58MOL    C4521819   6.342   3.570   2.485 -0.7435  0.7520 -0.2123
   58MOL    O4621820   6.249   3.081   2.404  0.5642 -0.1615 -0.2788
   58MOL    H4721821   6.551   2.997   2.394  0.4133  0.3222  2.3771
   58MOL    H4821822   6.428   3.028   2.535  0.1647 -2.6022  1.2079
   58MOL    H4921823   6.383   3.008   2.255 -0.9151 -0.3489  0.2526
   58MOL    H5021824   6.518   3.231   2.320 -0.2258 -2.4441 -3.0087
   58MOL    H5121825   6.387   3.252   2.216  1.4998  1.1628 -0.3728
   58MOL    H5221826   6.366   3.313   2.530  1.1881 -2.5468 -0.5031
   58MOL    H5321827   6.259   3.320   2.407  0.4078 -0.2857  2.3262
   58MOL    H5421828   6.522   3.471   2.429 -0.4936  0.6665 -0.2417
   58MOL    H5521829   6.407   3.499   2.294  0.2445 -0.1310 -0.0726
   58MOL    H5621830   6.242   3.591   2.445 -1.5863  0.3175  1.6070
   58MOL    H5721831   6.330   3.534   2.587 -2.2198 -2.2792 -1.4074
   58MOL    H5821832   6.407   3.657   2.490 -0.2696  0.3561  0.5897
   58MOL    C5921833   6.134   3.071   2.325 -0.1396  0.2822 -0.5326
   58MOL    C6021834   6.007   3.114   2.398 -0.2038  0.5182 -0.1413
   58MOL    C6121835   6.014   3.255   2.470 -0.7503  0.9405  0.1941
   58MOL    C6221836   5.883   3.306   2.537  0.0051 -0.0611  0.2088
   58MOL    C6321837   5.809   3.399   2.430  0.2363 -0.4378 -0.3863
   58MOL    C6421838   5.868   3.544   2.422 -0.0455 -0.0088 -0.4133
   58MOL    O6521839   5.901   3.107   2.305 -0.2668  0.5753 -0.0598
   58MOL    H6621840   6.136   2.967   2.293 -2.3686  0.8217 -2.5232
   58MOL    H6721841   6.145   3.131   2.234  1.5337  1.3932  0.3734
   58MOL    H6821842   5.998   3.043   2.481 -1.2397 -0.3977 -1.0257
   58MOL    H6921843   6.039   3.329   2.394 -1.5467 -1.8927 -2.9654
   58MOL    H7021844   6.090   3.242   2.546 -0.8218 -0.7538  0.0130
   58MOL    H7121845   5.903   3.364   2.628  1.4393  2.2843 -1.5433
   58MOL    H7221846   5.832   3.213   2.563  0.0351 -0.5529 -1.4430
   58MOL    H7321847   5.707   3.416   2.466  0.4713 -0.7822  0.4438
   58MOL    H7421848   5.795   3.359   2.330  1.1759  2.0016 -1.5266
   58MOL    H7521849   5.800   3.592   2.352  0.2145  2.5532  1.0387
   58MOL    H7621850   5.858   3.602   2.513  0.4294  1.0732 -1.0398
   58MOL    H7721851   5.974   3.561   2.403  0.0187  2.2582  1.8154
   58MOL    C7821852   5.814   2.991   2.307  0.5589  1.1806 -0.0325
   58MOL    C7921853   5.678   3.015   2.246  0.3624  0.2027 -0.3732
   58MOL    C8021854   5.565   3.059   2.335 -0.3031  0.1090  0.6759
   58MOL    C8121855   5.435   3.081   2.249  1.0473 -0.4508  0.1228
   58MOL    C8221856   5.318   3.140   2.327 -0.7745  0.6694 -0.2706
   58MOL    C8321857   5.216   3.200   2.232  0.0686  0.2030  0.3566
   58MOL    O8421858   5.635   2.892   2.196  0.4272  0.3281 -0.0247
   58MOL    H8521859   5.805   2.950   2.408 -1.8293  0.7359 -0.3990
   58MOL    H8621860   5.864   2.915   2.247 -2.2914 -1.7318  1.0935
   58MOL    H8721861   5.684   3.086   2.163  2.5277  1.7995  1.0833
   58MOL    H8821862   5.564   2.992   2.421  1.0598 -0.9245 -0.0977
   58MOL    H8921863   5.603   3.147   2.387 -0.2808 -0.1546  1.1094
   58MOL    H9021864   5.404   2.983   2.214 -0.1256  0.3029 -0.9981
   58MOL    H9121865   5.465   3.140   2.162 -0.4481  0.5158  0.2529
   58MOL    H9221866   5.273   3.067   2.395  0.8644 -0.6996 -0.6010
   58MOL    H9321867   5.354   3.222   2.389  0.6975 -0.2885  0.1751
   58MOL    H9421868   5.131   3.243   2.285  0.8369  1.4571  0.5858
   58MOL    H9521869   5.168   3.122   2.173 -0.9059 -0.5671  2.1026
   58MOL    H9621870   5.254   3.271   2.159 -0.9569  1.8490  1.3841
   58MOL    C9721871   5.680   2.873   2.065  0.2794  0.0977  0.4555
   58MOL    C9821872   5.637   2.731   2.005  0.6504  0.7102 -0.5966
   58MOL    C9921873   5.678   2.607   2.085  0.3611 -0.0553  0.0403
   58MOL   C10021874   5.830   2.589   2.086 -0.0433 -0.2892 -0.0603
   58MOL   C10121875   5.878   2.476   2.174  0.2833 -0.4400  0.2602
   58MOL   C10221876   6.032   2.464   2.182  0.6786 -0.2542  0.5687
   58MOL   O10321877   5.494   2.713   1.968 -0.7351 -0.3379  0.4294
   58MOL   H10421878   5.788   2.884   2.053  0.4371 -1.9677 -0.3814
   58MOL   H10521879   5.636   2.943   1.995 -2.3338 -2.2690 -0.3540
   58MOL   H10621880   5.687   2.731   1.908 -0.3066  1.0845 -1.0945
   58MOL   H10721881   5.629   2.524   2.036 -1.0509  1.3833 -1.0228
   58MOL   H10821882   5.640   2.611   2.187  0.2176  2.9375 -0.0859
   58MOL   H10921883   5.880   2.677   2.127 -0.1085 -1.0700  1.7354
   58MOL   H11021884   5.848   2.581   1.978  1.7078 -2.4759  0.3703
   58MOL   H11121885   5.844   2.386   2.122  0.0230  0.8553 -1.8820
   58MOL   H11221886   5.841   2.478   2.276  1.7548  0.9251  0.7795
   58MOL   H11321887   6.092   2.444   2.093 -1.9201 -2.9293 -0.6766
   58MOL   H11421888   6.075   2.555   2.224 -0.5985  0.4980  0.2769
   58MOL   H11521889   6.061   2.385   2.250  0.9203 -0.1844  0.5465
   58MOL   C11621890   5.393   2.752   2.062 -0.1778 -0.6795  0.0487
   58MOL   C11721891   5.252   2.707   2.025 -0.5440 -0.5714  0.1784
   58MOL   C11821892   5.142   2.774   2.118  0.6299 -0.3916  0.9639
   58MOL   C11921893   5.006   2.794   2.053  0.3350 -0.3135 -0.5736
   58MOL   C12021894   4.903   2.835   2.157  1.2694 -0.0565  0.5269
   58MOL   C12121895   4.759   2.854   2.105 -0.8829 -0.8166 -0.9702
   58MOL   O12221896   5.242   2.565   2.037  0.6617 -0.2347  0.0952
   58MOL   H12321897   5.421   2.725   2.164  1.1124 -0.0803 -0.1373
   58MOL   H12421898   5.380   2.858   2.042  0.1554 -0.6967 -0.2673
   58MOL   H12521899   5.227   2.735   1.923 -3.4581  1.3894  1.3356
   58MOL   H12621900   5.138   2.726   2.216  0.5770 -0.6754  0.8232
   58MOL   H12721901   5.182   2.873   2.139  0.3639 -0.2618  0.8596
   58MOL   H12821902   4.974   2.703   2.002 -1.2449 -0.8321  1.3066
   58MOL   H12921903   5.004   2.880   1.986 -1.1659  3.4051  4.0033
   58MOL   H13021904   4.902   2.761   2.237  1.2210  0.1019  0.6738
   58MOL   H13121905   4.931   2.929   2.204 -0.0034  0.4725  0.2621
   58MOL   H13221906   4.743   2.765   2.042  1.8596 -2.0900  0.0396
   58MOL   H13321907   4.687   2.875   2.183  1.7059  3.7417  0.3823
   58MOL   H13421908   4.751   2.938   2.036  2.4938  0.7470  0.4291
   58MOL   C13521909   5.325   2.480   1.966 -0.2849  0.9309 -0.8600
   58MOL   C13621910   5.251   2.343   1.944 -0.3076  0.8362  0.6116
   58MOL   C13721911   5.353   2.234   1.934  0.0934 -0.4670  1.0970
   58MOL   C13821912   5.312   2.089   1.923 -0.0741  0.1165 -0.2653
   58MOL   C13921913   5.426   1.982   1.912  0.3631  0.1856 -0.5296
   58MOL   C14021914   5.507   1.983   2.046 -0.2818  0.7497  0.2054
   58MOL   O14121915   5.180   2.328   1.822 -0.3087  0.2038  0.5508
   58MOL   H14221916   5.344   2.524   1.868 -1.4378 -1.7580 -2.3506
   58MOL   H14321917   5.423   2.465   2.011  0.1469  2.2955 -1.3133
   58MOL   H14421918   5.182   2.329   2.027 -2.3014  1.2629 -0.9499
   58MOL   H14521919   5.400   2.241   1.835  1.4220  1.8089  1.8465
   58MOL   H14621920   5.435   2.248   2.005 -1.2219  1.0415  2.3599
   58MOL   H14721921   5.243   2.082   1.839  0.5957 -0.3026 -0.7885
   58MOL   H14821922   5.264   2.059   2.016  1.8807  0.2484  0.8175
   58MOL   H14921923   5.493   2.014   1.832 -0.9171  2.5206 -0.7163
   58MOL   H15021924   5.387   1.882   1.894 -1.0695  0.9135 -1.5191
   58MOL   H15121925   5.431   1.974   2.123 -1.1328  3.0201 -0.3305
   58MOL   H15221926   5.574   1.897   2.054  1.6448  2.2332  0.4854
   58MOL   H15321927   5.570   2.071   2.058  1.6152 -0.7273  1.3592
   58MOL   C15421928   5.071   2.427   1.805 -0.6999 -0.6818  0.1509
   58MOL   C15521929   4.996   2.380   1.676 -0.1353  0.7341 -0.5461
   58MOL   C15621930   4.841   2.396   1.688  0.0171  0.5255 -0.9363
   58MOL   C15721931   4.786   2.530   1.732 -0.2927 -0.3002  0.5694
   58MOL   C15821932   4.630   2.533   1.707 -0.2467  0.4539 -0.3952
   58MOL   C15921933   4.569   2.670   1.745 -0.6744  0.3000 -0.5619
   58MOL   O16021934   5.050   2.460   1.570  0.3726 -0.0458  0.2994
   58MOL   H16121935   5.115   2.526   1.795  0.1128 -0.9881  0.6081
   58MOL   H16221936   5.017   2.424   1.900  1.1864  0.1184  1.2903
   58MOL   H16321937   5.014   2.273   1.666  1.3123  0.8154  1.0534
   58MOL   H16421938   4.812   2.321   1.761 -0.9737  0.7626 -1.0694
   58MOL   H16521939   4.793   2.372   1.593 -2.4074 -0.2535  0.4465
   58MOL   H16621940   4.835   2.600   1.664  2.5476  0.0355  2.8753
   58MOL   H16721941   4.820   2.546   1.834  1.3323 -1.6501  0.2687
   58MOL   H16821942   4.599   2.508   1.605  0.8339 -2.2920 -0.1068
   58MOL   H16921943   4.594   2.455   1.774  1.2529 -1.2900 -1.5618
   58MOL   H17021944   4.582   2.758   1.682 -1.3594  1.2911  0.6428
   58MOL   H17121945   4.611   2.707   1.839 -0.2138 -0.6621 -0.3869
   58MOL   H17221946   4.462   2.651   1.754 -0.6270  0.6220  0.9006
   58MOL   C17321947   5.097   2.388   1.456 -0.2263 -0.0930 -0.8214
   58MOL   C17421948   5.248   2.345   1.477 -0.4074  0.0629 -0.5724
   58MOL   C17521949   5.284   2.240   1.372  0.3195 -0.3201 -0.1034
   58MOL   C17621950   5.433   2.200   1.369 -0.1405 -0.0584 -0.2491
   58MOL   C17721951   5.461   2.071   1.285 -0.0292  0.4161  0.2930
   58MOL   C17821952   5.606   2.030   1.290 -0.0120 -0.4089 -0.2672
   58MOL   O17921953   5.318   2.466   1.456  0.0106  0.0134 -0.0202
   58MOL   H18021954   5.091   2.453   1.368  2.2455  0.1964 -0.8283
   58MOL   H18121955   5.030   2.304   1.437  0.1594 -0.1033 -2.2551
   58MOL   H18221956   5.274   2.303   1.575 -0.6455  0.6617 -0.2468
   58MOL   H18321957   5.223   2.155   1.402  0.7390 -1.4929 -2.4639
   58MOL   H18421958   5.264   2.283   1.274 -0.9622  1.1125  0.7771
   58MOL   H18521959   5.490   2.284   1.328  0.4003  0.3361  1.2580
   58MOL   H18621960   5.469   2.190   1.471 -1.4355  0.3724  0.2514
   58MOL   H18721961   5.401   1.991   1.330 -1.2531  1.7986  1.1412
   58MOL   H18821962   5.419   2.072   1.184  0.7540  0.3724 -0.0322
   58MOL   H18921963   5.603   1.931   1.244 -5.1460 -1.2894  1.5948
   58MOL   H19021964   5.641   2.008   1.391  0.2367 -3.2665 -0.9405
   58MOL   H19121965   5.682   2.097   1.250  1.2767  0.0512  2.7550
   58MOL   C19221966   5.433   2.490   1.534  0.7723  0.1405 -0.6558
   58MOL   C19321967   5.510   2.620   1.500 -0.5947  0.0066 -0.1805
   58MOL   C19421968   5.657   2.624   1.559 -0.3624 -0.2877 -0.3214
   58MOL   C19521969   5.748   2.751   1.530 -0.2927  0.3808  0.2394
   58MOL   C19621970   5.774   2.769   1.385 -0.0326 -0.5849  0.1568
   58MOL   C19721971   5.860   2.894   1.349  0.3536 -0.5119  0.2200
   58MOL   O19821972   5.448   2.732   1.560  0.1012 -0.5744  0.2339
   58MOL   H19921973   5.400   2.487   1.638  1.8193 -1.1322 -0.3375
   58MOL   H20021974   5.498   2.405   1.513 -0.0529 -0.9941  1.2567
   58MOL   H20121975   5.528   2.625   1.393  1.0297 -0.1930  0.0668
   58MOL   H20221976   5.651   2.613   1.668 -0.3463 -1.9010 -0.4744
   58MOL   H20321977   5.711   2.534   1.531  0.6634  0.7957 -1.9059
   58MOL   H20421978   5.847   2.746   1.573 -0.1352 -0.7709 -0.2488
   58MOL   H20521979   5.697   2.840   1.567  2.1632  1.9061  0.0337
   58MOL   H20621980   5.819   2.679   1.342  0.1256 -0.2515 -0.3829
   58MOL   H20721981   5.677   2.789   1.340  1.0677  0.7315 -1.7011
   58MOL   H20821982   5.959   2.893   1.394  0.3572  0.6231  0.2648
   58MOL   H20921983   5.864   2.892   1.240  0.4531 -1.4600  0.2386
   58MOL   H21021984   5.809   2.990   1.358 -0.5293 -0.8887 -0.6610
   58MOL   C21121985   5.349   2.799   1.485 -0.0462  0.0989 -0.1040
   58MOL   C21221986   5.239   2.838   1.590  0.2433 -0.1852  0.2594
   58MOL   C21321987   5.109   2.874   1.515 -0.4584  0.7801 -1.0687
   58MOL   C21421988   5.001   2.928   1.608 -0.3644 -0.1507  0.2572
   58MOL   C21521989   4.887   3.018   1.551  0.1603  0.1461 -0.3062
   58MOL   C21621990   4.847   3.135   1.643  0.1934 -0.3457  0.8604
   58MOL   O21721991   5.281   2.971   1.640  0.3027  0.3016 -0.2914
   58MOL   H21821992   5.311   2.730   1.411  2.1549 -2.2487  0.8783
   58MOL   H21921993   5.393   2.883   1.432 -1.2601  1.2334  0.6464
   58MOL   H22021994   5.230   2.759   1.665  0.7196 -1.9335 -1.5000
   58MOL   H22121995   5.139   2.950   1.443  1.2058  1.1852  0.0269
   58MOL   H22221996   5.084   2.787   1.455 -0.9759  0.9400 -1.0848
   58MOL   H22321997   4.970   2.860   1.687  0.7162  0.9129  1.6207
   58MOL   H22421998   5.046   3.003   1.673 -1.7857  0.2064  0.8530
   58MOL   H22521999   4.929   3.060   1.460  0.6215 -4.9401 -2.6226
   58MOL   H22622000   4.802   2.954   1.527 -0.6958  1.1383  0.0611
   58MOL   H22722001   4.802   3.216   1.586  2.0502  0.0193 -0.1097
   58MOL   H22822002   4.938   3.176   1.686  0.7426 -0.2137 -0.4119
   58MOL   H22922003   4.784   3.084   1.717  0.1929 -0.6341  0.6643
   58MOL   C23022004   5.305   2.986   1.778 -0.7407  0.6763  0.2614
   58MOL   C23122005   5.352   3.137   1.811 -0.6657  1.0382  0.0845
   58MOL   C23222006   5.233   3.225   1.800  0.3772 -0.2584  0.4965
   58MOL   C23322007   5.265   3.367   1.838 -0.1136 -0.6375  0.2234
   58MOL   C23422008   5.137   3.448   1.857 -0.0775  0.5760 -0.6278
   58MOL   C23522009   5.064   3.476   1.724 -0.0022  0.0689 -0.5703
   58MOL   O23622010   5.450   3.183   1.720  0.1492  0.0043  0.0482
   58MOL   H23722011   5.227   2.944   1.842  0.2277 -0.8095  0.4885
   58MOL   H23822012   5.395   2.938   1.815 -1.3079  0.3562  1.2659
   58MOL   H23922013   5.382   3.132   1.916 -1.3701 -0.7671  0.2260
   58MOL   H24022014   5.152   3.197   1.866 -0.6397  2.2183  0.3669
   58MOL   H24122015   5.194   3.222   1.699 -0.7168 -1.2279  0.9483
   58MOL   H24222016   5.331   3.420   1.769  3.8906  0.4481  4.6453
   58MOL   H24322017   5.318   3.372   1.933 -1.4352  2.4011  0.8581
   58MOL   H24422018   5.072   3.391   1.923  0.4986  0.8223  0.1525
   58MOL   H24522019   5.164   3.546   1.896  0.3934 -0.2373  1.1101
   58MOL   H24622020   5.121   3.536   1.653 -1.4992  4.2014  1.5467
   58MOL   H24722021   4.970   3.531   1.732  0.2612  0.4953 -0.3832
   58MOL   H24822022   5.037   3.380   1.679 -0.2048 -0.6502  1.0455
   58MOL   C24922023   5.581   3.158   1.752 -0.4368 -0.1951 -0.2413
   58MOL   C25022024   5.671   3.225   1.647 -0.2355 -0.2884 -0.2413
   58MOL   C25122025   5.815   3.205   1.684 -0.3847  0.7865  0.1348
   58MOL   C25222026   5.903   3.286   1.585  0.2010  0.2320  0.2011
   58MOL   C25322027   6.051   3.261   1.602 -0.5802 -0.9215  0.0837
   58MOL   C25422028   6.103   3.133   1.521  1.2999 -0.4059 -0.3328
   58MOL   O25522029   5.646   3.364   1.660 -0.0206  0.1287 -0.6323
   58MOL   H25622030   5.599   3.190   1.855 -0.7019  0.2744 -0.3385
   58MOL   H25722031   5.586   3.050   1.751 -1.7125 -0.2635 -0.3495
   58MOL   H25822032   5.650   3.193   1.545 -3.0604 -0.4385  0.3518
   58MOL   H25922033   5.829   3.218   1.791  0.2196 -0.1686  0.1798
   58MOL   H26022034   5.843   3.104   1.656  2.2273  1.6198 -0.4097
   58MOL   H26122035   5.886   3.258   1.481 -1.2547 -0.1488  0.5351
   58MOL   H26222036   5.879   3.389   1.610  4.1198  0.8538  1.8345
   58MOL   H26322037   6.119   3.342   1.576 -2.5235  0.6145 -0.3684
   58MOL   H26422038   6.059   3.249   1.710  3.0733 -0.1777 -0.0428
   58MOL   H26522039   6.084   3.038   1.571 -2.1854  0.2490 -0.2902
   58MOL   H26622040   6.212   3.132   1.516  1.3162  0.5829 -0.2364
   58MOL   H26722041   6.066   3.138   1.419  1.5699  0.4289 -0.3953
   58MOL   C26822042   5.564   3.423   1.562  0.2454 -0.0829 -0.0252
   58MOL   C26922043   5.548   3.572   1.591 -0.8461  0.3654 -0.2246
   58MOL   C27022044   5.426   3.628   1.524  0.7127 -0.0700 -0.7171
   58MOL   C27122045   5.383   3.768   1.574  0.0524  0.5447 -0.3354
   58MOL   C27222046   5.265   3.839   1.501 -0.5082 -0.5607  0.6318
   58MOL   C27322047   5.307   3.979   1.456 -0.0188 -0.5113  0.3062
   58MOL   O27422048   5.665   3.642   1.549  0.1946 -0.0240 -0.6294
   58MOL   H27522049   5.467   3.372   1.555 -0.6232  1.1859  2.2607
   58MOL   H27622050   5.616   3.416   1.466 -1.8195  1.7014 -1.3337
   58MOL   H27722051   5.528   3.582   1.698 -1.1801  0.1621 -0.2664
   58MOL   H27822052   5.448   3.626   1.417 -1.7230 -2.0959 -1.2329
   58MOL   H27922053   5.341   3.560   1.529  0.7355 -0.1681 -1.6753
   58MOL   H28022054   5.360   3.764   1.681 -1.3320  0.5508 -0.6166
   58MOL   H28122055   5.466   3.838   1.569  0.6324 -0.1479 -0.3197
   58MOL   H28222056   5.233   3.786   1.411  0.0284 -1.8808  1.2061
   58MOL   H28322057   5.180   3.842   1.570 -1.6686 -1.3523 -0.7418
   58MOL   H28422058   5.309   4.049   1.539 -1.4492  0.2497 -0.2817
   58MOL   H28522059   5.408   3.977   1.413 -0.4470  2.4514 -0.9608
   58MOL   H28622060   5.231   4.021   1.390 -0.4756 -0.6937  0.7115
   58MOL   C28722061   5.762   3.659   1.652 -0.3828 -0.5873 -0.0923
   58MOL   C28822062   5.880   3.734   1.593  0.2977 -0.5200 -0.4267
   58MOL   C28922063   6.013   3.695   1.668  0.3512  0.1631  0.1990
   58MOL   C29022064   6.143   3.752   1.604  0.7893  0.6804 -0.5846
   58MOL   C29122065   6.268   3.692   1.656  0.5043  0.2688 -0.6503
   58MOL   C29222066   6.401   3.742   1.591 -0.7465 -0.5059  0.3094
   58MOL   O29322067   5.869   3.874   1.623 -0.0176 -0.6680  0.0965
   58MOL   H29422068   5.786   3.557   1.682  0.7473  0.0164  1.1241
   58MOL   H29522069   5.731   3.706   1.746 -0.1728  0.8151 -0.7057
   58MOL   H29622070   5.887   3.729   1.485 -0.9355 -0.3582 -0.5220
   58MOL   H29722071   6.008   3.729   1.772 -2.5621 -1.1188  0.5355
   58MOL   H29822072   6.017   3.586   1.680  0.8875 -0.1562 -2.6000
   58MOL   H29922073   6.138   3.733   1.497 -1.0067 -1.2273 -0.2098
   58MOL   H30022074   6.150   3.858   1.625  0.5183  0.7289 -0.7482
   58MOL   H30122075   6.250   3.584   1.652 -1.5326  0.5967 -0.5759
   58MOL   H30222076   6.257   3.708   1.763  3.2175 -0.4335 -0.2164
   58MOL   H30322077   6.393   3.722   1.484 -1.7423 -2.0247  0.6478
   58MOL   H30422078   6.423   3.846   1.615 -1.8155 -0.1398 -0.2660
   58MOL   H30522079   6.483   3.677   1.623 -0.7665  0.0765  1.5495
   58MOL   C30622080   5.776   3.945   1.543  0.2057  0.2943 -0.2891
   58MOL   C30722081   5.785   4.093   1.591  0.0273 -0.3684  0.2101
   58MOL   C30822082   5.659   4.174   1.556 -0.2132  0.4045  0.0360
   58MOL   C30922083   5.649   4.311   1.621  0.0283  0.3204  0.0468
   58MOL   C31022084   5.517   4.387   1.594 -0.9824  0.3653  0.4795
   58MOL   C31122085   5.522   4.526   1.655 -0.4905  0.2614 -0.0354
   58MOL   O31222086   5.886   4.173   1.526  0.0881 -0.2470 -0.3250
   58MOL   H31322087   5.818   3.948   1.442 -0.4298  2.8435 -0.5193
   58MOL   H31422088   5.676   3.903   1.544  0.6711 -0.8149  0.9862
   58MOL   H31522089   5.797   4.093   1.700 -1.2495  1.5880  0.3744
   58MOL   H31622090   5.569   4.117   1.577  0.7685 -0.6611  1.5021
   58MOL   H31722091   5.674   4.193   1.450  1.7505  1.8611  0.5372
   58MOL   H31822092   5.661   4.292   1.727  0.3957  2.4882  0.4068
   58MOL   H31922093   5.735   4.372   1.593 -0.5662  1.7555  1.3101
   58MOL   H32022094   5.433   4.330   1.634 -1.4149 -0.2035 -1.2329
   58MOL   H32122095   5.500   4.391   1.487  2.5555 -4.9633 -0.4917
   58MOL   H32222096   5.422   4.569   1.660 -1.6035 -2.0987 -0.9376
   58MOL   H32322097   5.558   4.517   1.758 -0.3590 -0.5499 -0.1482
   58MOL   H32422098   5.576   4.605   1.603  1.3439 -0.7882  0.2304
   58MOL   C32522099   6.019   4.143   1.570 -0.1429  0.9263 -0.0943
   58MOL   C32622100   6.115   4.233   1.505 -0.3565  0.6727  0.7583
   58MOL   C32722101   6.259   4.192   1.539 -0.2212  0.3965 -0.4945
   58MOL   C32822102   6.362   4.277   1.451  0.5880 -0.0320  0.3485
   58MOL   C32922103   6.496   4.215   1.440  0.0601 -0.1248 -0.0654
   58MOL   C33022104   6.573   4.226   1.572 -0.1403  0.1403  0.4609
   58MOL   O33122105   6.108   4.362   1.567  0.0625  0.3087 -0.5539
   58MOL   H33222106   6.028   4.041   1.531  0.2882  1.2383 -0.8247
   58MOL   H33322107   6.022   4.143   1.678 -2.9131  1.2785  0.0295
   58MOL   H33422108   6.102   4.236   1.397  1.4419 -0.4228  0.4965
   58MOL   H33522109   6.276   4.193   1.646 -1.3273  0.5722 -0.3097
   58MOL   H33622110   6.265   4.091   1.497 -0.4166  0.4755 -0.7136
   58MOL   H33722111   6.323   4.290   1.350 -0.6220 -0.7525  0.7168
   58MOL   H33822112   6.375   4.378   1.490  2.6514  0.0849 -0.5531
   58MOL   H33922113   6.481   4.111   1.413 -0.6791 -0.7988  2.6871
   58MOL   H34022114   6.552   4.262   1.359  1.0479 -1.9261 -0.4608
   58MOL   H34122115   6.510   4.200   1.656  2.5639  0.9334  2.8252
   58MOL   H34222116   6.662   4.163   1.576  0.0386  0.2726 -0.9383
   58MOL   H34322117   6.609   4.329   1.577  2.1941 -0.5631 -0.8124
   58MOL   C34422118   6.034   4.439   1.482 -0.0148 -0.5792 -0.7433
   58MOL   C34522119   6.037   4.590   1.522 -0.4458 -0.5710  0.0197
   58MOL   C34622120   6.177   4.633   1.574  0.6869  0.8004  0.0658
   58MOL   C34722121   6.173   4.783   1.629 -0.4675  0.1984  0.3734
   58MOL   C34822122   6.302   4.810   1.713 -0.6857 -0.6007  0.4398
   58MOL   C34922123   6.291   4.945   1.780 -0.4278  0.1837 -0.3013
   58MOL   O35022124   5.996   4.684   1.417 -0.0959 -0.4339  0.6716
   58MOL   H35122125   5.928   4.416   1.486 -0.4848  0.5947 -4.2537
   58MOL   H35222126   6.072   4.438   1.379 -1.1560 -2.1635 -1.1617
   58MOL   H35322127   5.969   4.607   1.606  1.0422 -0.7687  1.2700
   58MOL   H35422128   6.255   4.619   1.500  0.3260 -0.9805  0.0081
   58MOL   H35522129   6.212   4.572   1.657 -1.0126  0.2798  0.4128
   58MOL   H35622130   6.086   4.803   1.693 -1.6373 -0.5847 -0.9303
   58MOL   H35722131   6.157   4.855   1.549  0.5366  0.4384  0.3838
   58MOL   H35822132   6.388   4.800   1.646 -1.8002 -0.0837 -1.1214
   58MOL   H35922133   6.312   4.726   1.781 -0.1913 -0.8580  0.0546
   58MOL   H36022134   6.200   4.928   1.838 -1.8779 -0.3000 -2.6522
   58MOL   H36122135   6.274   5.026   1.711 -0.9585  1.3518  1.1741
   58MOL   H36222136   6.376   4.971   1.844  0.2259 -1.9106 -0.2736
   58MOL   C36322137   5.853   4.693   1.392  0.5738  0.7988  0.5101
   58MOL   C36422138   5.832   4.829   1.332 -0.2254 -0.3877  0.0770
   58MOL   C36522139   5.686   4.868   1.313  0.7295 -0.4029  0.4618
   58MOL   C36622140   5.660   4.991   1.228  0.3462  0.8868 -0.3174
   58MOL   C36722141   5.689   5.129   1.298  0.4345 -0.2541 -0.1194
   58MOL   C36822142   5.696   5.242   1.197  0.3748 -0.5175  0.3997
   58MOL   O36922143   5.888   4.920   1.419  0.1021  0.6983 -0.3467
   58MOL   H37022144   5.790   4.669   1.478  2.8484 -1.1460  1.6859
   58MOL   H37122145   5.844   4.612   1.319  3.2979  0.6080  0.3567
   58MOL   H37222146   5.883   4.822   1.236  0.9518 -0.0219  0.6608
   58MOL   H37322147   5.628   4.787   1.270 -0.1663 -0.3031  1.4589
   58MOL   H37422148   5.643   4.883   1.413  2.0325  0.7668  0.8648
   58MOL   H37522149   5.728   4.980   1.143 -1.4918  0.5189 -1.7572
   58MOL   H37622150   5.560   4.984   1.186  0.2213 -2.1907  0.4152
   58MOL   H37722151   5.609   5.159   1.366 -1.5970  2.4245 -3.5437
   58MOL   H37822152   5.789   5.132   1.343  0.8317 -0.3445 -0.9738
   58MOL   H37922153   5.596   5.268   1.162  2.2614  1.8350 -3.5402
   58MOL   H38022154   5.734   5.333   1.244 -0.5150  0.9343 -1.6611
   58MOL   H38122155   5.761   5.211   1.115 -0.1229  0.4463 -0.3637
   58MOL   H38222156   5.982   4.904   1.419  0.0831  0.5942 -0.6010
   59MOL     C122157   3.685   6.444   2.787  0.3739  0.7770 -0.2384
   59MOL     C222158   3.736   6.453   2.932 -0.6739  0.2120 -0.2787
   59MOL     C322159   3.684   6.584   2.990 -0.3112 -0.1191  0.1045
   59MOL     C422160   3.738   6.611   3.135  0.3682  0.2172 -0.6710
   59MOL     C522161   3.709   6.751   3.187 -0.3392  0.2459 -0.3840
   59MOL     C622162   3.801   6.858   3.134  0.3377 -0.2344  0.7061
   59MOL     O722163   3.690   6.342   3.014  0.1072  0.1842 -0.2508
   59MOL     H822164   3.726   6.522   2.723 -1.5360 -0.4489 -3.0692
   59MOL     H922165   3.577   6.461   2.783  0.2401 -0.0450 -0.2202
   59MOL    H1022166   3.845   6.453   2.933 -0.6707  0.9237  0.2783
   59MOL    H1122167   3.705   6.665   2.920  1.0743  0.6823  1.4108
   59MOL    H1222168   3.576   6.574   2.998 -0.6265  1.8580 -1.2011
   59MOL    H1322169   3.698   6.535   3.201  1.8896  2.0147  2.4189
   59MOL    H1422170   3.843   6.582   3.139  0.3577  0.2581 -0.0870
   59MOL    H1522171   3.606   6.777   3.164 -1.5220 -3.4289  0.3679
   59MOL    H1622172   3.721   6.749   3.295  0.5992 -1.9003 -0.5115
   59MOL    H1722173   3.803   6.871   3.026  2.4884  2.2197  0.9765
   59MOL    H1822174   3.781   6.953   3.184 -2.5926 -0.5994  0.3409
   59MOL    H1922175   3.903   6.839   3.168  0.8623 -1.6352 -1.5471
   59MOL    H2022176   3.698   6.350   2.733  0.8455  0.9103 -0.3617
   59MOL    C2122177   3.782   6.252   3.067 -0.3735  0.4559  0.0228
   59MOL    C2222178   3.715   6.157   3.163  0.2254  0.0401  0.2053
   59MOL    C2322179   3.585   6.102   3.102  0.5345  0.4324  0.4145
   59MOL    C2422180   3.503   6.013   3.192 -0.5315 -0.2082  0.0631
   59MOL    C2522181   3.406   5.923   3.110 -0.6310 -0.8615 -0.4349
   59MOL    C2622182   3.328   5.830   3.197 -0.2549  0.6268  0.0307
   59MOL    O2722183   3.810   6.053   3.193  0.1654 -0.1794  0.1883
   59MOL    H2822184   3.809   6.200   2.975 -0.7747 -1.8222  1.1545
   59MOL    H2922185   3.871   6.304   3.104 -0.9782  1.7682 -0.3256
   59MOL    H3022186   3.693   6.199   3.261  0.1817 -2.8166  1.4439
   59MOL    H3122187   3.629   6.043   3.020  0.8045 -2.3862  2.5092
   59MOL    H3222188   3.521   6.181   3.064 -1.1712 -1.4684 -0.7766
   59MOL    H3322189   3.445   6.075   3.261  0.3417  1.7804 -0.9310
   59MOL    H3422190   3.568   5.950   3.252  1.2783  1.5014 -0.0065
   59MOL    H3522191   3.342   5.977   3.041 -0.0403  0.8299  0.3019
   59MOL    H3622192   3.467   5.860   3.045 -0.8329  0.6225 -2.1079
   59MOL    H3722193   3.258   5.866   3.272 -0.0863 -0.8264  0.9052
   59MOL    H3822194   3.404   5.782   3.259 -1.5811 -1.1640  0.3009
   59MOL    H3922195   3.271   5.757   3.140  0.0081  0.1569  0.3640
   59MOL    C4022196   3.918   6.100   3.279  0.7961 -0.0222 -0.4327
   59MOL    C4122197   4.030   5.994   3.298  0.4966  0.3471  0.0360
   59MOL    C4222198   4.113   6.031   3.423  0.8813 -0.2261 -0.7071
   59MOL    C4322199   4.171   6.173   3.417 -0.5809 -0.2984 -1.0182
   59MOL    C4422200   4.292   6.188   3.515 -0.2666  0.0299 -0.3257
   59MOL    C4522201   4.352   6.324   3.500  0.7178  0.1486 -0.0995
   59MOL    O4622202   4.102   5.993   3.178 -0.2070  0.6008 -0.1684
   59MOL    H4722203   3.863   6.112   3.373  1.4767 -0.2346  0.0009
   59MOL    H4822204   3.964   6.198   3.267  0.9767 -0.0605 -0.0811
   59MOL    H4922205   3.992   5.893   3.312 -0.3533  0.7120  0.4164
   59MOL    H5022206   4.044   6.019   3.507  1.6596 -0.5136 -0.0944
   59MOL    H5122207   4.184   5.948   3.429  1.9478  0.6735 -0.8257
   59MOL    H5222208   4.090   6.242   3.441  0.3744  0.7908 -0.9138
   59MOL    H5322209   4.210   6.197   3.318  0.6561 -3.2341 -1.2891
   59MOL    H5422210   4.248   6.183   3.615 -1.0598  3.6085 -0.4146
   59MOL    H5522211   4.371   6.113   3.503  0.4992  0.6286  0.8239
   59MOL    H5622212   4.436   6.328   3.569  1.5049 -1.0996 -0.9651
   59MOL    H5722213   4.397   6.328   3.400  0.8333  1.0581 -0.0173
   59MOL    H5822214   4.291   6.414   3.501 -1.3383 -1.2164 -0.2525
   59MOL    C5922215   4.074   5.890   3.087  0.0375 -0.0871 -0.4664
   59MOL    C6022216   4.166   5.907   2.970 -0.2464 -0.4917 -0.5563
   59MOL    C6122217   4.305   5.842   2.996  0.1680 -0.3496 -0.5680
   59MOL    C6222218   4.378   5.904   3.118 -0.5931  0.2618 -0.6401
   59MOL    C6322219   4.522   5.854   3.143  0.9680 -0.3362 -0.4121
   59MOL    C6422220   4.639   5.930   3.073 -0.4564 -0.3582  0.3983
   59MOL    O6522221   4.123   5.827   2.866  0.2188  0.1104  0.7312
   59MOL    H6622222   3.967   5.899   3.068  0.0583 -1.1630 -1.1528
   59MOL    H6722223   4.084   5.793   3.137 -2.1158 -0.0715  0.0265
   59MOL    H6822224   4.178   6.012   2.942  1.9986 -0.9381 -1.3837
   59MOL    H6922225   4.376   5.863   2.917  0.6985  1.2282  0.3038
   59MOL    H7022226   4.306   5.733   3.000 -2.3606 -0.4146 -0.8429
   59MOL    H7122227   4.332   5.883   3.214  2.6804 -0.9853  0.7042
   59MOL    H7222228   4.376   6.012   3.099  0.4720  1.1927  3.9188
   59MOL    H7322229   4.528   5.751   3.111 -1.9844 -1.0670  1.2143
   59MOL    H7422230   4.536   5.853   3.252  0.1327 -1.1369 -0.3115
   59MOL    H7522231   4.736   5.891   3.102  0.6187  1.5465 -0.5468
   59MOL    H7622232   4.635   5.932   2.964  1.0425 -0.9792  0.3231
   59MOL    H7722233   4.629   6.034   3.104 -1.3236 -0.6696  1.1999
   59MOL    C7822234   4.007   5.860   2.787  0.7671  0.1784  0.3707
   59MOL    C7922235   3.957   5.731   2.713  0.1341  0.0120 -0.4531
   59MOL    C8022236   3.926   5.747   2.560 -0.7716 -0.5384 -0.5079
   59MOL    C8122237   3.856   5.620   2.496 -0.3400 -1.2466 -0.3324
   59MOL    C8222238   3.951   5.518   2.445 -0.3392 -0.2903  0.0619
   59MOL    C8322239   3.886   5.404   2.370 -0.9550  0.2679  0.2116
   59MOL    O8422240   3.839   5.696   2.790 -0.0560 -0.0412  0.3556
   59MOL    H8522241   4.057   5.929   2.719 -1.9597 -0.3178 -2.2287
   59MOL    H8622242   3.928   5.909   2.845  0.1989  0.5468 -0.7057
   59MOL    H8722243   4.016   5.641   2.727  0.1007  0.0331 -0.1692
   59MOL    H8822244   3.861   5.833   2.542 -1.4660 -1.2477 -1.3966
   59MOL    H8922245   4.024   5.761   2.516 -0.2574 -0.2500  0.6947
   59MOL    H9022246   3.799   5.659   2.412  1.1991 -0.0674 -0.8508
   59MOL    H9122247   3.786   5.577   2.568 -0.8228  1.1789  0.7019
   59MOL    H9222248   4.011   5.576   2.376  0.8128 -0.3299  1.0147
   59MOL    H9322249   4.019   5.487   2.525  0.1045 -0.3544 -0.3439
   59MOL    H9422250   3.967   5.347   2.325 -0.3609 -0.0506  1.6748
   59MOL    H9522251   3.816   5.442   2.295 -0.9480 -1.4919 -0.7247
   59MOL    H9622252   3.833   5.333   2.434  0.2184 -0.7131  0.1195
   59MOL    C9722253   3.859   5.623   2.909 -0.1751  0.0313 -0.8931
   59MOL    C9822254   3.731   5.581   2.982  1.0797  0.1253 -0.3803
   59MOL    C9922255   3.651   5.459   2.924 -0.4161 -0.5350  0.1419
   59MOL   C10022256   3.505   5.446   2.985  0.5727  0.6879 -0.5970
   59MOL   C10122257   3.404   5.548   2.934  0.0670 -0.4443  0.2679
   59MOL   C10222258   3.370   5.555   2.783 -0.4340  0.6891 -0.1707
   59MOL   O10322259   3.755   5.542   3.115  0.0670 -0.1192 -0.3167
   59MOL   H10422260   3.925   5.683   2.973  1.8934 -2.2784 -0.8069
   59MOL   H10522261   3.906   5.527   2.890 -0.6297 -0.5966  1.0536
   59MOL   H10622262   3.670   5.669   2.966  1.2628  0.0613 -1.4945
   59MOL   H10722263   3.706   5.368   2.950  1.8948  0.7932  0.0901
   59MOL   H10822264   3.649   5.448   2.815 -0.0682  0.9589 -0.0232
   59MOL   H10922265   3.506   5.447   3.094  0.0606  1.4420 -0.6017
   59MOL   H11022266   3.476   5.343   2.964  3.3636 -0.5699  1.2931
   59MOL   H11122267   3.452   5.641   2.964  0.7269 -1.5689  2.8678
   59MOL   H11222268   3.308   5.539   2.984 -1.8962  1.0489 -3.1097
   59MOL   H11322269   3.458   5.558   2.719 -1.2915 -0.3207 -1.4157
   59MOL   H11422270   3.312   5.466   2.761 -0.8960  0.2264  2.6517
   59MOL   H11522271   3.309   5.643   2.763 -2.2300 -0.4457  0.1850
   59MOL   C11622272   3.735   5.656   3.204  0.1407  0.0110  0.1278
   59MOL   C11722273   3.807   5.638   3.334 -0.6620  0.4221  0.0184
   59MOL   C11822274   3.766   5.749   3.431  0.3063 -0.4793 -0.0234
   59MOL   C11922275   3.845   5.744   3.558  0.0248  0.0712  0.2270
   59MOL   C12022276   3.799   5.848   3.660  0.1824 -0.2083  1.0117
   59MOL   C12122277   3.894   5.853   3.785 -0.2518  0.0479 -0.0073
   59MOL   O12222278   3.951   5.641   3.323 -0.3404 -0.0481  0.7793
   59MOL   H12322279   3.769   5.751   3.163  1.0018  0.1207  1.0776
   59MOL   H12422280   3.626   5.661   3.211  0.2406  0.3539  1.5498
   59MOL   H12522281   3.776   5.541   3.373  1.8049 -0.1401  0.6955
   59MOL   H12622282   3.778   5.850   3.390  2.0985 -0.2692  0.9614
   59MOL   H12722283   3.659   5.734   3.448  0.0807  1.1891  0.1188
   59MOL   H12822284   3.949   5.750   3.529 -0.8902 -0.2219 -3.3253
   59MOL   H12922285   3.843   5.651   3.614 -2.6202 -1.0247 -1.5599
   59MOL   H13022286   3.798   5.948   3.616  1.7259 -0.7344 -0.2763
   59MOL   H13122287   3.702   5.818   3.700 -0.2910  0.3194  0.2796
   59MOL   H13222288   3.988   5.899   3.755 -0.2431  1.0454  1.4601
   59MOL   H13322289   3.855   5.919   3.863 -0.4391  0.3010 -0.3126
   59MOL   H13422290   3.921   5.754   3.821  0.1849  0.3243  0.4496
   59MOL   C13522291   4.012   5.516   3.281  0.2997 -0.0821  0.2765
   59MOL   C13622292   4.169   5.534   3.289 -1.0309  0.0542 -0.6451
   59MOL   C13722293   4.242   5.463   3.172  0.5302  0.3482 -0.1461
   59MOL   C13822294   4.401   5.464   3.179 -0.3911 -0.0516  0.4370
   59MOL   C13922295   4.464   5.406   3.046  0.3312 -0.3384 -0.2429
   59MOL   C14022296   4.451   5.506   2.923  0.5179 -0.2544  0.2839
   59MOL   O14122297   4.210   5.473   3.414 -0.2595  0.7158 -0.1161
   59MOL   H14222298   3.981   5.437   3.349  0.2394  0.0162  0.3649
   59MOL   H14322299   3.979   5.500   3.179  0.2397  0.9687  0.1192
   59MOL   H14422300   4.189   5.641   3.290 -0.6007 -0.0341  0.9059
   59MOL   H14522301   4.207   5.361   3.154 -0.0823  0.7554 -1.3002
   59MOL   H14622302   4.208   5.518   3.084 -2.9965 -1.9652 -0.3750
   59MOL   H14722303   4.428   5.397   3.261  1.6404 -1.0050 -0.9601
   59MOL   H14822304   4.438   5.565   3.193  1.0810 -0.1805 -2.0970
   59MOL   H14922305   4.410   5.312   3.030  1.7496 -1.2908  0.4375
   59MOL   H15022306   4.565   5.374   3.072  0.5006  0.6770  0.3524
   59MOL   H15122307   4.347   5.515   2.893  0.0564 -2.4175  1.1495
   59MOL   H15222308   4.486   5.604   2.955  0.0056 -0.1917  0.6688
   59MOL   H15322309   4.501   5.473   2.832 -0.3906 -1.0988  0.0746
   59MOL   C15422310   4.217   5.562   3.527  0.3286 -0.9157  0.5849
   59MOL   C15522311   4.258   5.503   3.664  0.5313 -0.9030 -0.0579
   59MOL   C15622312   4.261   5.619   3.764  0.8710  0.2511 -0.1101
   59MOL   C15722313   4.332   5.585   3.891  0.2210 -0.3795  0.2371
   59MOL   C15822314   4.281   5.695   3.990 -0.0139  0.5315  0.2917
   59MOL   C15922315   4.346   5.676   4.128 -0.1778  0.1903 -0.6041
   59MOL   O16022316   4.147   5.425   3.717  0.0985  0.2525  0.7065
   59MOL   H16122317   4.116   5.602   3.536 -0.4491 -2.4206 -1.1621
   59MOL   H16222318   4.278   5.647   3.499 -1.0345  0.3090  1.2250
   59MOL   H16322319   4.355   5.453   3.653  1.3421  0.5974  0.1103
   59MOL   H16422320   4.157   5.648   3.782  0.6923  0.0323 -0.7690
   59MOL   H16522321   4.308   5.702   3.712  0.5504  2.5964  3.2105
   59MOL   H16622322   4.441   5.592   3.884  0.2781  0.6517  1.9061
   59MOL   H16722323   4.303   5.485   3.925 -0.0547  0.4159  2.4237
   59MOL   H16822324   4.307   5.797   3.961 -1.5049  0.7342 -0.4200
   59MOL   H16922325   4.173   5.698   4.006  0.0719  0.4840  0.9260
   59MOL   H17022326   4.452   5.700   4.134 -0.6239  2.2010 -0.2729
   59MOL   H17122327   4.327   5.575   4.165  1.1568  0.2247  0.1875
   59MOL   H17222328   4.294   5.744   4.196  1.5347 -0.3782  1.3268
   59MOL   C17322329   4.131   5.290   3.671  0.1114 -0.7973  0.0609
   59MOL   C17422330   4.022   5.222   3.753 -0.3167 -0.0690 -0.6054
   59MOL   C17522331   4.008   5.080   3.706  0.1253  0.0159  0.3300
   59MOL   C17622332   3.878   5.010   3.759  0.2056  0.4690  0.2132
   59MOL   C17722333   3.875   4.861   3.724 -0.2405 -1.1519 -0.5439
   59MOL   C17822334   3.868   4.832   3.576  0.8933 -0.0472  0.1502
   59MOL   O17922335   4.065   5.220   3.891  0.4287  0.5087 -0.7485
   59MOL   H18022336   4.224   5.235   3.683  2.3397  2.2604 -2.3009
   59MOL   H18122337   4.108   5.294   3.565  0.8818  2.7984 -0.0359
   59MOL   H18222338   3.925   5.271   3.743 -1.1593 -1.1086  2.1549
   59MOL   H18322339   4.005   5.090   3.598 -0.4131 -0.7737  0.2648
   59MOL   H18422340   4.093   5.019   3.736 -0.9882 -0.8655  1.7969
   59MOL   H18522341   3.866   5.014   3.867  2.1942 -1.7033  0.5692
   59MOL   H18622342   3.789   5.060   3.721 -0.4997 -1.3640 -0.5999
   59MOL   H18722343   3.958   4.815   3.778  0.8943 -0.0946 -1.3698
   59MOL   H18822344   3.790   4.814   3.774  1.0913 -2.2050  0.7707
   59MOL   H18922345   3.948   4.882   3.521 -0.5517  2.8805  0.6467
   59MOL   H19022346   3.772   4.862   3.533 -0.0149  1.3612  3.0114
   59MOL   H19122347   3.885   4.725   3.560  2.0128  0.2360 -0.6214
   59MOL   C19222348   4.025   5.330   3.967 -0.4631  0.3752  0.3128
   59MOL   C19322349   3.957   5.279   4.099  0.7623 -1.0454  0.5084
   59MOL   C19422350   3.866   5.381   4.169  0.1345 -0.9907 -0.0577
   59MOL   C19522351   3.797   5.333   4.296 -0.1622  0.5581 -0.3585
   59MOL   C19622352   3.713   5.442   4.361  0.2128  0.5355  0.4725
   59MOL   C19722353   3.624   5.404   4.475  0.0080  0.0559 -0.1150
   59MOL   O19822354   4.065   5.247   4.178  0.0371 -0.1702  0.0332
   59MOL   H19922355   4.106   5.390   4.009  1.0306 -1.3777  0.0145
   59MOL   H20022356   3.968   5.391   3.898 -1.6323 -0.5857  0.4132
   59MOL   H20122357   3.896   5.192   4.076 -1.1381  0.4878 -0.3687
   59MOL   H20222358   3.914   5.475   4.195 -1.3916  0.9054 -3.6106
   59MOL   H20322359   3.786   5.409   4.099 -0.1352  2.0208  1.3737
   59MOL   H20422360   3.869   5.294   4.368  0.0383 -3.2107 -2.5107
   59MOL   H20522361   3.728   5.254   4.269 -0.8509  1.5710 -1.6147
   59MOL   H20622362   3.770   5.529   4.394  1.1377 -0.2163  0.8826
   59MOL   H20722363   3.649   5.482   4.282 -0.4704 -3.9369 -1.3837
   59MOL   H20822364   3.561   5.325   4.433  0.8782 -0.1401 -1.0595
   59MOL   H20922365   3.687   5.357   4.550  1.3160 -0.2933 -1.4168
   59MOL   H21022366   3.568   5.489   4.515  0.7123  0.2784  0.4074
   59MOL   C21122367   4.082   5.111   4.213  0.1927  0.5388 -0.4867
   59MOL   C21222368   4.196   5.083   4.320 -0.2731 -0.1946 -0.2693
   59MOL   C21322369   4.234   4.938   4.339  0.1037 -0.3661 -0.4739
   59MOL   C21422370   4.111   4.856   4.399 -0.3751 -0.4160 -0.3275
   59MOL   C21522371   4.145   4.711   4.430  0.3683  0.3787 -0.3331
   59MOL   C21622372   4.017   4.635   4.465  0.0022  0.4089  0.2046
   59MOL   O21722373   4.140   5.125   4.449  0.0925 -0.0306 -0.3658
   59MOL   H21822374   4.090   5.040   4.130  1.3733  0.0595  0.0235
   59MOL   H21922375   3.985   5.078   4.251  0.6630  0.1899  0.4095
   59MOL   H22022376   4.284   5.141   4.294 -0.2265 -0.0623  0.1739
   59MOL   H22122377   4.274   4.889   4.250  1.5179 -0.8771  0.4313
   59MOL   H22222378   4.309   4.940   4.418  1.4656 -1.3272 -1.7261
   59MOL   H22322379   4.095   4.895   4.500  1.9588 -2.8610  1.0621
   59MOL   H22422380   4.023   4.871   4.337 -0.8396  0.2262  0.4746
   59MOL   H22522381   4.198   4.665   4.347  0.4945  1.7676 -1.0317
   59MOL   H22622382   4.204   4.718   4.521 -1.1326 -1.2516  0.8148
   59MOL   H22722383   3.939   4.685   4.523 -1.2275 -0.4219 -0.7048
   59MOL   H22822384   4.042   4.536   4.504  0.9199  0.3399 -0.5304
   59MOL   H22922385   3.953   4.620   4.378 -1.2566 -2.0896  1.5189
   59MOL   C23022386   4.170   5.259   4.488  0.6595  0.0771 -0.4854
   59MOL   C23122387   4.087   5.288   4.605 -0.1587  0.5876 -0.4128
   59MOL   C23222388   4.084   5.443   4.621  0.5746  0.1003  0.3427
   59MOL   C23322389   3.969   5.482   4.719  0.0391 -0.1632 -0.1181
   59MOL   C23422390   3.990   5.622   4.776 -0.1406  0.5638 -0.1193
   59MOL   C23522391   4.003   5.740   4.672  0.3022 -0.3147 -0.0532
   59MOL   O23622392   4.140   5.243   4.731 -0.1408  0.1257  0.4258
   59MOL   H23722393   4.279   5.267   4.494  0.7477 -0.3399 -1.5935
   59MOL   H23822394   4.142   5.320   4.403  0.4671  1.3937  0.4960
   59MOL   H23922395   3.986   5.251   4.584 -0.9276  0.5783  2.9583
   59MOL   H24022396   4.057   5.490   4.526  2.4041 -0.5241 -0.5031
   59MOL   H24122397   4.183   5.484   4.641  1.4860 -0.3169 -3.0329
   59MOL   H24222398   3.958   5.419   4.808 -1.1153 -0.1539 -0.2463
   59MOL   H24322399   3.873   5.482   4.667  0.4583 -2.2036 -0.9294
   59MOL   H24422400   3.912   5.637   4.850 -0.9344 -0.5678 -0.7103
   59MOL   H24522401   4.082   5.621   4.834 -1.1452 -0.1358  1.4889
   59MOL   H24622402   3.914   5.739   4.610  0.5551  1.0112 -0.4476
   59MOL   H24722403   4.087   5.729   4.602  0.9810  0.1038  0.6884
   59MOL   H24822404   4.005   5.839   4.719 -0.1823 -1.7077  3.0184
   59MOL   C24922405   4.120   5.102   4.763 -0.3091 -0.1679 -0.1856
   59MOL   C25022406   4.198   5.054   4.885  0.0294  0.5617  0.6634
   59MOL   C25122407   4.212   4.898   4.884 -0.1805 -0.3259 -0.1453
   59MOL   C25222408   4.290   4.849   5.009  0.4779 -0.1598 -0.0939
   59MOL   C25322409   4.336   4.706   4.988  0.2020  0.1180 -0.5265
   59MOL   C25422410   4.405   4.639   5.109 -0.5002  0.3184 -0.6426
   59MOL   O25522411   4.130   5.084   4.999 -0.2011 -0.2423  0.1699
   59MOL   H25622412   4.017   5.070   4.778 -0.0695 -0.3910  1.0215
   59MOL   H25722413   4.159   5.046   4.678  0.9813 -1.7380  1.4151
   59MOL   H25822414   4.297   5.099   4.887  0.6551 -0.6976 -0.7168
   59MOL   H25922415   4.111   4.856   4.894 -0.8679  1.3980  0.3587
   59MOL   H26022416   4.267   4.862   4.797  0.1176 -3.5362  1.3144
   59MOL   H26122417   4.379   4.911   5.016  0.5608 -0.6004  3.1967
   59MOL   H26222418   4.220   4.851   5.093 -1.5857  1.2926 -1.7811
   59MOL   H26322419   4.249   4.647   4.958 -0.5429  0.0650  1.7003
   59MOL   H26422420   4.397   4.712   4.898  0.6066 -2.2977 -0.4613
   59MOL   H26522421   4.449   4.545   5.079  1.9731  0.6801  1.6640
   59MOL   H26622422   4.334   4.624   5.191  0.0306  2.8638  0.3302
   59MOL   H26722423   4.478   4.713   5.140 -0.3809 -0.8824  2.0705
   59MOL   C26822424   4.139   5.209   5.055 -0.9356 -0.2325  0.0230
   59MOL   C26922425   4.036   5.241   5.165 -0.5417  0.0435 -0.0085
   59MOL   C27022426   4.032   5.388   5.194  0.0450  0.8195  0.7412
   59MOL   C27122427   3.916   5.439   5.292 -0.6146  0.6891  0.4258
   59MOL   C27222428   3.881   5.588   5.286  0.7019  0.6289  1.0992
   59MOL   C27322429   3.831   5.647   5.146  0.5875  0.1960 -0.1302
   59MOL   O27422430   4.054   5.161   5.279 -0.5910 -1.0343 -0.1321
   59MOL   H27522431   4.133   5.283   4.975  1.8281 -0.6551 -0.6410
   59MOL   H27622432   4.242   5.220   5.089 -0.6064 -3.0014  0.0308
   59MOL   H27722433   3.949   5.218   5.104  0.0120  2.7516 -1.9129
   59MOL   H27822434   4.126   5.433   5.226  1.3116  0.2962 -2.1213
   59MOL   H27922435   4.025   5.435   5.096  2.8022 -0.3705 -0.0582
   59MOL   H28022436   3.819   5.393   5.273  0.0729 -1.1075  1.1602
   59MOL   H28122437   3.950   5.422   5.394 -0.7034 -0.7847  0.2303
   59MOL   H28222438   3.806   5.600   5.365 -0.3998  0.7640  0.0440
   59MOL   H28322439   3.972   5.635   5.325  1.8133 -1.0294  0.5558
   59MOL   H28422440   3.776   5.739   5.166 -1.0049 -0.2496 -2.3723
   59MOL   H28522441   3.925   5.671   5.096 -0.5918  1.4935 -1.7419
   59MOL   H28622442   3.773   5.578   5.086  1.5006 -1.6159  0.9908
   59MOL   C28722443   4.042   5.026   5.253 -0.1492  0.5418 -0.7543
   59MOL   C28822444   3.980   4.962   5.384 -0.1833 -0.2180 -0.0701
   59MOL   C28922445   3.983   4.809   5.379  0.4911 -0.1226 -0.3466
   59MOL   C29022446   3.925   4.732   5.496 -0.5153 -0.6805  0.3034
   59MOL   C29122447   3.898   4.578   5.491 -0.2180 -0.6231 -0.2822
   59MOL   C29222448   3.822   4.524   5.613 -0.0115 -0.4671 -0.0093
   59MOL   O29322449   3.846   5.011   5.399  0.2142  0.1050 -0.3321
   59MOL   H29422450   4.142   4.984   5.246 -0.9223 -2.1331  2.8573
   59MOL   H29522451   3.977   4.982   5.177 -1.1722  3.8792 -1.9043
   59MOL   H29622452   4.046   4.987   5.467  1.0515 -0.1399 -1.0417
   59MOL   H29722453   3.931   4.784   5.286 -0.2176  1.1090 -0.2918
   59MOL   H29822454   4.084   4.769   5.368  1.3416  1.6621  0.7886
   59MOL   H29922455   3.985   4.755   5.585 -0.2565  1.6068 -0.4359
   59MOL   H30022456   3.826   4.775   5.510  0.2594  0.6147  1.9767
   59MOL   H30122457   3.995   4.531   5.475  1.1621  1.3887  1.7944
   59MOL   H30222458   3.837   4.552   5.404  0.0252  0.7112 -0.8632
   59MOL   H30322459   3.713   4.533   5.609 -0.0272  0.2102  1.8146
   59MOL   H30422460   3.839   4.418   5.634 -0.1241 -0.5198 -0.1744
   59MOL   H30522461   3.833   4.588   5.700  1.9119  3.0740 -2.7180
   59MOL   C30622462   3.837   5.112   5.504  0.1875 -0.3906  0.3308
   59MOL   C30722463   3.697   5.166   5.521 -0.6674 -0.2484 -0.2501
   59MOL   C30822464   3.688   5.302   5.596 -0.2820 -0.0359  0.2358
   59MOL   C30922465   3.549   5.372   5.585 -0.0907  0.3244 -0.1721
   59MOL   C31022466   3.542   5.525   5.614 -0.5665  0.3239 -0.1302
   59MOL   C31122467   3.590   5.592   5.745 -0.0019  0.3902 -0.4449
   59MOL   O31222468   3.615   5.077   5.599  0.5358  0.0756 -0.4866
   59MOL   H31322469   3.865   5.074   5.602 -3.2751 -0.7001  1.2831
   59MOL   H31422470   3.910   5.190   5.482 -1.3608  0.9432 -0.2382
   59MOL   H31522471   3.649   5.173   5.423  0.5388 -2.2466 -1.0058
   59MOL   H31622472   3.766   5.372   5.566 -0.8900  0.6488  0.2417
   59MOL   H31722473   3.719   5.284   5.699  1.3581 -0.0365 -0.2391
   59MOL   H31822474   3.513   5.342   5.487  0.9839 -2.3025  0.1888
   59MOL   H31922475   3.481   5.318   5.651 -3.5423  0.9515 -3.0521
   59MOL   H32022476   3.438   5.556   5.602 -0.2424  1.2532 -0.6073
   59MOL   H32122477   3.599   5.567   5.531 -0.3036 -0.7054 -0.4742
   59MOL   H32222478   3.562   5.696   5.726  0.2808  0.8527  1.4925
   59MOL   H32322479   3.549   5.560   5.841  2.9644 -1.7344  0.2141
   59MOL   H32422480   3.699   5.583   5.752 -0.1920 -0.2964  2.5048
   59MOL   C32522481   3.531   5.003   5.526  0.0403 -0.2967 -0.8859
   59MOL   C32622482   3.476   4.897   5.619  0.2676 -0.2011  0.0803
   59MOL   C32722483   3.401   4.795   5.542  0.0070 -0.7009  0.1488
   59MOL   C32822484   3.342   4.680   5.623 -0.6007  0.8854  0.0455
   59MOL   C32922485   3.310   4.552   5.546 -0.4235  0.4246  0.0770
   59MOL   C33022486   3.435   4.470   5.537  0.2639  0.3824  0.4124
   59MOL   O33122487   3.382   4.952   5.725 -0.7545 -0.3858  0.2508
   59MOL   H33222488   3.587   4.953   5.446 -0.0139 -0.1450 -1.0195
   59MOL   H33322489   3.453   5.062   5.477 -0.3262 -1.0339 -1.2046
   59MOL   H33422490   3.565   4.853   5.663  0.9507  0.1773 -0.9076
   59MOL   H33522491   3.319   4.853   5.500  0.3797  0.2342  0.6787
   59MOL   H33622492   3.459   4.757   5.458  0.4748  1.8709 -0.7601
   59MOL   H33722493   3.397   4.663   5.716 -2.0309 -2.5529  0.3294
   59MOL   H33822494   3.248   4.714   5.665 -0.0395 -1.3055  3.3083
   59MOL   H33922495   3.245   4.491   5.609 -2.2832  2.1000 -0.1585
   59MOL   H34022496   3.261   4.577   5.451 -0.8452 -0.6457  0.0002
   59MOL   H34122497   3.413   4.371   5.497 -1.2133  0.5177  0.8517
   59MOL   H34222498   3.509   4.520   5.475 -0.2705  1.2586  0.4711
   59MOL   H34322499   3.490   4.454   5.630  3.6926 -0.1497 -1.6140
   59MOL   C34422500   3.459   4.985   5.843 -0.7590  0.4989 -0.7570
   59MOL   C34522501   3.375   5.037   5.968  0.1691  0.0425  0.7275
   59MOL   C34622502   3.447   5.014   6.101 -0.1138 -0.2517 -0.8830
   59MOL   C34722503   3.355   5.005   6.226 -0.6471 -0.0563  0.6739
   59MOL   C34822504   3.276   5.127   6.255  0.5496  0.3885  0.6536
   59MOL   C34922505   3.372   5.242   6.287 -0.7198 -0.1681 -0.5532
   59MOL   O35022506   3.348   5.176   5.969  0.0047  0.3113 -0.3714
   59MOL   H35122507   3.538   5.055   5.816  0.7825 -0.1952  1.8302
   59MOL   H35222508   3.517   4.894   5.860 -1.4324  0.3558  0.8430
   59MOL   H35322509   3.284   4.977   5.958 -0.2797  0.4828  2.0655
   59MOL   H35422510   3.518   5.097   6.104 -2.6944  2.1290 -2.6788
   59MOL   H35522511   3.507   4.924   6.112 -2.2577 -1.5601  0.6641
   59MOL   H35622512   3.414   4.980   6.314  0.2960 -2.7234 -0.6691
   59MOL   H35722513   3.284   4.923   6.216 -1.2075  0.4121  0.7828
   59MOL   H35822514   3.205   5.114   6.337 -0.2258  1.3070  0.1372
   59MOL   H35922515   3.204   5.154   6.177  0.3014  0.8066  1.0212
   59MOL   H36022516   3.425   5.280   6.200  1.5243 -0.6463  0.5706
   59MOL   H36122517   3.435   5.218   6.373 -1.3791  0.4417  0.1050
   59MOL   H36222518   3.323   5.332   6.324  2.6414  1.5392  0.0009
   59MOL   C36322519   3.256   5.225   5.879 -0.1875  0.0403 -0.8029
   59MOL   C36422520   3.243   5.379   5.885  0.0404 -0.0579  0.4296
   59MOL   C36522521   3.157   5.428   5.773 -0.3233 -0.1761 -0.2136
   59MOL   C36622522   3.174   5.572   5.753  0.0535  0.0813  0.2710
   59MOL   C36722523   3.093   5.633   5.640  0.4028 -0.8741 -0.2858
   59MOL   C36822524   3.110   5.784   5.620  0.3593 -0.2760 -0.7078
   59MOL   O36922525   3.194   5.410   6.015  0.2776  0.3482  0.2191
   59MOL   H37022526   3.160   5.176   5.893 -0.0953 -0.4179 -1.7424
   59MOL   H37122527   3.285   5.188   5.781  0.6024 -1.6652  0.0538
   59MOL   H37222528   3.343   5.423   5.879 -0.8786  1.9796 -0.5375
   59MOL   H37322529   3.205   5.391   5.682  0.8056  0.9133 -0.0836
   59MOL   H37422530   3.058   5.387   5.790 -1.1712  1.3424 -1.3685
   59MOL   H37522531   3.144   5.615   5.849 -3.3993 -0.5233 -0.4566
   59MOL   H37622532   3.281   5.593   5.745 -0.3985  2.1425 -0.8785
   59MOL   H37722533   3.105   5.574   5.550 -0.9846  0.4788 -1.3928
   59MOL   H37822534   2.991   5.625   5.676  0.4979  0.6102  0.3706
   59MOL   H37922535   3.035   5.814   5.547  0.7717  1.2889 -0.5047
   59MOL   H38022536   3.111   5.848   5.708  0.3271 -0.0789 -0.8527
   59MOL   H38122537   3.205   5.804   5.569  0.4648  1.0525 -0.0156
   59MOL   H38222538   3.210   5.329   6.062 -1.1242  0.6578  1.2607
   60MOL     C122539   4.259   0.101   1.949  0.3899 -0.9432 -0.0766
   60MOL     C222540   4.215   0.141   2.090 -0.1864  0.1876  0.5832
   60MOL     C322541   4.204   0.014   2.179 -0.0560 -0.2370 -0.0020
   60MOL     C422542   4.325   7.710   2.177  0.1786 -0.1794 -0.3894
   60MOL     C522543   4.335   7.616   2.296 -0.6561 -0.4007 -0.5630
   60MOL     C622544   4.235   7.499   2.285 -0.0609 -0.5510  0.3004
   60MOL     O722545   4.316   0.228   2.148  0.4735  0.5636 -0.5426
   60MOL     H822546   4.191   0.034   1.896  1.5324 -0.1765 -2.6135
   60MOL     H922547   4.358   0.057   1.944  1.0885  0.7668 -2.0351
   60MOL    H1022548   4.124   0.201   2.087  1.8696  3.3131 -1.2812
   60MOL    H1122549   4.176   0.038   2.281 -0.3764  2.7506 -0.7473
   60MOL    H1222550   4.117   7.752   2.134  0.2542  0.2906 -1.1937
   60MOL    H1322551   4.311   7.657   2.082 -2.2540 -1.7743  0.8176
   60MOL    H1422552   4.416   7.771   2.173  0.0992 -0.0415 -0.0845
   60MOL    H1522553   4.437   7.579   2.303 -0.5790  0.1103  1.0735
   60MOL    H1622554   4.310   7.675   2.384 -0.6108 -1.3107  0.0777
   60MOL    H1722555   4.269   7.437   2.202 -0.4883  0.8024 -0.9022
   60MOL    H1822556   4.243   7.441   2.377  1.8182  2.2275  1.9595
   60MOL    H1922557   4.129   7.523   2.278 -0.0802 -1.1277 -1.8418
   60MOL    H2022558   4.257   0.183   1.877 -0.0709 -1.1380 -0.2897
   60MOL    C2122559   4.314   0.365   2.101  0.8511 -0.3254 -0.2085
   60MOL    C2222560   4.393   0.452   2.198 -0.0818 -0.6543  0.7471
   60MOL    C2322561   4.539   0.431   2.186 -0.0461 -0.2564 -1.2456
   60MOL    C2422562   4.627   0.532   2.264 -0.7813 -0.1521  0.8417
   60MOL    C2522563   4.777   0.527   2.234  0.1089 -0.4893 -0.4748
   60MOL    C2622564   4.854   0.616   2.329 -0.2975 -0.1180 -0.0606
   60MOL    O2722565   4.353   0.586   2.172  0.0059  0.0751 -0.1167
   60MOL    H2822566   4.360   0.373   2.003  1.4982 -0.7252  0.0655
   60MOL    H2922567   4.212   0.403   2.105  1.9004  2.4842  1.9468
   60MOL    H3022568   4.368   0.419   2.299 -0.1718 -3.5589 -0.1726
   60MOL    H3122569   4.573   0.438   2.083  0.7830 -1.5867 -1.0737
   60MOL    H3222570   4.556   0.331   2.227 -1.4843 -0.5131 -1.2226
   60MOL    H3322571   4.605   0.530   2.371 -0.4419 -0.1940  0.9124
   60MOL    H3422572   4.600   0.633   2.236 -0.4138 -0.1576  0.4667
   60MOL    H3522573   4.822   0.428   2.232  3.4982  1.0056 -1.6379
   60MOL    H3622574   4.790   0.571   2.135  0.3627  0.8216  0.1283
   60MOL    H3722575   4.957   0.633   2.300  0.7475 -4.1104  1.0450
   60MOL    H3822576   4.861   0.575   2.430 -1.4652 -1.5115 -0.5251
   60MOL    H3922577   4.813   0.717   2.339 -0.4680 -0.2831  1.0390
   60MOL    C4022578   4.243   0.638   2.255  0.4320 -0.0537  0.2950
   60MOL    C4122579   4.309   0.714   2.372  0.1649  0.2557  0.2480
   60MOL    C4222580   4.249   0.690   2.509 -0.0235 -0.0228  0.1460
   60MOL    C4322581   4.320   0.724   2.642  0.7149 -0.2103  0.4650
   60MOL    C4422582   4.219   0.729   2.754  0.3911 -0.5475 -0.2541
   60MOL    C4522583   4.286   0.783   2.881 -0.1625  0.1692 -0.0692
   60MOL    O4622584   4.315   0.855   2.342  0.3039  0.3357  0.3409
   60MOL    H4722585   4.179   0.553   2.280  0.1726 -0.0767 -0.4458
   60MOL    H4822586   4.183   0.706   2.196 -0.9063 -1.7078 -0.3057
   60MOL    H4922587   4.409   0.673   2.386  0.9904  2.1815  0.0877
   60MOL    H5022588   4.154   0.743   2.507 -0.3530 -0.5590  1.1798
   60MOL    H5122589   4.213   0.588   2.520  0.1294  0.1330  2.5533
   60MOL    H5222590   4.378   0.816   2.641 -1.8265  1.4627 -2.7610
   60MOL    H5322591   4.393   0.645   2.661  3.1861  2.3355  1.8554
   60MOL    H5422592   4.132   0.792   2.734 -0.7228 -1.6456  0.9780
   60MOL    H5522593   4.183   0.629   2.776  2.0075 -0.6255  2.1958
   60MOL    H5622594   4.370   0.722   2.911  0.3352  0.9496  0.1454
   60MOL    H5722595   4.329   0.883   2.872  0.2399 -0.1424 -1.9943
   60MOL    H5822596   4.221   0.778   2.968  0.8879 -1.4367  0.6278
   60MOL    C5922597   4.441   0.888   2.278 -0.3276 -0.1916  0.6798
   60MOL    C6022598   4.459   1.024   2.194 -0.2669  0.0541 -0.1850
   60MOL    C6122599   4.424   1.143   2.285 -0.1498 -0.2114  0.1015
   60MOL    C6222600   4.409   1.273   2.206 -0.6227 -0.6087 -1.1567
   60MOL    C6322601   4.418   1.398   2.292  0.2241  0.7672  0.7067
   60MOL    C6422602   4.403   1.529   2.212 -0.6666  0.0005 -0.6385
   60MOL    O6522603   4.599   1.048   2.163  0.8603 -0.2961  0.0640
   60MOL    H6622604   4.461   0.810   2.205 -0.1164  0.0363  0.4927
   60MOL    H6722605   4.518   0.879   2.355  2.0061  0.8373 -1.4729
   60MOL    H6822606   4.400   1.039   2.104 -0.1016 -0.0029 -0.3027
   60MOL    H6922607   4.508   1.150   2.354 -0.1446 -0.8676  0.1673
   60MOL    H7022608   4.338   1.116   2.345  0.1399  0.0161  0.6197
   60MOL    H7122609   4.315   1.278   2.152  0.0182 -0.7898 -2.2931
   60MOL    H7222610   4.498   1.286   2.144  0.2719 -0.2093  0.1870
   60MOL    H7322611   4.514   1.413   2.342  0.7611  0.5270 -0.2351
   60MOL    H7422612   4.341   1.397   2.368  2.2558  1.1177  2.8165
   60MOL    H7522613   4.306   1.526   2.162 -0.5871 -2.4916 -0.7022
   60MOL    H7622614   4.416   1.619   2.274  1.5425  0.3760 -1.6122
   60MOL    H7722615   4.473   1.537   2.129  0.9842 -0.4201  0.6882
   60MOL    C7822616   4.661   0.935   2.094 -0.0330  0.3993  0.8878
   60MOL    C7922617   4.805   0.973   2.039  0.5256  0.3524  0.3893
   60MOL    C8022618   4.851   0.869   1.939  0.3760 -0.1505 -0.3325
   60MOL    C8122619   4.986   0.894   1.881  0.4728 -0.1406  0.2182
   60MOL    C8222620   5.019   0.793   1.773 -0.2438  0.2683  0.5942
   60MOL    C8322621   5.167   0.803   1.735 -0.4943  0.1834  0.9172
   60MOL    O8422622   4.890   0.972   2.151 -0.0961  0.4612  0.5449
   60MOL    H8522623   4.597   0.918   2.008  3.2177  1.5834 -1.8677
   60MOL    H8622624   4.668   0.845   2.155  0.3276 -0.1545  0.0319
   60MOL    H8722625   4.795   1.069   1.988 -1.9354  0.0993  0.3366
   60MOL    H8822626   4.853   0.774   1.992 -1.8953  0.7348  1.4118
   60MOL    H8922627   4.776   0.865   1.860  0.0216 -0.5916  0.0231
   60MOL    H9022628   5.056   0.875   1.962 -0.1441 -2.0114  0.3305
   60MOL    H9122629   5.002   0.998   1.853  0.0183 -0.0986  0.1174
   60MOL    H9222630   5.010   0.693   1.816  2.3567 -0.9793 -1.6218
   60MOL    H9322631   4.948   0.807   1.693  2.3165  0.3479 -1.7390
   60MOL    H9422632   5.222   0.792   1.829 -0.5083 -0.1374  0.8880
   60MOL    H9522633   5.199   0.896   1.688 -0.2842  0.1049  0.9066
   60MOL    H9622634   5.199   0.725   1.666 -0.2428 -0.2662  1.5379
   60MOL    C9722635   4.890   1.097   2.221 -0.2965  0.2432  0.2147
   60MOL    C9822636   4.985   1.093   2.336 -0.4519  0.3182  0.3163
   60MOL    C9922637   5.086   1.210   2.349 -0.2114  0.0252 -0.0721
   60MOL   C10022638   5.024   1.343   2.395  0.5328 -0.0334  0.0869
   60MOL   C10122639   5.113   1.463   2.409  0.0757  0.3009  0.0849
   60MOL   C10222640   5.223   1.454   2.521 -0.2236 -0.2917  0.3314
   60MOL   O10322641   4.924   1.071   2.462 -0.7599 -0.3156  0.2373
   60MOL   H10422642   4.791   1.129   2.253 -0.1030 -1.3251  2.5650
   60MOL   H10522643   4.935   1.172   2.156 -3.6939  2.4094  0.2329
   60MOL   H10622644   5.044   1.005   2.310 -1.6394  0.3592 -2.7067
   60MOL   H10722645   5.115   1.225   2.245 -3.4941  0.0597 -1.0368
   60MOL   H10822646   5.177   1.183   2.404  0.7759 -0.6308 -1.9667
   60MOL   H10922647   4.972   1.327   2.489 -0.4341  0.5018 -0.3465
   60MOL   H11022648   4.956   1.375   2.316  1.6635 -2.3694 -1.9344
   60MOL   H11122649   5.039   1.540   2.429 -2.4251 -1.5054 -1.9921
   60MOL   H11222650   5.169   1.486   2.318  0.5353  2.3972  0.8670
   60MOL   H11322651   5.283   1.544   2.528 -0.1591 -0.2526 -0.6719
   60MOL   H11422652   5.173   1.426   2.614 -0.6634  1.6786  0.7046
   60MOL   H11522653   5.287   1.369   2.498 -1.0029 -0.8697  0.2620
   60MOL   C11622654   4.850   0.952   2.469 -1.2062  0.1995  0.5009
   60MOL   C11722655   4.799   0.938   2.615 -0.2709 -0.5790 -0.3384
   60MOL   C11822656   4.768   0.792   2.662 -0.5771 -0.0638  1.1006
   60MOL   C11922657   4.737   0.776   2.811 -0.7206  0.1927  0.2898
   60MOL   C12022658   4.685   0.634   2.846 -0.1105  0.7178  0.4013
   60MOL   C12122659   4.677   0.606   2.991 -0.4352 -0.1121 -0.5351
   60MOL   O12222660   4.676   1.016   2.625 -0.2541  0.2560  0.6911
   60MOL   H12322661   4.764   0.943   2.403 -0.9492 -1.9605  0.4500
   60MOL   H12422662   4.916   0.867   2.452  1.7645  1.9709  2.6404
   60MOL   H12522663   4.876   0.966   2.687 -2.5195  3.8694  0.4721
   60MOL   H12622664   4.692   0.756   2.593  1.3182 -0.3021 -0.9301
   60MOL   H12722665   4.860   0.742   2.632  1.5967  3.2267  1.9890
   60MOL   H12822666   4.665   0.855   2.834  0.8584  1.4804  0.8672
   60MOL   H12922667   4.822   0.809   2.871 -0.8296  0.3953  0.3343
   60MOL   H13022668   4.586   0.633   2.800  0.1784  1.2357 -0.2472
   60MOL   H13122669   4.742   0.557   2.794 -1.7974 -0.1962 -0.1521
   60MOL   H13222670   4.630   0.690   3.042 -1.3063 -1.1925  0.4667
   60MOL   H13322671   4.637   0.512   3.029 -0.9870  0.3634  0.0670
   60MOL   H13422672   4.773   0.615   3.040 -0.6978 -1.7871  0.3329
   60MOL   C13522673   4.683   1.155   2.609  0.4524  0.2830 -0.2009
   60MOL   C13622674   4.585   1.228   2.697 -0.4842  0.8112 -0.1510
   60MOL   C13722675   4.559   1.370   2.649  0.1895  0.0620 -0.0455
   60MOL   C13822676   4.432   1.428   2.713 -0.8160 -0.0561 -0.5380
   60MOL   C13922677   4.402   1.570   2.656  0.5391 -0.5240  0.6817
   60MOL   C14022678   4.261   1.622   2.696  0.0484 -0.0054  0.1526
   60MOL   O14122679   4.645   1.254   2.828  0.2131  0.2395 -0.0802
   60MOL   H14222680   4.781   1.200   2.626  0.5711 -0.4371  1.1332
   60MOL   H14322681   4.666   1.173   2.503 -0.9505  1.2863  0.1672
   60MOL   H14422682   4.490   1.174   2.698  1.6358 -3.1705 -1.8696
   60MOL   H14522683   4.639   1.441   2.671 -0.0916  0.0425  1.0670
   60MOL   H14622684   4.567   1.361   2.541  1.0516 -2.2394  0.1624
   60MOL   H14722685   4.455   1.435   2.819  0.6984  0.3990 -0.8822
   60MOL   H14822686   4.344   1.365   2.699 -1.3840  0.8971 -1.3484
   60MOL   H14922687   4.412   1.559   2.548  3.0070 -1.4134  0.9639
   60MOL   H15022688   4.479   1.641   2.685 -0.0154  0.5871 -0.5062
   60MOL   H15122689   4.260   1.638   2.804 -2.3845 -1.8492  0.4453
   60MOL   H15222690   4.246   1.721   2.654  0.1075 -0.3917 -0.8009
   60MOL   H15322691   4.182   1.550   2.676  0.8396  0.0390 -3.4052
   60MOL   C15422692   4.636   1.145   2.916 -0.6164 -0.0995  0.3694
   60MOL   C15522693   4.576   1.184   3.054 -0.6985 -0.8119 -0.0767
   60MOL   C15622694   4.574   1.067   3.149  0.2324 -0.9425 -0.5078
   60MOL   C15722695   4.477   0.951   3.114  0.3175  0.1393 -0.3169
   60MOL   C15822696   4.441   0.871   3.237  0.2450 -1.0363 -0.1479
   60MOL   C15922697   4.360   0.745   3.213 -0.2495  0.3617 -0.6388
   60MOL   O16022698   4.657   1.293   3.111 -0.1793 -0.8119  0.3488
   60MOL   H16122699   4.732   1.094   2.928  0.9619  3.2265  2.6593
   60MOL   H16222700   4.568   1.074   2.869  0.5631 -0.2482 -1.1513
   60MOL   H16322701   4.473   1.217   3.036 -0.8602 -1.8975 -1.2442
   60MOL   H16422702   4.538   1.106   3.244 -0.7163 -1.5095 -0.6274
   60MOL   H16522703   4.676   1.035   3.172  0.4230  0.6612  0.9579
   60MOL   H16622704   4.525   0.889   3.039  3.8069  1.0118  1.1248
   60MOL   H16722705   4.382   0.984   3.070 -0.1561  2.2497  2.1223
   60MOL   H16822706   4.539   0.848   3.280  2.8086  4.1851 -2.6765
   60MOL   H16922707   4.395   0.927   3.319  0.4475  1.5430 -1.7201
   60MOL   H17022708   4.404   0.685   3.134 -0.8170 -0.5642 -0.2516
   60MOL   H17122709   4.254   0.755   3.190 -0.2967  1.1460 -0.1230
   60MOL   H17222710   4.363   0.692   3.308  1.6007 -0.5787 -1.1914
   60MOL   C17322711   4.599   1.423   3.080 -0.5577 -0.5532  0.0467
   60MOL   C17422712   4.667   1.543   3.149  0.3261 -0.3461  0.0397
   60MOL   C17522713   4.639   1.660   3.052 -0.4175 -0.4783  0.6638
   60MOL   C17622714   4.702   1.796   3.085  0.0249 -0.1741  0.6980
   60MOL   C17722715   4.684   1.917   2.988  0.5901  0.0872 -0.3023
   60MOL   C17822716   4.786   2.022   3.015  0.3019 -0.9367  0.3757
   60MOL   O17922717   4.617   1.581   3.270  1.1628 -0.1925 -0.0900
   60MOL   H18022718   4.494   1.432   3.106 -0.0381  0.0846  1.9970
   60MOL   H18122719   4.610   1.428   2.971 -0.1684  1.5392  0.1588
   60MOL   H18222720   4.774   1.524   3.160 -0.6163 -5.2159  1.8296
   60MOL   H18322721   4.675   1.632   2.953  2.2734  0.2838  1.3796
   60MOL   H18422722   4.532   1.677   3.043 -0.2879  0.3252  0.6577
   60MOL   H18522723   4.662   1.824   3.183 -0.3336 -0.4822  0.6445
   60MOL   H18622724   4.808   1.772   3.093 -0.2578 -1.8180 -0.1799
   60MOL   H18722725   4.692   1.877   2.887  0.9614  0.5065 -0.4383
   60MOL   H18822726   4.589   1.963   3.013  0.7798 -0.7111  2.0769
   60MOL   H18922727   4.773   2.066   3.114 -1.5947  0.2146 -0.3662
   60MOL   H19022728   4.781   2.105   2.945  2.7401  1.1389  2.5776
   60MOL   H19122729   4.888   1.983   3.011  0.9861  0.8212  0.2808
   60MOL   C19222730   4.660   1.494   3.378 -0.4205 -0.0729  0.8486
   60MOL   C19322731   4.784   1.556   3.443 -0.2477 -0.3275  0.2083
   60MOL   C19422732   4.797   1.711   3.421 -0.5150 -0.0071  0.4378
   60MOL   C19522733   4.912   1.773   3.494  0.1318  0.6558 -0.7325
   60MOL   C19622734   4.929   1.912   3.437 -1.2246 -0.2493  0.6996
   60MOL   C19722735   5.035   1.985   3.529 -0.2802  0.2962  0.3101
   60MOL   O19822736   4.908   1.502   3.400  0.1884 -0.2759  0.5873
   60MOL   H19922737   4.572   1.503   3.441 -3.4018 -0.5038 -3.0448
   60MOL   H20022738   4.672   1.389   3.350 -1.9613  0.1760 -0.8268
   60MOL   H20122739   4.774   1.533   3.549  0.8559 -1.3769  0.0874
   60MOL   H20222740   4.807   1.727   3.314  2.8515  1.9838  0.9793
   60MOL   H20322741   4.703   1.758   3.450 -0.2369  0.6568  0.2731
   60MOL   H20422742   4.997   1.712   3.465  1.5886  2.2016  0.2032
   60MOL   H20522743   4.919   1.765   3.602 -1.4891 -2.6534 -0.8100
   60MOL   H20622744   4.965   1.905   3.334  0.2375 -0.4104  1.2190
   60MOL   H20722745   4.834   1.966   3.437 -0.5770  0.8932  1.1303
   60MOL   H20822746   5.124   1.927   3.504 -0.7356  0.5098 -1.9109
   60MOL   H20922747   5.055   2.091   3.515  0.2159 -0.0328 -1.7018
   60MOL   H21022748   5.025   1.965   3.635  2.6804 -2.7088  0.1191
   60MOL   C21122749   4.951   1.378   3.457  0.0271 -0.1547  0.2415
   60MOL   C21222750   5.054   1.313   3.361  0.1294 -0.8499 -0.2223
   60MOL   C21322751   4.991   1.260   3.229 -0.1746  0.0331 -0.1297
   60MOL   C21422752   5.095   1.212   3.126  0.0507  0.3679 -0.3380
   60MOL   C21522753   5.041   1.168   2.987  0.4898 -0.2308 -0.8923
   60MOL   C21622754   5.156   1.149   2.882 -0.0542 -0.0287 -0.1996
   60MOL   O21722755   5.132   1.215   3.422  0.5223 -0.2654  0.0838
   60MOL   H21822756   4.867   1.309   3.463 -0.5176  0.5564  0.9924
   60MOL   H21922757   4.998   1.386   3.555  1.7121 -1.1088 -0.4728
   60MOL   H22022758   5.115   1.399   3.336 -0.1111 -1.2748 -2.3894
   60MOL   H22122759   4.924   1.183   3.268  1.8685 -1.5984  0.2205
   60MOL   H22222760   4.928   1.337   3.183 -1.2300 -1.0684 -0.5545
   60MOL   H22322761   5.171   1.289   3.113 -0.6938  1.1671  0.0003
   60MOL   H22422762   5.146   1.127   3.171  1.8780  1.6995  0.1755
   60MOL   H22522763   4.969   1.087   2.994 -2.0259  1.6997 -2.9842
   60MOL   H22622764   4.992   1.258   2.949 -1.3091 -0.4629  0.7991
   60MOL   H22722765   5.108   1.127   2.787  0.6283  0.3156 -0.6259
   60MOL   H22822766   5.222   1.063   2.899 -0.5205  0.0578  2.1658
   60MOL   H22922767   5.222   1.235   2.875  0.6390 -0.5417 -0.1349
   60MOL   C23022768   5.239   1.267   3.500 -1.2757  0.4355 -0.2270
   60MOL   C23122769   5.320   1.159   3.579 -0.5012  0.5159 -1.1216
   60MOL   C23222770   5.236   1.061   3.656  0.0937  0.0768 -0.1943
   60MOL   C23322771   5.143   1.125   3.771  0.2217 -0.2742  0.0007
   60MOL   C23422772   5.062   1.016   3.838  0.2891 -0.6913 -0.1816
   60MOL   C23522773   4.971   1.047   3.954  0.6125  0.1090  1.3131
   60MOL   O23622774   5.393   1.227   3.687  0.5012 -0.4872  0.7928
   60MOL   H23722775   5.309   1.327   3.442 -1.1830  2.0257  1.4796
   60MOL   H23822776   5.208   1.339   3.576  1.2551 -0.8714  2.1091
   60MOL   H23922777   5.393   1.106   3.518  0.3407 -0.0190  0.3215
   60MOL   H24022778   5.308   0.999   3.710 -0.4956 -0.0174  0.4985
   60MOL   H24122779   5.183   0.992   3.590  2.0266  0.9926 -2.7785
   60MOL   H24222780   5.071   1.193   3.727 -1.9760 -2.4350  0.1218
   60MOL   H24322781   5.194   1.181   3.850  0.9439 -0.1539 -0.5448
   60MOL   H24422782   5.007   0.948   3.773 -1.8089 -0.3968  1.2455
   60MOL   H24522783   5.142   0.955   3.882 -2.1763 -4.1284 -0.2557
   60MOL   H24622784   4.946   0.961   4.015 -0.9685 -0.5691 -0.2481
   60MOL   H24722785   4.884   1.106   3.925  0.0428 -2.2279 -1.9259
   60MOL   H24822786   5.016   1.101   4.038  1.3676 -0.2897  1.1731
   60MOL   C24922787   5.512   1.294   3.635  0.2079 -0.4536 -0.1803
   60MOL   C25022788   5.593   1.342   3.756  0.2747 -0.3869  0.3166
   60MOL   C25122789   5.549   1.481   3.809 -0.6059  0.4419  0.3805
   60MOL   C25222790   5.604   1.509   3.952 -0.4589 -0.1226  0.2671
   60MOL   C25322791   5.564   1.645   4.012  0.0506 -0.4756  0.0024
   60MOL   C25422792   5.623   1.663   4.147 -0.6969 -0.9131 -0.9413
   60MOL   O25522793   5.728   1.371   3.722 -0.3410  0.6217  0.3211
   60MOL   H25622794   5.573   1.224   3.578  1.8733  0.2450  0.7122
   60MOL   H25722795   5.480   1.375   3.570 -2.0415 -1.2632 -0.1445
   60MOL   H25822796   5.581   1.279   3.844 -0.4994 -0.2677  0.3022
   60MOL   H25922797   5.564   1.556   3.732 -0.6437  0.7500  0.6730
   60MOL   H26022798   5.440   1.485   3.797 -0.4621  3.4862 -0.2052
   60MOL   H26122799   5.574   1.426   4.015 -1.6028 -2.6697 -3.4651
   60MOL   H26222800   5.712   1.495   3.945 -0.0734  2.7898 -0.5198
   60MOL   H26322801   5.596   1.720   3.940 -1.1444 -1.0506 -1.1371
   60MOL   H26422802   5.455   1.643   4.012  0.0665 -1.3583 -0.7192
   60MOL   H26522803   5.732   1.666   4.139 -0.4223 -0.3319  2.2066
   60MOL   H26622804   5.600   1.595   4.229 -2.6634  0.3378 -0.4174
   60MOL   H26722805   5.603   1.765   4.182  0.9282 -1.2635  1.1298
   60MOL   C26822806   5.804   1.245   3.713  0.4455  0.5487  0.9202
   60MOL   C26922807   5.945   1.255   3.767  0.0302 -0.1488 -0.1924
   60MOL   C27022808   6.006   1.390   3.714  0.4365  0.2540 -0.6416
   60MOL   C27122809   6.145   1.427   3.781  0.5556 -0.4963 -0.2324
   60MOL   C27222810   6.179   1.579   3.762 -0.2633  0.6175  0.5476
   60MOL   C27322811   6.322   1.605   3.818  0.1011 -0.1785  0.6694
   60MOL   O27422812   6.033   1.148   3.729 -0.4465 -0.5777 -0.1843
   60MOL   H27522813   5.805   1.217   3.607  2.9070 -0.9075  1.2836
   60MOL   H27622814   5.745   1.170   3.765 -0.9626 -0.2607 -1.7654
   60MOL   H27722815   5.936   1.260   3.875 -3.3716 -0.6615 -0.4085
   60MOL   H27822816   6.024   1.381   3.607  0.4371  2.2376 -0.8405
   60MOL   H27922817   5.944   1.478   3.735 -0.0524 -0.4680  1.0372
   60MOL   H28022818   6.142   1.407   3.888 -0.1518 -0.6858 -0.2873
   60MOL   H28122819   6.231   1.371   3.743  1.3142  2.3115 -2.8992
   60MOL   H28222820   6.177   1.606   3.656 -1.4544  0.0723  0.4177
   60MOL   H28322821   6.107   1.637   3.820 -0.4154  2.3850 -1.3591
   60MOL   H28422822   6.341   1.712   3.829  1.9281 -0.3951 -0.2777
   60MOL   H28522823   6.339   1.546   3.908 -1.1059  0.3269  1.2508
   60MOL   H28622824   6.393   1.566   3.746 -2.1582 -0.3711 -1.5165
   60MOL   C28722825   6.008   1.024   3.800 -0.1347 -1.1704 -0.2992
   60MOL   C28822826   6.127   0.926   3.795  0.7987  0.0422  0.5181
   60MOL   C28922827   6.085   0.778   3.827 -0.2384 -0.3010 -0.0053
   60MOL   C29022828   5.997   0.714   3.709  0.3366  0.2410  0.0733
   60MOL   C29122829   5.978   0.557   3.724 -0.3826 -0.1824  0.4588
   60MOL   C29222830   5.899   0.506   3.605 -0.2584  0.5963 -0.0500
   60MOL   O29322831   6.215   0.951   3.902  0.4011  0.2958  0.0129
   60MOL   H29422832   5.930   0.988   3.733 -0.2766  0.1269 -0.8523
   60MOL   H29522833   5.962   1.033   3.899  0.0417  1.5452 -0.4195
   60MOL   H29622834   6.178   0.933   3.699 -0.3537  2.0476  0.0118
   60MOL   H29722835   6.179   0.725   3.838 -0.2996  0.2553  3.5648
   60MOL   H29822836   6.026   0.780   3.919  0.2122 -1.1442  0.3033
   60MOL   H29922837   5.912   0.782   3.696  0.5412  0.4773 -0.0428
   60MOL   H30022838   6.059   0.728   3.620  0.4093  1.1411  0.2611
   60MOL   H30122839   5.917   0.541   3.813 -0.1325 -0.8128  0.5173
   60MOL   H30222840   6.068   0.498   3.739 -0.4594 -0.6868 -1.0600
   60MOL   H30322841   5.900   0.398   3.594  0.4421  0.4628  1.2248
   60MOL   H30422842   5.796   0.543   3.597 -0.3081  0.4253 -0.1983
   60MOL   H30522843   5.946   0.542   3.514  1.1843 -0.2324  0.3666
   60MOL   C30622844   6.302   1.061   3.891 -0.3977  0.7158 -0.8376
   60MOL   C30722845   6.401   1.064   4.010  0.2332 -0.4784  0.2771
   60MOL   C30822846   6.455   1.200   4.029  0.2212 -0.6662  0.0252
   60MOL   C30922847   6.543   1.202   4.153  0.4419  0.6817 -0.0295
   60MOL   C31022848   6.601   1.334   4.182  0.4534 -0.4839 -0.1673
   60MOL   C31122849   6.670   1.367   4.328 -0.5291  0.3677  0.1352
   60MOL   O31222850   6.512   0.973   3.984 -0.1105 -0.3573  0.1964
   60MOL   H31322851   6.351   1.057   3.794 -0.3993 -0.5965 -0.7884
   60MOL   H31422852   6.236   1.148   3.891 -1.5729 -0.1518  0.6523
   60MOL   H31522853   6.342   1.041   4.099 -1.1035  0.1651 -0.4249
   60MOL   H31622854   6.371   1.266   4.051 -0.1196 -0.5675 -1.4977
   60MOL   H31722855   6.515   1.241   3.948  0.1015 -1.4334 -0.4591
   60MOL   H31822856   6.494   1.149   4.235  2.4842 -0.4414  0.4782
   60MOL   H31922857   6.619   1.127   4.134 -1.2471 -1.6649  2.1043
   60MOL   H32022858   6.515   1.401   4.176  0.9306  0.1256 -0.2547
   60MOL   H32122859   6.676   1.356   4.106 -1.2483  2.7760 -0.9864
   60MOL   H32222860   6.686   1.475   4.330 -0.1301  0.3006  2.4287
   60MOL   H32322861   6.612   1.343   4.417  0.2700 -0.8846  0.3291
   60MOL   H32422862   6.765   1.313   4.323 -1.1144 -0.8601  1.7533
   60MOL   C32522863   6.502   0.852   4.057  0.8492  0.2956 -0.3029
   60MOL   C32622864   6.622   0.756   4.025  0.0178 -0.1575  0.8623
   60MOL   C32722865   6.595   0.605   4.051 -0.1311 -0.6722 -0.7724
   60MOL   C32822866   6.511   0.524   3.948  0.1473 -0.3429 -0.3640
   60MOL   C32922867   6.497   0.377   3.981 -0.4797  0.2650 -0.2518
   60MOL   C33022868   6.456   0.288   3.871 -0.4470  0.7557  0.6404
   60MOL   O33122869   6.732   0.787   4.101  0.0740 -0.2259  0.0366
   60MOL   H33222870   6.407   0.806   4.031  0.4122  0.7094  0.5526
   60MOL   H33322871   6.495   0.872   4.164 -1.8969 -1.5125 -0.0925
   60MOL   H33422872   6.651   0.767   3.921 -2.5356  1.0372  0.2166
   60MOL   H33522873   6.694   0.560   4.050 -0.3662 -1.2994  1.1983
   60MOL   H33622874   6.556   0.581   4.150  0.9001 -2.6838 -0.8283
   60MOL   H33722875   6.414   0.572   3.933  0.7938  0.8564 -0.7770
   60MOL   H33822876   6.567   0.535   3.855  0.1986  1.4481 -0.1324
   60MOL   H33922877   6.598   0.346   4.006 -1.1198 -1.4739  0.2686
   60MOL   H34022878   6.441   0.349   4.071 -0.1562 -1.0834 -0.4592
   60MOL   H34122879   6.351   0.312   3.852  0.3433  2.6513 -1.6722
   60MOL   H34222880   6.516   0.304   3.781 -1.8207  0.4137 -0.3681
   60MOL   H34322881   6.475   0.186   3.903  0.8785  0.9093  0.3937
   60MOL   C34422882   6.814   0.889   4.052  0.1214 -0.9790  0.1844
   60MOL   C34522883   6.955   0.884   4.114 -0.2788 -0.1185 -0.1296
   60MOL   C34622884   6.955   0.885   4.274  0.8169 -0.0635  0.6307
   60MOL   C34722885   7.088   0.941   4.332  0.0601 -0.2622 -0.3584
   60MOL   C34822886   7.076   1.007   4.477 -0.6934 -0.6564  0.2988
   60MOL   C34922887   7.028   0.909   4.574 -0.0708 -0.3027 -0.5057
   60MOL   O35022888   7.044   0.786   4.059  0.0310 -0.4198 -0.1078
   60MOL   H35122889   6.755   0.981   4.060  0.5395 -0.4181 -2.7048
   60MOL   H35222890   6.825   0.872   3.946 -4.1000 -2.3592 -0.1173
   60MOL   H35322891   7.001   0.979   4.086  0.5625 -0.5420 -0.2010
   60MOL   H35422892   6.935   0.786   4.315 -0.1796 -0.1267  0.0070
   60MOL   H35522893   6.872   0.948   4.306  0.0944 -0.1041 -1.0954
   60MOL   H35622894   7.134   1.012   4.263 -1.2075 -1.3910 -2.4007
   60MOL   H35722895   7.144   0.848   4.342 -1.2770 -0.7644  3.4360
   60MOL   H35822896   7.020   1.101   4.486  0.6366  0.3343 -1.4661
   60MOL   H35922897   7.173   1.038   4.515 -0.2125 -1.7425 -0.0279
   60MOL   H36022898   6.920   0.901   4.567 -0.3016  0.8577  1.2889
   60MOL   H36122899   7.059   0.926   4.677  1.1929 -3.5571 -0.3102
   60MOL   H36222900   7.075   0.811   4.566  2.6913  0.8149  1.3094
   60MOL   C36322901   7.009   0.648   4.067  0.6826 -0.3916  0.7121
   60MOL   C36422902   7.135   0.572   4.049  0.4424 -0.5996  0.1079
   60MOL   C36522903   7.188   0.588   3.906  0.0546  0.7572  0.0833
   60MOL   C36622904   7.110   0.509   3.798  1.0034  0.3492  0.6456
   60MOL   C36722905   7.208   0.442   3.690  0.0437  0.2358 -0.3855
   60MOL   C36822906   7.129   0.346   3.604 -0.5259  0.6607  0.5188
   60MOL   O36922907   7.226   0.628   4.148  0.2398  0.6709 -0.1341
   60MOL   H37022908   6.940   0.611   3.991  3.3737 -2.9469 -0.5757
   60MOL   H37122909   6.968   0.622   4.164  0.0022  0.5129  0.6742
   60MOL   H37222910   7.123   0.467   4.074  0.6967 -0.4143  1.0174
   60MOL   H37322911   7.205   0.688   3.865  0.6314  0.6489  0.0569
   60MOL   H37422912   7.288   0.548   3.921  1.0925  3.0619 -0.4331
   60MOL   H37522913   7.062   0.430   3.857 -1.8483  0.4078 -1.5108
   60MOL   H37622914   7.028   0.570   3.761  0.3166 -1.6270 -1.1553
   60MOL   H37722915   7.245   0.531   3.639 -0.1748  0.5050 -0.0808
   60MOL   H37822916   7.297   0.403   3.740  0.9567  2.4600 -0.2381
   60MOL   H37922917   7.192   0.305   3.525 -0.1979  2.8200 -0.3741
   60MOL   H38022918   7.084   0.262   3.655  0.8850 -0.6653 -0.3726
   60MOL   H38122919   7.054   0.401   3.546 -1.7096 -0.6324  0.8148
   60MOL   H38222920   7.225   0.721   4.133 -1.5818  0.7764  0.6517
   61MOL     C122921   3.644   7.738   6.436  0.4046 -0.0854  0.2067
   61MOL     C222922   3.669   7.774   6.293  0.3407 -0.2251 -0.3326
   61MOL     C322923   3.782   7.684   6.243  0.1809 -0.8116 -0.0390
   61MOL     C422924   3.766   7.531   6.254 -0.2178  0.0624  0.4686
   61MOL     C522925   3.893   7.452   6.194 -0.2989  0.2183 -0.0775
   61MOL     C622926   4.006   7.449   6.288 -0.2968 -0.0904  0.3487
   61MOL     O722927   3.555   7.743   6.214  0.3878  0.2738 -0.0099
   61MOL     H822928   3.625   7.633   6.458  0.0739  0.2507  1.5857
   61MOL     H922929   3.562   0.007   6.484  0.3016  0.6287 -0.7695
   61MOL    H1022930   3.701   0.093   6.292  0.3540 -0.2311 -2.9168
   61MOL    H1122931   3.800   7.697   6.137 -0.3253 -0.3897 -0.0750
   61MOL    H1222932   3.865   7.723   6.302 -0.8659 -0.3669  1.1691
   61MOL    H1322933   3.738   7.486   6.350 -2.5667  1.4867  0.4997
   61MOL    H1422934   3.680   7.502   6.194  0.2221  1.3171 -0.8092
   61MOL    H1522935   3.858   7.352   6.166  1.5552 -0.3783 -0.3248
   61MOL    H1622936   3.913   7.490   6.094 -0.4072  2.4205  0.7209
   61MOL    H1722937   3.984   7.415   6.388 -0.2561 -0.2821  0.2918
   61MOL    H1822938   4.085   7.389   6.243  1.0229  1.9218 -0.1115
   61MOL    H1922939   4.055   7.547   6.294 -1.8091  0.8366 -1.5674
   61MOL    H2022940   3.727   7.764   6.502  0.4442 -1.2625  0.6195
   61MOL    C2122941   3.490   0.061   6.147 -0.4189 -0.1172  0.3248
   61MOL    C2222942   3.355   0.022   6.089 -0.3734 -0.3477  0.5781
   61MOL    C2322943   3.257   0.132   6.103 -0.3179 -0.4227 -0.2683
   61MOL    C2422944   3.112   0.102   6.066  0.5245  0.0795 -0.0291
   61MOL    C2522945   3.019   0.224   6.091 -0.2546  0.5252 -0.3211
   61MOL    C2622946   2.875   0.193   6.061  0.5987  0.3666 -0.0560
   61MOL    O2722947   3.385   7.765   5.954 -0.1578  0.3071 -0.6437
   61MOL    H2822948   3.470   0.138   6.221 -3.4001  0.3211 -0.8552
   61MOL    H2922949   3.560   0.099   6.073  0.0422 -1.5687 -0.0044
   61MOL    H3022950   3.319   7.731   6.157 -2.2677  0.3038  0.3580
   61MOL    H3122951   3.277   0.217   6.038 -3.2490  0.5897  0.0816
   61MOL    H3222952   3.267   0.179   6.200 -2.1660 -1.0101  0.2274
   61MOL    H3322953   3.069   0.029   6.134  1.7442  1.7690  2.6536
   61MOL    H3422954   3.097   0.063   5.966  0.5966  1.0252 -0.4208
   61MOL    H3522955   3.038   0.255   6.194  0.9742  1.4083 -0.8011
   61MOL    H3622956   3.050   0.313   6.036  0.3346  1.3161  1.2527
   61MOL    H3722957   2.831   0.129   6.138  1.6972 -0.0385  0.2388
   61MOL    H3822958   2.870   0.139   5.966  0.3881 -0.6621  0.5248
   61MOL    H3922959   2.809   0.279   6.050 -0.5894 -0.4188  0.8412
   61MOL    C4022960   3.314   7.650   5.912  0.2821 -0.0444 -0.4387
   61MOL    C4122961   3.322   7.617   5.765  0.1793  0.0396  0.0984
   61MOL    C4222962   3.198   7.648   5.687  0.4557  0.2555  0.2532
   61MOL    C4322963   3.213   7.610   5.534 -0.0519 -0.1072 -0.6419
   61MOL    C4422964   3.104   7.675   5.449 -0.1678  0.8046  0.3393
   61MOL    C4522965   3.097   7.637   5.301  0.7706  0.2599  0.0848
   61MOL    O4622966   3.337   7.477   5.752 -0.2413  0.3142 -0.1057
   61MOL    H4722967   3.217   7.653   5.963  0.1396 -1.7767 -0.5766
   61MOL    H4822968   3.357   7.563   5.962  0.9971 -0.0370 -1.0410
   61MOL    H4922969   3.401   7.671   5.713 -0.7468 -0.0568 -1.4426
   61MOL    H5022970   3.114   7.591   5.727  0.9539 -0.4541  0.2979
   61MOL    H5122971   3.165   7.751   5.694 -0.9114 -0.3040  2.7645
   61MOL    H5222972   3.217   7.502   5.522 -0.6163 -0.0410 -1.5127
   61MOL    H5322973   3.316   7.640   5.515  0.1394 -0.0572  0.4424
   61MOL    H5422974   3.011   7.634   5.489  1.0396 -1.7368  0.6822
   61MOL    H5522975   3.107   7.783   5.461  2.8675  0.6961  1.0508
   61MOL    H5622976   3.003   7.672   5.258 -0.7717 -2.4280  1.1475
   61MOL    H5722977   3.178   7.684   5.243  1.2110  0.2814  0.7158
   61MOL    H5822978   3.124   7.533   5.282 -0.9866 -0.6546  2.4022
   61MOL    C5922979   3.471   7.435   5.767  0.1701  0.1066 -0.3391
   61MOL    C6022980   3.479   7.280   5.759  0.0379 -0.1282  0.2306
   61MOL    C6122981   3.611   7.235   5.713  0.2362  0.0575 -0.0463
   61MOL    C6222982   3.722   7.286   5.814  0.0654  0.2858 -0.8711
   61MOL    C6322983   3.868   7.249   5.787 -0.7430 -0.4171  0.2333
   61MOL    C6422984   3.924   7.268   5.646 -0.3027 -0.3801 -0.1367
   61MOL    O6522985   3.455   7.222   5.886  0.1619 -0.1105  0.2001
   61MOL    H6622986   3.507   7.474   5.862 -1.4830  1.5143 -0.2571
   61MOL    H6722987   3.542   7.474   5.694  0.1353 -0.9268 -0.9422
   61MOL    H6822988   3.405   7.260   5.681  0.8224 -1.2855 -0.2294
   61MOL    H6922989   3.630   7.283   5.617 -0.4951  0.0614 -0.1945
   61MOL    H7022990   3.617   7.127   5.714 -0.4007  0.0153 -0.7815
   61MOL    H7122991   3.695   7.262   5.917  0.7946  2.6471 -0.0996
   61MOL    H7222992   3.721   7.395   5.816  1.7334  0.3112 -1.1675
   61MOL    H7322993   3.893   7.146   5.812 -2.7140 -1.1335 -0.6519
   61MOL    H7422994   3.932   7.311   5.850 -0.2627 -2.6271  1.9767
   61MOL    H7522995   3.900   7.187   5.578 -3.4367 -1.2019  1.8704
   61MOL    H7622996   3.901   7.366   5.604  1.8480  0.5684  0.7954
   61MOL    H7722997   4.033   7.264   5.655 -0.3872 -0.3298  0.9940
   61MOL    C7822998   3.312   7.224   5.927  0.4262  0.4058 -0.5916
   61MOL    C7922999   3.287   7.156   6.065  0.4394  0.1064  0.0582
   61MOL    C8023000   3.139   7.091   6.077 -0.3222  0.0186  0.1710
   61MOL    C8123001   3.134   6.993   6.205  0.3086  0.0094 -0.3765
   61MOL    C8223002   2.987   6.936   6.234 -0.3018 -0.6910 -0.0508
   61MOL    C8323003   2.893   7.043   6.291 -0.0775 -0.4822  1.1745
   61MOL    O8423004   3.287   7.247   6.174 -0.2016  0.1570 -0.0000
   61MOL    H8523005   3.263   7.176   5.842  0.5193 -0.0760 -0.3743
   61MOL    H8623006   3.271   7.323   5.944 -1.9075 -0.7691  1.0971
   61MOL    H8723007   3.359   7.075   6.075  0.3423  0.2395  1.8360
   61MOL    H8823008   3.066   7.172   6.084 -1.6785 -1.2341  0.6207
   61MOL    H8923009   3.122   7.033   5.986 -3.7207  1.1766  0.0213
   61MOL    H9023010   3.171   7.048   6.291  0.5524  0.1784 -0.5883
   61MOL    H9123011   3.201   6.909   6.188  0.2321 -0.1397  0.0653
   61MOL    H9223012   2.935   6.894   6.147 -0.5153 -0.8118  0.1355
   61MOL    H9323013   2.984   6.847   6.297 -0.9840  0.1178  1.0746
   61MOL    H9423014   2.884   7.134   6.232 -0.5760 -0.4238  1.3339
   61MOL    H9523015   2.930   7.073   6.390 -2.4381  0.9642  1.6809
   61MOL    H9623016   2.789   7.012   6.304 -0.4769  0.6722  0.8522
   61MOL    C9723017   3.409   7.313   6.200 -0.1840 -0.7427 -0.2430
   61MOL    C9823018   3.474   7.244   6.323  0.2361  0.0589  0.3162
   61MOL    C9923019   3.382   7.194   6.440 -0.1571 -0.0882  0.0715
   61MOL   C10023020   3.461   7.219   6.572  0.1906  0.0263  0.2917
   61MOL   C10123021   3.400   7.146   6.695 -0.1581  0.0567  0.3873
   61MOL   C10223022   3.439   7.210   6.833  0.3274  0.5916 -0.4796
   61MOL   O10323023   3.540   7.131   6.272 -0.3191  0.2642 -0.4384
   61MOL   H10423024   3.388   7.413   6.239  1.9580 -0.4565  0.2792
   61MOL   H10523025   3.471   7.324   6.111 -1.4801  0.8181 -0.9699
   61MOL   H10623026   3.544   7.319   6.361 -2.4335  2.7714  0.0602
   61MOL   H10723027   3.362   7.088   6.428  0.7735 -0.3582  0.8724
   61MOL   H10823028   3.288   7.249   6.447 -0.0427 -0.1587  2.6819
   61MOL   H10923029   3.475   7.327   6.584  2.2697 -0.2805  0.7199
   61MOL   H11023030   3.558   7.171   6.561 -0.7479 -2.1609  1.2591
   61MOL   H11123031   3.431   7.043   6.684  0.5316  0.5033 -2.1563
   61MOL   H11223032   3.292   7.139   6.678 -0.1653 -0.9763  0.8655
   61MOL   H11323033   3.391   7.150   6.911  3.0451 -0.6337  0.2910
   61MOL   H11423034   3.544   7.221   6.858 -0.0731  0.5393  1.2537
   61MOL   H11523035   3.401   7.312   6.839 -1.2742 -0.0449  0.6348
   61MOL   C11623036   3.666   7.156   6.223  0.1052 -0.2414  0.1646
   61MOL   C11723037   3.710   7.027   6.152 -0.2510  0.6509 -0.4399
   61MOL   C11823038   3.611   6.957   6.061 -0.5025 -0.4538  0.2508
   61MOL   C11923039   3.670   6.840   5.986 -0.6357 -0.4523  0.0510
   61MOL   C12023040   3.574   6.760   5.887  0.1739 -0.4888 -0.4167
   61MOL   C12123041   3.489   6.847   5.802  0.0098  0.3035 -0.1595
   61MOL   O12223042   3.770   6.925   6.238  0.0102 -0.1618  0.4745
   61MOL   H12323043   3.673   7.244   6.160  4.3816 -1.5549 -1.4063
   61MOL   H12423044   3.736   7.169   6.305  0.3229  0.9120 -0.1891
   61MOL   H12523045   3.796   7.055   6.092 -0.5600 -0.0759 -1.2345
   61MOL   H12623046   3.526   6.907   6.109 -0.6146 -2.1833 -1.6918
   61MOL   H12723047   3.558   7.018   5.988  1.6569  0.4674 -0.5645
   61MOL   H12823048   3.699   6.775   6.069  0.8957  0.2722  0.1124
   61MOL   H12923049   3.761   6.870   5.932 -0.1411  0.7420  1.4897
   61MOL   H13023050   3.640   6.699   5.827  2.7622  1.4459  0.3846
   61MOL   H13123051   3.513   6.693   5.949  0.3239  0.1957  0.4851
   61MOL   H13223052   3.547   6.928   5.759  0.2136  1.1227  1.6546
   61MOL   H13323053   3.443   6.799   5.715 -0.4235 -1.0912  0.8135
   61MOL   H13423054   3.413   6.899   5.860  0.7073  1.5956 -0.3863
   61MOL   C13523055   3.706   6.905   6.357 -0.3077 -0.4607 -0.4976
   61MOL   C13623056   3.771   6.789   6.422 -0.4170 -0.1382  0.3456
   61MOL   C13723057   3.704   6.733   6.543 -0.4692  0.1709 -0.9187
   61MOL   C13823058   3.673   6.832   6.662 -0.1904 -0.7294  0.9513
   61MOL   C13923059   3.608   6.757   6.776 -0.1093  0.2989 -0.0515
   61MOL   C14023060   3.575   6.836   6.897  0.2200  0.6738  0.7077
   61MOL   O14123061   3.900   6.816   6.475 -0.1579  0.2062  0.4397
   61MOL   H14223062   3.724   6.984   6.430  1.3804 -1.3280  0.0522
   61MOL   H14323063   3.604   6.872   6.338  0.1902 -2.1452 -0.3164
   61MOL   H14423064   3.776   6.707   6.350 -1.9971  1.6603 -1.9060
   61MOL   H14523065   3.620   6.668   6.518 -0.6705  0.4434 -0.9550
   61MOL   H14623066   3.772   6.657   6.581 -1.1837  1.1452  2.4331
   61MOL   H14723067   3.611   6.915   6.629  1.8428  0.2978 -0.4273
   61MOL   H14823068   3.757   6.887   6.704 -1.7465  2.5241 -0.0115
   61MOL   H14923069   3.665   6.665   6.793 -0.1214  0.2100 -0.4821
   61MOL   H15023070   3.514   6.719   6.734 -0.5273  0.4988  0.7010
   61MOL   H15123071   3.667   6.885   6.930  0.3026  0.5015  0.7329
   61MOL   H15223072   3.501   6.913   6.877 -1.4194 -1.1448 -0.4752
   61MOL   H15323073   3.534   6.777   6.979  1.6247  0.2245  1.1069
   61MOL   C15423074   4.008   6.822   6.381 -0.0526  0.3779 -0.7130
   61MOL   C15523075   4.138   6.846   6.469  0.0862 -0.7903  0.8614
   61MOL   C15623076   4.264   6.805   6.383  0.0482  0.4389  0.4618
   61MOL   C15723077   4.397   6.836   6.455  0.4210  0.8249  0.7684
   61MOL   C15823078   4.430   6.788   6.602  0.3999 -0.3573 -0.2452
   61MOL   C15923079   4.456   6.637   6.636  0.0705 -0.1618 -0.8535
   61MOL   O16023080   4.147   6.985   6.497  0.1450 -0.1457 -0.0430
   61MOL   H16123081   3.985   6.896   6.304 -1.7354  2.2464  1.4914
   61MOL   H16223082   4.009   6.722   6.339  0.7271 -0.8587  2.1013
   61MOL   H16323083   4.139   6.781   6.556 -0.0893  2.4614  3.3772
   61MOL   H16423084   4.272   6.849   6.284 -3.8112  1.9780  0.7426
   61MOL   H16523085   4.266   6.699   6.359  0.6742  0.1972  1.5434
   61MOL   H16623086   4.401   6.945   6.451  0.9696  0.8046  0.8025
   61MOL   H16723087   4.478   6.799   6.392 -0.3015  1.1054 -0.3299
   61MOL   H16823088   4.510   6.849   6.642 -1.0792  0.4912  1.4820
   61MOL   H16923089   4.341   6.824   6.654 -0.1063 -0.7603 -0.8211
   61MOL   H17023090   4.371   6.574   6.609 -0.1373  0.5004 -1.7568
   61MOL   H17123091   4.482   6.620   6.741  2.3519  1.1596 -1.1725
   61MOL   H17223092   4.539   6.593   6.581 -0.6592 -2.7096  0.0219
   61MOL   C17323093   4.024   7.045   6.544  0.2563 -0.4030 -0.1953
   61MOL   C17423094   4.057   7.178   6.609 -0.0508  0.5527  0.6857
   61MOL   C17523095   3.936   7.270   6.610  0.2698 -0.2372 -0.4613
   61MOL   C17623096   3.959   7.409   6.666 -0.0480 -0.3568 -0.8200
   61MOL   C17723097   3.832   7.492   6.687 -0.0607 -0.1465  0.7710
   61MOL   C17823098   3.756   7.443   6.807 -1.3489  0.3886  0.1919
   61MOL   O17923099   4.078   7.147   6.740  0.1022  0.4150 -0.6947
   61MOL   H18023100   3.966   6.988   6.617  0.1841  0.9613  0.8236
   61MOL   H18123101   3.957   7.065   6.460 -1.1894  1.4923  1.3494
   61MOL   H18223102   4.140   7.224   6.556 -0.7884  1.7135  0.5403
   61MOL   H18323103   3.904   7.276   6.506 -0.6155 -2.1283 -0.3191
   61MOL   H18423104   3.855   7.223   6.665 -0.7071 -0.6913 -2.2452
   61MOL   H18523105   4.016   7.408   6.759 -0.9879 -1.1844 -0.2552
   61MOL   H18623106   4.016   7.470   6.595 -1.3751  0.0362 -1.5562
   61MOL   H18723107   3.854   7.599   6.696 -0.0747 -0.2476  2.0739
   61MOL   H18823108   3.773   7.477   6.596 -0.3502 -1.0548  1.1054
   61MOL   H18923109   3.815   7.429   6.897 -0.5773 -2.2413 -0.6815
   61MOL   H19023110   3.710   7.348   6.780 -0.1008  0.0370 -0.7512
   61MOL   H19123111   3.665   7.500   6.830 -0.2203  1.8617  1.1072
   61MOL   C19223112   4.215   7.100   6.772 -0.8667  0.6572  0.3800
   61MOL   C19323113   4.214   7.073   6.922 -0.4012  0.1371 -0.3646
   61MOL   C19423114   4.352   7.115   6.987  0.0857 -0.2362  0.3414
   61MOL   C19523115   4.373   7.070   7.128 -0.0669  1.0212  0.4779
   61MOL   C19623116   4.509   7.096   7.195  0.0535  0.3425 -0.0849
   61MOL   C19723117   4.519   7.234   7.255  0.0620  0.4449  0.3337
   61MOL   O19823118   4.216   6.932   6.941  0.0998 -0.3464  0.0792
   61MOL   H19923119   4.256   7.020   6.711 -1.8787 -0.9219  1.7300
   61MOL   H20023120   4.293   7.174   6.752  0.3610 -1.0580 -1.2486
   61MOL   H20123121   4.132   7.109   6.983 -0.5619 -1.6974  0.5273
   61MOL   H20223122   4.439   7.081   6.932  0.3482 -0.6310  0.9928
   61MOL   H20323123   4.361   7.223   6.994 -1.5303 -0.0600 -0.1042
   61MOL   H20423124   4.355   6.962   7.121 -0.2966  1.2038 -2.8425
   61MOL   H20523125   4.291   7.095   7.194  1.2316  0.8989  2.1802
   61MOL   H20623126   4.528   7.020   7.270  1.1939  0.4213 -0.2796
   61MOL   H20723127   4.591   7.066   7.128 -1.2542  0.3358 -1.7184
   61MOL   H20823128   4.617   7.254   7.298  0.0993  2.2905 -0.5727
   61MOL   H20923129   4.505   7.307   7.175  2.5211 -0.9403 -1.4322
   61MOL   H21023130   4.442   7.252   7.331 -1.6633 -0.8636 -1.0734
   61MOL   C21123131   4.104   6.868   6.894  0.1737 -0.8750  0.3456
   61MOL   C21223132   4.110   6.719   6.952 -0.5679 -0.0316  0.2430
   61MOL   C21323133   4.047   6.616   6.849  0.0588  0.0691 -0.1561
   61MOL   C21423134   4.108   6.472   6.863 -0.8644 -0.2308  0.5368
   61MOL   C21523135   4.082   6.373   6.749  0.2667 -0.0953 -0.2002
   61MOL   C21623136   3.941   6.344   6.720 -0.2908 -0.5049  0.1774
   61MOL   O21723137   4.040   6.714   7.074  0.6180 -0.2802 -0.6089
   61MOL   H21823138   4.110   6.870   6.785  0.6084 -3.2234  0.3003
   61MOL   H21923139   4.010   6.907   6.933 -0.0131  0.4078 -1.3249
   61MOL   H22023140   4.215   6.708   6.980 -0.3855 -0.3247 -0.5378
   61MOL   H22123141   3.939   6.626   6.863  0.2124 -1.2998  2.1855
   61MOL   H22223142   4.071   6.652   6.749  0.2884  0.0020 -0.1254
   61MOL   H22323143   4.216   6.487   6.859 -0.7687 -1.2105 -1.0375
   61MOL   H22423144   4.090   6.420   6.957  1.3088 -0.7455  0.6884
   61MOL   H22523145   4.126   6.405   6.654  0.9555 -3.2958 -1.0364
   61MOL   H22623146   4.135   6.281   6.775  1.7752  0.9093  0.3093
   61MOL   H22723147   3.874   6.320   6.802 -0.1701  0.5119  0.5777
   61MOL   H22823148   3.936   6.274   6.637  2.1706  2.1621 -2.3500
   61MOL   H22923149   3.894   6.436   6.685  0.5535 -0.3258 -0.5065
   61MOL   C23023150   4.097   6.786   7.186 -0.2368  0.4035  0.5298
   61MOL   C23123151   4.048   6.732   7.324  0.1295  0.0354 -0.1102
   61MOL   C23223152   4.019   6.846   7.423  0.3279  0.2508  0.4739
   61MOL   C23323153   3.947   6.809   7.555 -0.4364  0.0054  0.0346
   61MOL   C23423154   3.923   6.928   7.643 -0.2417 -0.0315 -0.4828
   61MOL   C23523155   3.876   6.879   7.780 -0.1876 -0.3932 -0.0688
   61MOL   O23623156   4.149   6.665   7.388 -0.5321 -0.2360 -0.7919
   61MOL   H23723157   4.205   6.791   7.177 -0.5000  2.3352 -2.1543
   61MOL   H23823158   4.068   6.889   7.168  0.4183  0.5664  0.4097
   61MOL   H23923159   3.966   6.662   7.309  0.0605 -0.4919  2.5255
   61MOL   H24023160   3.964   6.923   7.369  0.0046  1.6663  2.7732
   61MOL   H24123161   4.116   6.892   7.439  0.6340  0.7301 -2.4574
   61MOL   H24223162   4.011   6.733   7.601  0.0198 -0.7500 -1.8228
   61MOL   H24323163   3.854   6.758   7.533 -0.4346 -0.7792  1.7322
   61MOL   H24423164   4.009   6.995   7.649  0.0286 -0.4062 -0.1603
   61MOL   H24523165   3.838   6.984   7.604  0.2855 -0.1319 -1.8016
   61MOL   H24623166   3.964   6.839   0.044  1.2035 -0.9034 -2.8561
   61MOL   H24723167   3.794   6.808   7.764 -0.4705  0.2126 -1.4000
   61MOL   H24823168   3.837   6.958   0.058  0.8420  0.7877 -0.8787
   61MOL   C24923169   4.187   6.545   7.315 -0.1834 -0.1494  0.6649
   61MOL   C25023170   4.198   6.412   7.391 -0.2825 -0.4516  0.8284
   61MOL   C25123171   4.290   6.319   7.306  0.2342 -0.4590 -0.8122
   61MOL   C25223172   4.323   6.185   7.379 -0.1075 -0.9022  0.4048
   61MOL   C25323173   4.404   6.087   7.296 -0.1155 -0.0208 -0.3537
   61MOL   C25423174   4.552   6.122   7.309  0.3563 -0.0322  0.6549
   61MOL   O25523175   4.074   6.352   7.417  0.2762 -0.0039  0.0267
   61MOL   H25623176   4.131   6.524   7.224  1.4214 -2.5793  0.1770
   61MOL   H25723177   4.290   6.568   7.288  0.3981 -2.1346  1.1131
   61MOL   H25823178   4.251   6.434   7.483  1.4362 -2.3643  0.3312
   61MOL   H25923179   4.249   6.299   7.207 -0.6291 -0.8554 -0.3801
   61MOL   H26023180   4.384   6.370   7.284  0.0357  0.0484 -0.4897
   61MOL   H26123181   4.378   6.209   7.470  0.8469  1.7393 -0.8139
   61MOL   H26223182   4.229   6.139   7.411  0.4074 -1.9849  0.3722
   61MOL   H26323183   4.379   5.983   7.315 -0.7811 -0.1348 -1.8192
   61MOL   H26423184   4.383   6.110   7.192  0.4173  1.7447 -0.1033
   61MOL   H26523185   4.599   6.078   7.397  1.5097 -1.5606 -0.6930
   61MOL   H26623186   4.567   6.229   7.319 -1.2159  0.2496  0.1288
   61MOL   H26723187   4.602   6.090   7.218 -3.2822 -0.4022 -1.3177
   61MOL   C26823188   3.997   6.409   7.520 -0.2684 -0.3534 -0.1298
   61MOL   C26923189   3.953   6.305   7.622 -0.0467  0.1634 -0.6376
   61MOL   C27023190   3.841   6.347   7.714 -0.1327  0.5012 -0.5621
   61MOL   C27123191   3.757   6.235   0.003  0.3637 -0.2146  0.2620
   61MOL   C27223192   3.704   6.290   0.133  0.4316  0.1727 -0.1718
   61MOL   C27323193   3.602   6.183   0.190 -1.3234 -0.0502  0.1803
   61MOL   O27423194   4.043   6.258   7.723  0.2337 -0.3032  0.4899
   61MOL   H27523195   3.913   6.459   7.471  1.4697  2.5032 -0.3395
   61MOL   H27623196   4.046   6.493   7.569 -0.8992 -0.6110  0.9428
   61MOL   H27723197   3.917   6.218   7.567 -0.1021 -1.0409  1.2614
   61MOL   H27823198   3.884   6.408   0.007 -1.1845  0.3920  0.1156
   61MOL   H27923199   3.761   6.406   7.669 -0.6222 -1.0359 -1.7594
   61MOL   H28023200   3.674   6.203   7.725 -0.8294  2.1005  0.6143
   61MOL   H28123201   3.807   6.139   0.011  0.6433 -0.3333 -2.2407
   61MOL   H28223202   3.791   6.300   0.198  1.0838 -1.7998 -0.6890
   61MOL   H28323203   3.658   6.388   0.134  1.9911  0.9254 -1.0220
   61MOL   H28423204   3.576   6.209   0.293  0.0734  0.3893  0.4274
   61MOL   H28523205   3.512   6.183   0.129 -0.7241  0.5524 -0.7145
   61MOL   H28623206   3.658   6.090   0.185  0.0649  0.6985  1.2509
   61MOL   C28723207   4.129   6.158   7.691 -0.2351  0.7389  0.2429
   61MOL   C28823208   4.220   6.117   0.026  0.0840 -0.7389  0.0782
   61MOL   C28923209   4.356   6.060   7.754 -0.5814  0.2245  0.3031
   61MOL   C29023210   4.446   5.998   0.070 -0.1594 -0.0078  1.4673
   61MOL   C29123211   4.511   6.098   0.160  0.3105 -0.6613 -0.1302
   61MOL   C29223212   4.603   6.028   0.266  0.4062 -0.3402 -0.4223
   61MOL   O29323213   4.165   6.010   0.101  0.2546 -0.6496  0.0794
   61MOL   H29423214   4.191   6.199   7.612 -0.4409  1.5784  0.5107
   61MOL   H29523215   4.075   6.073   7.649 -0.0133  1.4708 -1.5318
   61MOL   H29623216   4.239   6.197   0.098 -2.6815  0.3385 -0.3409
   61MOL   H29723217   4.329   5.987   7.678  0.5717 -0.6692  0.7283
   61MOL   H29823218   4.407   6.141   7.700 -1.6135 -0.2954 -1.4649
   61MOL   H29923219   4.400   5.922   0.133 -0.3371  0.3735  1.7984
   61MOL   H30023220   4.520   5.936   0.018 -1.0306 -0.3071  0.5792
   61MOL   H30123221   4.440   6.166   0.206 -0.1639 -1.3760  0.1927
   61MOL   H30223222   4.571   6.169   0.103  0.6395 -2.2448 -1.8275
   61MOL   H30323223   4.679   5.970   0.213  0.2632 -0.4734 -0.4799
   61MOL   H30423224   4.655   6.112   0.312  1.0809 -0.2505 -1.3124
   61MOL   H30523225   4.546   5.965   0.334 -1.3578  1.4213 -0.2234
   61MOL   C30623226   4.053   6.047   0.182  0.0403 -1.1065 -0.3809
   61MOL   C30723227   4.083   6.028   0.333 -0.0987 -0.0970  0.3885
   61MOL   C30823228   4.086   5.881   0.366 -0.6335 -0.1754 -0.2839
   61MOL   C30923229   4.154   5.864   0.501 -0.6483  0.1351  0.5711
   61MOL   C31023230   4.161   5.724   0.546 -0.1723 -0.1260 -0.0442
   61MOL   C31123231   4.252   5.695   0.666 -0.3500  0.3372 -0.2467
   61MOL   O31223232   3.979   6.092   0.402  0.0281 -0.2177 -0.4639
   61MOL   H31323233   4.030   6.152   0.161  1.5364 -0.7248 -0.1254
   61MOL   H31423234   3.964   5.998   0.143 -0.0637 -2.0268  0.9534
   61MOL   H31523235   4.183   6.068   0.347 -0.2095  0.2542  0.1736
   61MOL   H31623236   4.134   5.820   0.290 -2.8997  0.6418 -2.3990
   61MOL   H31723237   3.990   5.831   0.380  0.7221 -2.5484  0.9962
   61MOL   H31823238   4.255   5.905   0.503 -1.1386  1.3656  1.0286
   61MOL   H31923239   4.098   5.928   0.569  1.0096  0.2324  1.8875
   61MOL   H32023240   4.206   5.661   0.469  3.4666  2.1060  0.1442
   61MOL   H32123241   4.065   5.675   0.564  1.3143 -2.0851  3.0165
   61MOL   H32223242   4.191   5.717   0.754 -0.2280 -0.5619  0.0700
   61MOL   H32323243   4.284   5.591   0.668 -0.3549  0.3260 -0.7241
   61MOL   H32423244   4.343   5.756   0.671  1.4452 -1.9595 -3.2273
   61MOL   C32523245   4.013   6.227   0.436 -0.1603  0.6223 -0.4748
   61MOL   C32623246   3.915   6.277   0.547  0.1989 -0.0024  0.2898
   61MOL   C32723247   3.957   6.417   0.598  0.6805  0.4481 -0.3434
   61MOL   C32823248   3.853   6.501   0.662 -0.2305 -1.0557  0.4166
   61MOL   C32923249   3.907   6.632   0.732 -0.1437  0.3024 -0.0577
   61MOL   C33023250   3.789   6.714   0.790 -0.0016 -0.6044  0.8280
   61MOL   O33123251   3.913   6.200   0.671  0.6093  0.3064 -0.2956
   61MOL   H33223252   4.030   6.294   0.352  4.3689 -0.8770 -0.9004
   61MOL   H33323253   4.114   6.227   0.476 -0.0253 -0.1774 -0.8032
   61MOL   H33423254   3.817   6.284   0.500  0.0533  2.4480  0.8901
   61MOL   H33523255   4.040   6.403   0.667 -0.1606  0.2728  0.6422
   61MOL   H33623256   4.007   6.466   0.514 -1.3380  0.8720 -1.3099
   61MOL   H33723257   3.775   6.515   0.586  2.0419 -0.2703 -1.8486
   61MOL   H33823258   3.807   6.441   0.740 -0.6341  0.6255  1.4891
   61MOL   H33923259   3.981   6.599   0.805 -0.5432 -0.9274 -0.2042
   61MOL   H34023260   3.957   6.688   0.653 -0.8591  0.3182 -0.4975
   61MOL   H34123261   3.739   6.752   0.701  0.9166  1.6963  1.2477
   61MOL   H34223262   3.724   6.641   0.838  0.2478 -0.7775  0.9000
   61MOL   H34323263   3.813   6.798   0.856  1.5381 -2.1010  2.2113
   61MOL   C34423264   3.842   6.077   0.675  0.4882  0.0926  0.8925
   61MOL   C34523265   3.848   6.034   0.824  0.2891  0.5626  0.1792
   61MOL   C34623266   3.758   5.919   0.865 -0.3259 -0.0997 -0.4986
   61MOL   C34723267   3.609   5.934   0.877  0.0730 -0.4650  0.5693
   61MOL   C34823268   3.546   5.841   0.987 -0.4003  0.3340  0.3131
   61MOL   C34923269   3.531   5.696   0.944  0.2840 -0.8245  0.7545
   61MOL   O35023270   3.979   5.983   0.849  0.0884  0.0352  0.1380
   61MOL   H35123271   3.893   6.002   0.614  0.4508  0.4448  0.4225
   61MOL   H35223272   3.735   6.088   0.659  0.4031 -1.3204  0.4655
   61MOL   H35323273   3.825   6.119   0.887 -0.7730  0.4604 -0.0552
   61MOL   H35423274   3.789   5.875   0.960  0.1314 -1.7371 -1.3868
   61MOL   H35523275   3.783   5.834   0.802 -0.2570  0.7018 -1.5593
   61MOL   H35623276   3.559   5.941   0.780 -1.0034  0.0548  1.1583
   61MOL   H35723277   3.581   6.036   0.903 -0.0424  0.4535 -2.8787
   61MOL   H35823278   3.448   5.885   1.004 -1.4125 -1.8984  0.4028
   61MOL   H35923279   3.610   5.841   1.075 -1.1754  0.8125  0.8724
   61MOL   H36023280   3.462   5.676   0.862  0.3724 -0.7408  0.6588
   61MOL   H36123281   3.514   5.626   1.025  0.2989 -1.4192  0.2542
   61MOL   H36223282   3.632   5.665   0.914  0.6178  0.5534  0.4189
   61MOL   C36323283   4.073   6.068   0.906 -0.2830  0.5746 -0.0609
   61MOL   C36423284   4.200   5.991   0.930  0.0075  0.0872  0.3063
   61MOL   C36523285   4.182   5.863   1.008  0.1602 -0.9495  0.0952
   61MOL   C36623286   4.307   5.792   1.066  0.3319 -0.0255 -0.6322
   61MOL   C36723287   4.276   5.689   1.170 -0.3019 -0.8397  0.4544
   61MOL   C36823288   4.398   5.621   1.224  0.4892 -0.6019 -0.4570
   61MOL   O36923289   4.254   5.959   0.802  0.3729 -0.2544  0.2833
   61MOL   H37023290   4.040   6.096   1.007 -1.5048 -0.0321 -0.2828
   61MOL   H37123291   4.088   6.155   0.842  0.2847 -1.1084 -2.2712
   61MOL   H37223292   4.270   6.063   0.973  1.8045 -2.7056  2.2448
   61MOL   H37323293   4.120   5.903   1.089  0.3006  0.9694 -0.7130
   61MOL   H37423294   4.122   5.791   0.952  0.1542 -0.9469  0.0988
   61MOL   H37523295   4.349   5.752   0.974  0.3403  2.1964 -1.6267
   61MOL   H37623296   4.388   5.857   1.100 -0.0630  1.3209 -2.2117
   61MOL   H37723297   4.215   5.724   1.254  0.7890  2.3365 -0.0063
   61MOL   H37823298   4.220   5.619   1.108 -0.1746 -1.9299  1.5418
   61MOL   H37923299   4.375   5.536   1.288  0.1173  1.9451  2.9632
   61MOL   H38023300   4.466   5.590   1.145 -0.1169 -1.0704 -0.7927
   61MOL   H38123301   4.453   5.699   1.277 -0.2511  0.9582 -1.9459
   61MOL   H38223302   4.176   5.926   0.760  0.4208  0.5814 -0.4554
   62MOL     C123303   2.818   1.406   3.798  0.6406 -0.1133  0.2016
   62MOL     C223304   2.685   1.327   3.755  0.0683 -0.3664 -0.0399
   62MOL     C323305   2.566   1.395   3.826 -0.2449  0.5220  0.0432
   62MOL     C423306   2.424   1.331   3.800  0.0142 -1.0822  0.4827
   62MOL     C523307   2.333   1.371   3.915 -0.2819 -0.2841 -0.0779
   62MOL     C623308   2.183   1.308   3.917 -0.7411 -0.0470 -0.4681
   62MOL     O723309   2.667   1.348   3.615  0.2987  0.0936 -0.3948
   62MOL     H823310   2.836   1.392   3.904  3.3304 -0.6976 -0.2890
   62MOL     H923311   2.796   1.513   3.800  0.5826 -0.1331  0.6997
   62MOL    H1023312   2.684   1.221   3.779  3.1652 -0.4478  0.0246
   62MOL    H1123313   2.589   1.389   3.933  2.1558  0.6505 -0.4314
   62MOL    H1223314   2.565   1.502   3.803  0.0212  0.2579 -1.2144
   62MOL    H1323315   2.393   1.360   3.699  4.9951  1.2298 -0.5593
   62MOL    H1423316   2.437   1.223   3.792  0.8459 -0.8172 -2.1716
   62MOL    H1523317   2.375   1.358   4.015  0.4610  2.2034 -0.0276
   62MOL    H1623318   2.319   1.479   3.902 -0.2262 -0.3360 -0.5530
   62MOL    H1723319   2.144   1.345   4.012 -0.5031  0.5351 -0.5947
   62MOL    H1823320   2.134   1.351   3.830  0.5902 -1.0539 -1.7338
   62MOL    H1923321   2.175   1.199   3.917 -0.6780 -0.0925  1.7211
   62MOL    H2023322   2.910   1.379   3.746  0.5823 -1.1040  0.5980
   62MOL    C2123323   2.741   1.264   3.534 -0.0898 -0.2674  0.2027
   62MOL    C2223324   2.735   1.307   3.378  0.3506  0.0681 -0.5107
   62MOL    C2323325   2.841   1.409   3.340 -0.2358 -0.4658 -0.6999
   62MOL    C2423326   2.805   1.450   3.191  0.3861 -0.5292  0.2684
   62MOL    C2523327   2.890   1.571   3.136  0.3353 -0.4680  1.1983
   62MOL    C2623328   2.880   1.589   2.988  0.0218  0.4080  0.0720
   62MOL    O2723329   2.768   1.195   3.297 -0.4458  0.4965 -0.1807
   62MOL    H2823330   2.844   1.264   3.569  0.5880  2.2235 -1.6782
   62MOL    H2923331   2.710   1.159   3.534  0.2045 -0.3524  1.3925
   62MOL    H3023332   2.634   1.337   3.349 -0.6695 -2.5098  0.2314
   62MOL    H3123333   2.941   1.368   3.353  0.1675  0.8008  0.2676
   62MOL    H3223334   2.832   1.485   3.418 -0.3286 -2.2722  1.0887
   62MOL    H3323335   2.700   1.476   3.175 -0.0391 -2.3326  0.0744
   62MOL    H3423336   2.825   1.370   3.120 -1.2651 -0.2318 -0.5565
   62MOL    H3523337   2.855   1.656   3.194 -0.7417 -1.0189  1.3738
   62MOL    H3623338   2.995   1.558   3.162  0.7789  2.5276  1.1415
   62MOL    H3723339   2.776   1.605   2.959 -1.4980 -1.1259  4.3235
   62MOL    H3823340   2.917   1.499   2.938 -1.1432 -1.1685  1.9640
   62MOL    H3923341   2.939   1.672   2.950  1.2937 -0.5618 -0.1020
   62MOL    C4023342   2.660   1.100   3.269 -0.0722 -0.2493  0.1445
   62MOL    C4123343   2.710   0.964   3.214  0.2300  0.6807 -1.1792
   62MOL    C4223344   2.599   0.862   3.163 -0.1095  0.3995  0.8263
   62MOL    C4323345   2.667   0.751   3.068  0.7972  0.6012 -0.6602
   62MOL    C4423346   2.556   0.654   3.007 -0.7542  0.5026  0.0961
   62MOL    C4523347   2.597   0.572   2.884  0.0786  0.5544 -0.3830
   62MOL    O4623348   2.787   0.890   3.318  0.6151  0.0619 -0.1832
   62MOL    H4723349   2.584   1.139   3.202  1.7771  0.6426 -1.4597
   62MOL    H4823350   2.601   1.072   3.356 -1.9603 -0.1743 -1.0817
   62MOL    H4923351   2.783   0.987   3.137  1.0673 -1.2596 -0.9790
   62MOL    H5023352   2.562   0.817   3.255 -0.5955 -0.3521  0.2748
   62MOL    H5123353   2.520   0.919   3.113  0.8292 -1.6706 -3.1998
   62MOL    H5223354   2.743   0.690   3.116  2.5700  1.6526 -2.0660
   62MOL    H5323355   2.720   0.801   2.987  2.4352 -0.1293 -0.0429
   62MOL    H5423356   2.521   0.582   3.081 -0.3689 -1.0825 -1.2392
   62MOL    H5523357   2.471   0.714   2.976 -0.2234  1.1361 -0.1621
   62MOL    H5623358   2.634   0.636   2.804 -1.3535  1.1778 -0.5515
   62MOL    H5723359   2.677   0.512   2.927 -0.5861 -0.4093 -0.4731
   62MOL    H5823360   2.524   0.500   2.846  0.6478 -0.3248  0.1830
   62MOL    C5923361   2.926   0.913   3.307  0.0309  0.1640 -0.0996
   62MOL    C6023362   3.013   0.852   3.418  0.2725 -0.2974  0.4063
   62MOL    C6123363   3.148   0.816   3.365 -0.2394 -0.0161  0.1428
   62MOL    C6223364   3.242   0.749   3.466 -0.3140  0.0701  0.3618
   62MOL    C6323365   3.391   0.746   3.416  0.0700 -0.5163 -0.5928
   62MOL    C6423366   3.474   0.645   3.493  0.6760  0.2953 -0.3301
   62MOL    O6523367   3.028   0.949   3.522  0.2663  0.5227  0.0933
   62MOL    H6623368   2.946   1.020   3.294 -1.6750  0.2569 -2.1862
   62MOL    H6723369   2.958   0.873   3.211  1.2715  2.0583 -0.5147
   62MOL    H6823370   2.972   0.756   3.449 -0.3871  0.0326  0.5687
   62MOL    H6923371   3.198   0.907   3.331  2.2335 -1.5059 -0.3345
   62MOL    H7023372   3.137   0.746   3.282  1.5693  0.1991 -0.3045
   62MOL    H7123373   3.208   0.646   3.475 -0.2648  0.1990  2.2526
   62MOL    H7223374   3.218   0.799   3.560 -0.4952 -0.3672  0.5493
   62MOL    H7323375   3.430   0.848   3.412 -2.4678  0.4591 -1.2749
   62MOL    H7423376   3.392   0.704   3.315 -2.3286 -1.6092 -0.2024
   62MOL    H7523377   3.575   0.641   3.452 -0.1138 -0.6762 -2.2668
   62MOL    H7623378   3.489   0.679   3.595 -0.5961 -0.7780  0.2190
   62MOL    H7723379   3.427   0.547   3.497 -1.5922  1.2981 -1.4631
   62MOL    C7823380   2.964   0.934   3.647 -0.3897 -0.2505  0.2046
   62MOL    C7923381   3.016   1.036   3.746 -0.6115  0.2593 -0.0055
   62MOL    C8023382   3.167   1.016   3.790  0.3231  0.0506  0.0576
   62MOL    C8123383   3.229   1.119   3.891  0.7782  0.4467 -0.5020
   62MOL    C8223384   3.377   1.094   3.915 -0.2450 -1.1363  0.3774
   62MOL    C8323385   3.448   1.217   3.959 -0.2198 -0.1097 -0.4871
   62MOL    O8423386   2.923   1.038   3.853  0.2116 -0.1923 -0.1650
   62MOL    H8523387   2.987   0.834   3.684  2.1830  0.6384  1.0477
   62MOL    H8623388   2.859   0.955   3.623 -0.3573  1.7961  1.6941
   62MOL    H8723389   3.005   1.136   3.704 -0.1877  0.3658  0.1276
   62MOL    H8823390   3.173   0.924   3.848  0.2538  0.1785  0.2698
   62MOL    H8923391   3.224   1.007   3.698  0.2128 -0.1497  0.0085
   62MOL    H9023392   3.181   1.119   3.988  2.2332  1.8037  0.2396
   62MOL    H9123393   3.212   1.220   3.853 -2.3973  0.4140  0.6804
   62MOL    H9223394   3.386   1.009   3.982  3.3091 -0.0480  1.3923
   62MOL    H9323395   3.416   1.065   3.817 -0.6238  2.3322 -0.8853
   62MOL    H9423396   3.381   1.279   4.019 -0.0698 -0.2056 -0.2199
   62MOL    H9523397   3.461   1.280   3.872  0.6348  0.4502  0.0348
   62MOL    H9623398   3.552   1.213   3.991  0.0893  2.6166 -1.0556
   62MOL    C9723399   2.920   0.934   3.952  0.0832 -0.1792  0.3968
   62MOL    C9823400   2.814   0.976   4.058  0.7889 -0.2534  0.0877
   62MOL    C9923401   2.852   1.090   4.160 -0.2527  0.2036  1.0479
   62MOL   C10023402   2.971   1.049   4.246  0.3283  0.0394 -0.6453
   62MOL   C10123403   2.988   1.136   4.368  0.6757 -0.2377 -0.0146
   62MOL   C10223404   3.134   1.131   4.428  0.2430  0.2460 -0.1395
   62MOL   O10323405   2.704   0.999   3.978 -0.0458  0.1081 -0.1083
   62MOL   H10423406   3.016   0.917   4.001  0.1541 -0.5352  0.1314
   62MOL   H10523407   2.896   0.835   3.913  0.8986 -0.0817 -0.3751
   62MOL   H10623408   2.795   0.883   4.111  0.2821 -0.5234 -0.5733
   62MOL   H10723409   2.773   1.110   4.233 -0.6526 -0.3051  0.7625
   62MOL   H10823410   2.882   1.176   4.099  1.0510 -1.7090 -1.0744
   62MOL   H10923411   3.066   1.050   4.191  0.3860 -3.1414 -0.6976
   62MOL   H11023412   2.960   0.947   4.281  0.8006  0.4398  0.6766
   62MOL   H11123413   2.921   1.121   4.453  1.9132  1.9644  1.3707
   62MOL   H11223414   2.953   1.237   4.348  3.9632  1.1294  0.9649
   62MOL   H11323415   3.148   1.173   4.528  0.4718 -0.3881  0.0944
   62MOL   H11423416   3.155   1.028   4.455  1.4874  0.9857  1.8142
   62MOL   H11523417   3.213   1.177   4.369 -1.1191  3.0835  0.1242
   62MOL   C11623418   2.582   0.975   4.038 -0.3565 -0.4617 -0.1379
   62MOL   C11723419   2.492   0.924   3.933  0.8774  0.1853  0.1077
   62MOL   C11823420   2.349   0.934   3.991 -0.0687 -0.8595 -0.4795
   62MOL   C11923421   2.237   0.882   3.898 -0.2306 -0.0549  0.1283
   62MOL   C12023422   2.099   0.910   3.948  0.0823 -0.2222 -0.2514
   62MOL   C12123423   1.990   0.873   3.847  0.5458 -0.6741  0.2892
   62MOL   O12223424   2.516   0.789   3.889 -0.2630  0.0848  1.0548
   62MOL   H12323425   2.595   0.898   4.113  0.8073 -0.5006 -0.3686
   62MOL   H12423426   2.557   1.072   4.083 -1.1612 -1.5529  1.8335
   62MOL   H12523427   2.499   0.998   3.853 -1.9602  0.6306  0.2333
   62MOL   H12623428   2.341   0.882   4.087  1.4429 -1.8232 -0.8629
   62MOL   H12723429   2.329   1.041   4.000  1.1928 -0.3030 -3.7196
   62MOL   H12823430   2.248   0.775   3.881 -0.7828  0.1555 -1.6960
   62MOL   H12923431   2.247   0.927   3.799 -0.4235  0.6052  0.4006
   62MOL   H13023432   2.087   0.849   4.037  0.8451 -0.3640 -0.2440
   62MOL   H13123433   2.091   1.016   3.971 -0.5869 -0.3145 -0.0405
   62MOL   H13223434   1.950   0.954   3.786 -0.9127 -1.1461  0.6024
   62MOL   H13323435   2.032   0.798   3.779  1.0188 -0.7694  0.6814
   62MOL   H13423436   1.903   0.821   3.887 -0.1042 -0.0070 -0.2519
   62MOL   C13523437   2.576   0.766   3.759  0.2515  1.1459  0.3188
   62MOL   C13623438   2.582   0.619   3.707  0.7769 -0.0721  0.1359
   62MOL   C13723439   2.688   0.612   3.599  0.6889 -0.0332 -0.1401
   62MOL   C13823440   2.724   0.464   3.550 -0.3804  0.7298 -0.2727
   62MOL   C13923441   2.851   0.453   3.463 -0.2688 -0.2517 -0.4610
   62MOL   C14023442   2.828   0.496   3.321  0.1725  0.7130 -0.1766
   62MOL   O14123443   2.454   0.590   3.647  0.2974  0.4177 -0.0787
   62MOL   H14223444   2.541   0.828   3.677 -0.5094 -2.0162 -1.8417
   62MOL   H14323445   2.678   0.798   3.780  1.8551 -2.4658 -1.4774
   62MOL   H14423446   2.608   0.551   3.787  2.9093  1.3314  0.6819
   62MOL   H14523447   2.664   0.667   3.508 -0.5841 -0.4019 -0.0352
   62MOL   H14623448   2.779   0.651   3.645  1.9606 -3.1077  0.1164
   62MOL   H14723449   2.641   0.430   3.489 -1.7865 -0.0392  2.0180
   62MOL   H14823450   2.738   0.407   3.642  0.8784 -0.2401 -1.0460
   62MOL   H14923451   2.889   0.351   3.464  0.5758  0.0696  0.8499
   62MOL   H15023452   2.922   0.515   3.517 -0.1349  0.3576 -1.3218
   62MOL   H15123453   2.919   0.479   3.264 -1.1461  0.0868 -2.1282
   62MOL   H15223454   2.754   0.446   3.260  0.5963  0.3317 -0.3793
   62MOL   H15323455   2.812   0.604   3.318  0.8071  0.7886 -3.6778
   62MOL   C15423456   2.373   0.514   3.737 -0.1289 -0.1645 -0.0236
   62MOL   C15523457   2.262   0.457   3.654 -0.6418  0.7425  0.5711
   62MOL   C15623458   2.304   0.339   3.571 -0.3440  0.2262  0.7686
   62MOL   C15723459   2.218   0.325   3.444 -0.0307 -0.5697 -0.2381
   62MOL   C15823460   2.264   0.231   3.338 -0.6077  0.2359  0.1617
   62MOL   C15923461   2.391   0.275   3.270 -0.1625 -0.3975  0.4236
   62MOL   O16023462   2.149   0.416   3.735 -0.1249 -0.4086  0.8611
   62MOL   H16123463   2.333   0.563   3.826 -1.2581 -1.4502  0.1861
   62MOL   H16223464   2.428   0.430   3.779  0.6274  0.6339  0.6309
   62MOL   H16323465   2.234   0.529   3.577  0.8965  0.9053  0.1337
   62MOL   H16423466   2.330   0.244   3.618  0.5539 -0.7833 -1.6738
   62MOL   H16523467   2.396   0.379   3.528 -1.0411  0.5187 -0.4658
   62MOL   H16623468   2.213   0.422   3.394  0.3821 -1.3620 -1.8595
   62MOL   H16723469   2.114   0.314   3.476 -0.0104  0.9939  0.4450
   62MOL   H16823470   2.285   0.130   3.371  0.4687  0.1056 -0.8703
   62MOL   H16923471   2.192   0.231   3.256  0.1806  3.1597 -0.5928
   62MOL   H17023472   2.408   0.206   3.187  0.2881 -0.6367  0.7142
   62MOL   H17123473   2.479   0.279   3.333 -0.6086  0.6758  0.9935
   62MOL   H17223474   2.375   0.368   3.216  0.8179 -1.4573 -1.7743
   62MOL   C17323475   2.066   0.517   3.787 -0.2066 -0.0037  0.0887
   62MOL   C17423476   1.927   0.447   3.809  0.1649  0.1529 -0.3423
   62MOL   C17523477   1.849   0.491   3.929 -0.2646 -0.0586  0.8512
   62MOL   C17623478   1.714   0.407   3.942 -0.3128  0.5222 -0.5905
   62MOL   C17723479   1.634   0.459   4.064  0.3451 -0.2705 -0.1403
   62MOL   C17823480   1.520   0.375   4.112 -0.6084  0.1434 -0.0316
   62MOL   O17923481   1.839   0.480   3.705  0.1835  0.1953 -0.7139
   62MOL   H18023482   2.048   0.601   3.720 -1.4612 -1.5450 -1.5387
   62MOL   H18123483   2.104   0.551   3.883 -0.2556 -0.8390  0.4039
   62MOL   H18223484   1.939   0.338   3.814  0.1598  0.2347  2.1595
   62MOL   H18323485   1.919   0.459   4.006 -2.9965 -1.0710  3.0131
   62MOL   H18423486   1.840   0.600   3.937 -1.5975 -0.1138  0.1993
   62MOL   H18523487   1.657   0.403   3.849 -1.8661 -0.4415  0.3771
   62MOL   H18623488   1.746   0.307   3.969 -1.6818  0.5358  1.1938
   62MOL   H18723489   1.710   0.475   4.140  1.1736 -1.3655 -0.7325
   62MOL   H18823490   1.608   0.560   4.032  0.6044 -0.5739 -1.3394
   62MOL   H18923491   1.454   0.367   4.026  1.2533 -1.8056 -1.3383
   62MOL   H19023492   1.469   0.425   4.194 -1.6228 -1.9929  0.6783
   62MOL   H19123493   1.560   0.281   4.150  0.6512  0.2167 -1.1398
   62MOL   C19223494   1.852   0.408   3.587 -0.7803  0.0200  0.5545
   62MOL   C19323495   1.778   0.461   3.466  0.2552  1.1952 -0.1846
   62MOL   C19423496   1.756   0.355   3.360  0.1255 -0.8327  0.1530
   62MOL   C19523497   1.704   0.412   3.227 -0.1511 -0.3022  0.4683
   62MOL   C19623498   1.691   0.293   3.119  0.0573  0.1156 -0.5982
   62MOL   C19723499   1.624   0.356   2.996  0.0114 -0.1059  0.3915
   62MOL   O19823500   1.856   0.559   3.399 -1.0503  0.2840  0.1145
   62MOL   H19923501   1.955   0.398   3.556 -1.5593 -0.4110 -1.9749
   62MOL   H20023502   1.828   0.303   3.607 -0.3220 -0.5063 -1.5632
   62MOL   H20123503   1.677   0.500   3.480 -0.5841  0.2142 -3.2396
   62MOL   H20223504   1.851   0.308   3.337  1.2106  2.1960 -1.8287
   62MOL   H20323505   1.692   0.274   3.395  2.5101 -3.1877 -0.8366
   62MOL   H20423506   1.771   0.483   3.178  0.9968 -1.4188  0.3672
   62MOL   H20523507   1.616   0.475   3.238 -1.3762 -1.4791 -2.0569
   62MOL   H20623508   1.791   0.259   3.091 -0.2705 -1.3710 -0.0002
   62MOL   H20723509   1.641   0.206   3.161 -0.5489  1.2922  1.2072
   62MOL   H20823510   1.523   0.388   3.022 -0.3814  0.5633 -1.7963
   62MOL   H20923511   1.676   0.447   2.965  0.8110 -1.1617 -1.4876
   62MOL   H21023512   1.628   0.285   2.913 -0.7706  1.1049 -0.7042
   62MOL   C21123513   1.874   0.681   3.458 -0.7913  0.0218  0.1057
   62MOL   C21223514   1.955   0.776   3.375 -0.1254 -0.2667  0.1344
   62MOL   C21323515   2.034   0.873   3.461 -0.6703  0.1091 -0.2147
   62MOL   C21423516   2.134   0.962   3.375  0.3355 -0.0307 -0.6431
   62MOL   C21523517   2.229   1.046   3.468  0.1845  0.0448  0.3107
   62MOL   C21623518   2.355   0.964   3.518 -0.3415  0.0719  0.4708
   62MOL   O21723519   1.863   0.860   3.300  0.2182  0.6478 -0.6468
   62MOL   H21823520   1.934   0.653   3.545  1.3407  1.0505 -1.0196
   62MOL   H21923521   1.787   0.730   3.503 -0.0711  3.0639 -1.6723
   62MOL   H22023522   2.018   0.726   3.301 -0.0891  1.6781 -1.2084
   62MOL   H22123523   1.967   0.939   3.516  2.4631  1.1684  2.4987
   62MOL   H22223524   2.075   0.808   3.538  1.1428  0.3218 -0.9862
   62MOL   H22323525   2.186   0.906   3.298  3.1882  0.2325  1.0555
   62MOL   H22423526   2.085   1.037   3.312 -0.9152  0.7210  1.1894
   62MOL   H22523527   2.261   1.134   3.414  0.5054 -0.5615 -0.5012
   62MOL   H22623528   2.166   1.077   3.552 -0.9276 -1.2529 -0.0162
   62MOL   H22723529   2.319   0.883   3.581 -1.6751  1.1534  1.1425
   62MOL   H22823530   2.434   1.019   3.570  0.4006 -1.6473  1.1817
   62MOL   H22923531   2.403   0.933   3.425 -1.3107  0.6249 -0.2262
   62MOL   C23023532   1.798   0.806   3.188 -0.0043  0.0066  0.3479
   62MOL   C23123533   1.732   0.914   3.110 -1.3942 -1.2062  0.4523
   62MOL   C23223534   1.582   0.894   3.082  0.6189  0.2619 -0.0447
   62MOL   C23323535   1.535   0.772   3.000 -0.8242 -0.3781  0.2775
   62MOL   C23423536   1.383   0.763   2.999 -0.5114  0.7500 -0.3862
   62MOL   C23523537   1.339   0.644   2.910  0.1684  0.4041 -0.4055
   62MOL   O23623538   1.801   0.956   2.993 -0.0777 -0.0123  0.2185
   62MOL   H23723539   1.869   0.753   3.125 -0.7660  0.0489 -0.5700
   62MOL   H23823540   1.718   0.741   3.226  0.0318  0.4510  1.1988
   62MOL   H23923541   1.737   1.003   3.172  0.4130 -0.6418 -0.4609
   62MOL   H24023542   1.532   0.984   3.047  1.4696  0.3720 -1.0017
   62MOL   H24123543   1.549   0.894   3.187  1.0413  2.0761  0.0984
   62MOL   H24223544   1.567   0.672   3.032  0.4118 -1.1544 -3.1194
   62MOL   H24323545   1.556   0.784   2.893 -0.4378  2.7727  0.6588
   62MOL   H24423546   1.352   0.745   3.102  0.8818  2.4635  0.3637
   62MOL   H24523547   1.342   0.859   2.968 -2.0663 -0.1466 -1.2063
   62MOL   H24623548   1.383   0.551   2.945 -2.5385 -0.9139 -0.3815
   62MOL   H24723549   1.369   0.651   2.805  1.2457  1.9040 -0.0305
   62MOL   H24823550   1.232   0.626   2.911  0.3389 -0.6155 -0.1245
   62MOL   C24923551   1.928   1.022   3.011  0.6647 -1.3466 -0.3223
   62MOL   C25023552   2.041   0.977   2.919 -0.2044  0.6506 -0.0769
   62MOL   C25123553   2.179   1.039   2.957 -0.5750  0.1208  0.0459
   62MOL   C25223554   2.293   1.003   2.864  0.1703 -0.1840  0.2879
   62MOL   C25323555   2.421   1.097   2.869 -0.0729  0.1093 -0.4724
   62MOL   C25423556   2.517   1.064   2.757 -0.7024 -0.4573 -0.3755
   62MOL   O25523557   2.008   1.022   2.785 -0.0044  0.1546 -0.0334
   62MOL   H25623558   1.915   1.127   2.982 -1.2658 -1.7071 -0.8453
   62MOL   H25723559   1.959   1.013   3.115 -1.3893 -2.3674  0.2322
   62MOL   H25823560   2.053   0.869   2.924 -0.0334  0.6277 -0.9360
   62MOL   H25923561   2.158   1.144   2.977 -0.0643 -0.1472  2.0497
   62MOL   H26023562   2.208   0.997   3.053 -0.9724 -1.2454 -0.4212
   62MOL   H26123563   2.320   0.897   2.860 -0.1482 -0.1990 -1.7050
   62MOL   H26223564   2.243   1.021   2.770 -1.4408 -2.4727  0.6618
   62MOL   H26323565   2.390   1.199   2.848 -0.7373 -0.1888 -0.9734
   62MOL   H26423566   2.464   1.095   2.969 -1.5902  0.1154  0.2003
   62MOL   H26523567   2.594   1.141   2.756 -1.1155 -0.0449 -0.6046
   62MOL   H26623568   2.457   1.070   2.666 -2.1173  0.4070  0.5989
   62MOL   H26723569   2.562   0.967   2.778  0.2207 -0.2002 -1.1283
   62MOL   C26823570   1.911   0.951   2.707 -0.1657 -0.4047 -0.5075
   62MOL   C26923571   1.984   0.821   2.664  0.1162  0.2580 -0.0372
   62MOL   C27023572   2.101   0.847   2.567  0.0327 -0.3035 -0.2622
   62MOL   C27123573   2.173   0.716   2.534 -0.5635 -0.7133  0.1296
   62MOL   C27223574   2.291   0.719   2.432 -0.5844 -0.0239  0.3445
   62MOL   C27323575   2.257   0.700   2.284  0.1359 -0.1283 -0.5852
   62MOL   O27423576   1.885   0.746   2.591 -0.9133  0.0896 -0.1309
   62MOL   H27523577   1.876   1.020   2.630 -0.1117  0.3760  0.1699
   62MOL   H27623578   1.815   0.928   2.754  0.6674 -2.0240  0.4238
   62MOL   H27723579   2.021   0.760   2.746 -1.4675 -0.4205  0.1898
   62MOL   H27823580   2.056   0.893   2.478  1.2333 -1.3818 -1.4506
   62MOL   H27923581   2.162   0.925   2.612 -0.3822  0.0499 -0.3098
   62MOL   H28023582   2.203   0.669   2.628 -0.4294 -0.5726  0.1583
   62MOL   H28123583   2.092   0.655   2.495  1.3697 -0.5313 -4.6314
   62MOL   H28223584   2.354   0.807   2.441 -1.1352  0.3505  0.6048
   62MOL   H28323585   2.343   0.628   2.461 -1.4463 -0.6351  0.0112
   62MOL   H28423586   2.222   0.791   2.236 -2.6778 -0.9625 -0.1677
   62MOL   H28523587   2.348   0.668   2.234 -0.3730 -0.7310 -1.1236
   62MOL   H28623588   2.182   0.623   2.270 -1.3907  0.7680  2.3273
   62MOL   C28723589   1.784   0.678   2.652  0.2442  0.9704 -1.0550
   62MOL   C28823590   1.704   0.592   2.553 -0.1895  0.1104 -0.3907
   62MOL   C28923591   1.571   0.561   2.603 -0.8012 -0.3927 -0.4931
   62MOL   C29023592   1.499   0.463   2.503  0.1252 -0.9767  0.3702
   62MOL   C29123593   1.370   0.414   2.562 -0.4243  0.0081 -0.4118
   62MOL   C29223594   1.296   0.314   2.469  0.1019 -0.0294 -0.2231
   62MOL   O29323595   1.776   0.472   2.549 -0.0384  0.1179  0.4693
   62MOL   H29423596   1.713   0.742   2.705 -0.6033 -1.6223  1.0634
   62MOL   H29523597   1.823   0.615   2.733 -0.7260  1.6877 -0.0145
   62MOL   H29623598   1.704   0.640   2.456  1.5449  0.7001 -0.1219
   62MOL   H29723599   1.571   0.501   2.694  2.0425  2.9606  1.8351
   62MOL   H29823600   1.510   0.652   2.606  3.0609  2.3621 -1.5812
   62MOL   H29923601   1.484   0.510   2.406  0.6184 -1.5214  0.0242
   62MOL   H30023602   1.560   0.377   2.476  2.2239  0.5667  0.1220
   62MOL   H30123603   1.305   0.499   2.581  0.2912  0.4654  0.0080
   62MOL   H30223604   1.381   0.365   2.659  0.6534 -0.9227 -0.9827
   62MOL   H30323605   1.297   0.212   2.507 -3.7371  0.5561  1.7325
   62MOL   H30423606   1.189   0.337   2.464  0.3576  1.1125 -0.5487
   62MOL   H30523607   1.326   0.315   2.364 -1.1804  0.0269 -0.6039
   62MOL   C30623608   1.829   0.443   2.420  0.3985  0.2783 -0.0117
   62MOL   C30723609   1.930   0.321   2.436  0.4936 -0.2636  0.1087
   62MOL   C30823610   2.008   0.296   2.304  0.6666 -0.2895 -0.1455
   62MOL   C30923611   2.120   0.203   2.326  0.0703  0.7994  0.2183
   62MOL   C31023612   2.222   0.193   2.208 -0.1564  0.0722 -0.3026
   62MOL   C31123613   2.302   0.326   2.195 -0.2632 -0.2131 -0.3694
   62MOL   O31223614   1.863   0.204   2.472  0.1308 -0.2382 -0.3392
   62MOL   H31323615   1.768   0.433   2.330  3.1140 -0.5618 -1.8304
   62MOL   H31423616   1.889   0.532   2.403  1.0959 -0.0154  0.8680
   62MOL   H31523617   2.000   0.337   2.518  2.4395 -0.8428 -1.3893
   62MOL   H31623618   2.038   0.398   2.278 -1.3490  1.0668  2.6550
   62MOL   H31723619   1.937   0.262   2.228  0.1400 -1.0242  0.6756
   62MOL   H31823620   2.177   0.232   2.414 -0.1610 -1.0959  0.9980
   62MOL   H31923621   2.076   0.105   2.345 -0.3453  1.0217  0.4095
   62MOL   H32023622   2.173   0.153   2.119 -0.4234  1.7130 -0.9234
   62MOL   H32123623   2.296   0.125   2.249 -0.1685  0.1493 -0.1546
   62MOL   H32223624   2.333   0.360   2.294 -1.4578  0.4300 -0.2035
   62MOL   H32323625   2.390   0.309   2.133  0.3032 -0.9107  0.6002
   62MOL   H32423626   2.239   0.402   2.149  0.6398  1.0072  0.3749
   62MOL   C32523627   1.806   0.177   2.599 -0.0428 -0.5101 -0.3159
   62MOL   C32623628   1.808   0.033   2.648 -0.0921  0.7797 -0.5933
   62MOL   C32723629   1.699   0.012   2.754 -1.0402  0.0122 -0.8078
   62MOL   C32823630   1.690   7.660   2.806  0.3268 -0.5206 -0.3978
   62MOL   C32923631   1.588   7.648   2.916  0.1520 -0.2712 -0.7283
   62MOL   C33023632   1.654   7.664   3.059  0.3233  0.1106  0.0080
   62MOL   O33123633   1.928   0.006   2.717 -0.4755  0.2768  0.1210
   62MOL   H33223634   1.702   0.210   2.595  1.2871  3.8081 -2.2613
   62MOL   H33323635   1.842   0.233   2.684 -0.3183 -0.8632  0.0383
   62MOL   H33423636   1.789   7.753   2.563  2.6551  1.5722 -1.8825
   62MOL   H33523637   1.716   0.074   2.842 -1.9052  1.8717 -1.9291
   62MOL   H33623638   1.608   0.050   2.708 -0.1643  0.1497 -2.4560
   62MOL   H33723639   1.685   7.587   2.725  1.3442 -1.0315 -0.0169
   62MOL   H33823640   1.786   7.628   2.848  0.6206 -1.7511 -1.9445
   62MOL   H33923641   1.507   7.720   2.907  0.8162  0.6161  0.3275
   62MOL   H34023642   1.537   7.551   2.919 -0.9001  0.2834 -0.5509
   62MOL   H34123643   1.680   7.769   3.078  3.1971 -0.8845  1.8993
   62MOL   H34223644   1.590   7.630   3.140  0.2998 -0.8897 -0.4257
   62MOL   H34323645   1.753   7.623   3.079  0.3474  0.4969  0.6967
   62MOL   C34423646   2.031   7.745   2.623  0.6986  0.1895 -0.0007
   62MOL   C34523647   2.151   7.697   2.705 -0.5788  0.1413  0.2743
   62MOL   C34623648   2.250   7.601   2.625  0.4212  0.7623 -0.3993
   62MOL   C34723649   2.308   7.665   2.496  0.1533 -0.9574 -0.4232
   62MOL   C34823650   2.409   7.574   2.426  0.3331 -0.5566  0.0674
   62MOL   C34923651   2.334   7.463   2.349  0.9444 -0.1575 -0.8819
   62MOL   O35023652   2.232   0.026   2.742  0.2714  0.2914  0.3015
   62MOL   H35123653   2.067   0.043   2.563  0.9797 -0.5493 -0.8919
   62MOL   H35223654   1.986   7.670   2.557 -2.0996  0.1056  1.9531
   62MOL   H35323655   2.122   7.635   2.790 -1.5495 -1.4094 -1.1632
   62MOL   H35423656   2.195   7.509   2.608  2.8483 -0.9753  0.8104
   62MOL   H35523657   2.330   7.573   2.694  1.1352  1.4317 -0.9461
   62MOL   H35623658   2.364   7.757   2.513  0.4987 -1.4452  1.1747
   62MOL   H35723659   2.229   7.695   2.429  1.8495  1.6067 -1.3308
   62MOL   H35823660   2.488   7.529   2.486 -0.8040  0.3982  2.3702
   62MOL   H35923661   2.471   7.631   2.357 -0.4324 -0.9458 -0.9444
   62MOL   H36023662   2.284   7.500   2.260 -1.2996  0.3249  0.5477
   62MOL   H36123663   2.262   7.409   2.409 -0.9371  0.7037 -2.3132
   62MOL   H36223664   2.401   7.386   2.310  0.0299 -0.3688 -2.0786
   62MOL   C36323665   2.240   0.047   2.880  0.3154  0.6542  0.4522
   62MOL   C36423666   2.142   0.154   2.926 -0.3341  0.4113  0.4778
   62MOL   C36523667   2.124   0.269   2.829 -0.5578  0.3455 -0.1258
   62MOL   C36623668   2.040   0.396   2.875  0.0262  0.6093  0.2478
   62MOL   C36723669   2.082   0.457   3.014  0.1162 -0.2330 -0.1702
   62MOL   C36823670   2.233   0.498   3.033  0.0680 -1.0379 -0.2052
   62MOL   O36923671   2.027   0.088   2.961 -0.6199 -0.0179 -0.2113
   62MOL   H37023672   2.337   0.096   2.896 -0.9047  3.0304  0.8509
   62MOL   H37123673   2.234   7.745   2.945 -0.9839  2.1860  2.4461
   62MOL   H37223674   2.191   0.184   3.019  0.9775 -0.2549  0.0154
   62MOL   H37323675   2.216   0.304   2.783  0.8532  0.3919  2.6603
   62MOL   H37423676   2.072   0.228   2.742 -3.9424 -0.6711  2.2628
   62MOL   H37523677   2.053   0.474   2.800 -0.0852  0.0325 -0.3774
   62MOL   H37623678   1.937   0.369   2.855  0.4637  0.1245 -1.4242
   62MOL   H37723679   2.014   0.540   3.033  2.5460  2.0776 -1.2237
   62MOL   H37823680   2.057   0.392   3.098  2.7347  0.0207  0.8422
   62MOL   H37923681   2.253   0.555   3.123 -2.1896  1.2137 -1.0609
   62MOL   H38023682   2.294   0.407   3.028 -2.4120 -2.8216  0.7276
   62MOL   H38123683   2.260   0.551   2.941 -0.3772  1.6065  1.1599
   62MOL   H38223684   1.987   0.064   2.880 -1.9619  0.1174  0.4005
   63MOL     C123685   4.051   1.372   0.896 -0.0364  0.6540  0.3835
   63MOL     C223686   3.942   1.307   0.973  0.2443 -0.1882  1.3008
   63MOL     C323687   3.945   1.152   0.962  0.0634  0.2407  0.1694
   63MOL     C423688   3.828   1.073   1.023 -0.7347  0.1920  1.2318
   63MOL     C523689   3.843   0.915   1.012  0.5746  0.3028 -0.7640
   63MOL     C623690   3.738   0.833   1.085  0.1619 -0.5965  0.6314
   63MOL     O723691   3.949   1.331   1.113  0.0379 -0.6448  0.2704
   63MOL     H823692   4.028   1.478   0.900 -0.3914  0.5975 -0.0011
   63MOL     H923693   4.053   1.356   0.788  1.2744  0.2657  0.4655
   63MOL    H1023694   3.847   1.332   0.927 -0.4490 -1.0445  2.2177
   63MOL    H1123695   3.945   1.124   0.857 -1.3031 -0.4612  0.3494
   63MOL    H1223696   4.028   1.110   1.019  1.2933  1.9125 -0.3532
   63MOL    H1323697   3.815   1.121   1.120  4.0612  0.7929  1.6783
   63MOL    H1423698   3.746   1.083   0.951  0.3551 -1.7126 -0.3069
   63MOL    H1523699   3.843   0.886   0.907 -0.4561 -1.7508 -0.2264
   63MOL    H1623700   3.945   0.897   1.047  0.0712 -0.8680  0.1609
   63MOL    H1723701   3.639   0.868   1.056  0.9463  1.2927  0.1363
   63MOL    H1823702   3.744   0.724   1.076 -1.6193 -0.6411 -0.3429
   63MOL    H1923703   3.753   0.849   1.191 -0.6875 -1.6122  0.9152
   63MOL    H2023704   4.152   1.341   0.923  0.2670 -1.1602 -2.6154
   63MOL    C2123705   3.910   1.459   1.153  0.5140 -0.4749  0.2640
   63MOL    C2223706   3.894   1.459   1.304 -0.1359 -0.1850 -0.3828
   63MOL    C2323707   4.031   1.437   1.371 -0.3493  0.1534 -0.2121
   63MOL    C2423708   4.038   1.438   1.523  0.5823 -0.7160  0.7206
   63MOL    C2523709   4.184   1.414   1.568 -0.4995  0.2189 -0.5028
   63MOL    C2623710   4.186   1.439   1.717  0.0122 -0.1143  0.2926
   63MOL    O2723711   3.858   1.590   1.351 -0.4684  0.4796 -0.3401
   63MOL    H2823712   3.988   1.534   1.137 -1.5780  1.4460 -1.3480
   63MOL    H2923713   3.825   1.496   1.095  2.2623  0.7946 -1.5587
   63MOL    H3023714   3.814   1.395   1.341 -0.6405 -0.0240 -1.1839
   63MOL    H3123715   4.103   1.512   1.337  0.4901 -0.7362 -0.4201
   63MOL    H3223716   4.063   1.340   1.334  0.3932  0.1345  0.4748
   63MOL    H3323717   3.969   1.362   1.559 -2.3892  0.2389 -2.6818
   63MOL    H3423718   3.999   1.535   1.553  0.9332 -0.7342  1.2370
   63MOL    H3523719   4.205   1.307   1.559  0.7775  0.1109  2.8470
   63MOL    H3623720   4.256   1.475   1.515  0.9258 -0.1647  0.9501
   63MOL    H3723721   4.098   1.406   1.771 -0.9989 -0.5896 -1.6185
   63MOL    H3823722   4.202   1.545   1.738  1.0793 -0.5141  1.6152
   63MOL    H3923723   4.278   1.406   1.766 -0.5191 -1.5499  0.3558
   63MOL    C4023724   3.737   1.646   1.300  0.0195 -1.1898 -0.1909
   63MOL    C4123725   3.693   1.760   1.403 -0.3993 -0.1163 -0.2714
   63MOL    C4223726   3.687   1.727   1.550 -0.6871 -0.6138 -0.1792
   63MOL    C4323727   3.639   1.846   1.641 -0.7227 -0.4691 -0.2007
   63MOL    C4423728   3.688   1.824   1.783  0.1171 -0.3296  0.2082
   63MOL    C4523729   3.611   1.929   1.874  0.3394 -0.3418 -0.0330
   63MOL    O4623730   3.559   1.798   1.360  0.1033 -0.3433  0.0381
   63MOL    H4723731   3.664   1.566   1.315  0.8800 -1.6899  1.5314
   63MOL    H4823732   3.750   1.676   1.196 -2.0263  0.1578 -0.0755
   63MOL    H4923733   3.766   1.841   1.397 -0.3647  0.1931  3.1561
   63MOL    H5023734   3.613   1.647   1.558 -1.2909  0.0774  1.3100
   63MOL    H5123735   3.788   1.693   1.573 -0.0521  0.9848 -0.5236
   63MOL    H5223736   3.531   1.853   1.630 -0.5930  0.4460 -1.0502
   63MOL    H5323737   3.693   1.933   1.601 -1.4935 -0.0260 -0.2931
   63MOL    H5423738   3.663   1.722   1.814 -0.7522 -0.8320 -2.0218
   63MOL    H5523739   3.797   1.834   1.784  0.1789 -1.0035  1.1960
   63MOL    H5623740   3.634   2.032   1.849  0.5449  0.0273  1.6583
   63MOL    H5723741   3.506   1.915   1.849  0.5255  1.1486 -1.7563
   63MOL    H5823742   3.626   1.909   1.980 -0.0136 -3.0295 -0.4480
   63MOL    C5923743   3.543   1.930   1.313  0.0276  0.0368  0.1500
   63MOL    C6023744   3.398   1.976   1.302 -0.1409 -0.8435  0.4140
   63MOL    C6123745   3.397   2.129   1.319 -0.7471 -0.3639 -0.5854
   63MOL    C6223746   3.267   2.200   1.296  0.6357  0.1161 -0.0995
   63MOL    C6323747   3.150   2.145   1.378 -0.5970  0.1677 -0.2336
   63MOL    C6423748   3.028   2.236   1.371 -0.0470 -0.1090 -0.6491
   63MOL    O6523749   3.349   1.938   1.168 -0.0131  0.1147  0.7836
   63MOL    H6623750   3.603   1.947   1.224  0.5155  3.6374  1.1082
   63MOL    H6723751   3.590   1.995   1.386  0.8207 -1.3767  0.9024
   63MOL    H6823752   3.336   1.944   1.385 -2.1591 -0.6420 -0.9684
   63MOL    H6923753   3.470   2.175   1.252  0.2917 -0.9569  0.1078
   63MOL    H7023754   3.440   2.169   1.411 -0.3183 -0.2081 -0.8495
   63MOL    H7123755   3.238   2.192   1.191 -0.7499 -2.9498  0.4627
   63MOL    H7223756   3.272   2.307   1.317 -1.7512  0.6952 -2.2005
   63MOL    H7323757   3.177   2.129   1.482 -2.8461  0.4501  0.4395
   63MOL    H7423758   3.123   2.045   1.344 -4.1388  0.8715  0.3224
   63MOL    H7523759   2.947   2.212   1.441  1.4659 -0.8723  0.8703
   63MOL    H7623760   3.057   2.340   1.382 -0.3741 -0.1762  0.9068
   63MOL    H7723761   2.988   2.227   1.270 -1.5552  0.2313 -0.0942
   63MOL    C7823762   3.287   1.812   1.157 -0.1477  0.4060 -0.3935
   63MOL    C7923763   3.172   1.812   1.048 -0.3318 -0.1644  0.6893
   63MOL    C8023764   3.094   1.680   1.042  0.2825  0.1066  0.4156
   63MOL    C8123765   2.960   1.682   1.126 -0.1367  0.1306  1.1858
   63MOL    C8223766   2.889   1.551   1.096  0.4470 -0.1827  0.6215
   63MOL    C8323767   2.936   1.427   1.177  0.5504 -0.9779 -0.5569
   63MOL    O8423768   3.217   1.841   0.915  0.2968  0.1958 -0.0457
   63MOL    H8523769   3.241   1.790   1.253  0.5535 -0.7376 -0.3222
   63MOL    H8623770   3.361   1.734   1.142 -1.6524 -0.9613 -0.7694
   63MOL    H8723771   3.107   1.898   1.064  1.4666  1.2487  0.5668
   63MOL    H8823772   3.051   1.661   0.944 -0.2530  1.2317  0.4184
   63MOL    H8923773   3.161   1.597   1.064  1.6830  1.2131  0.3959
   63MOL    H9023774   2.894   1.760   1.088  0.7347 -0.3703 -1.3972
   63MOL    H9123775   2.978   1.705   1.231  0.3229  0.3859  1.0514
   63MOL    H9223776   2.782   1.561   1.110  0.1864 -0.3626 -1.0936
   63MOL    H9323777   2.892   1.534   0.988  1.5849  3.0489  0.1037
   63MOL    H9423778   2.926   1.426   1.286  0.9952  1.3262 -0.4705
   63MOL    H9523779   3.039   1.411   1.145  0.3963  1.0729 -2.1606
   63MOL    H9623780   2.893   1.335   1.138 -1.3492 -0.2078 -0.3208
   63MOL    C9723781   3.289   1.959   0.889 -0.5248  0.4270 -0.1276
   63MOL    C9823782   3.282   1.998   0.737  0.0881 -0.3817  1.0735
   63MOL    C9923783   3.353   2.136   0.705  0.2918  0.4919 -0.5019
   63MOL   C10023784   3.339   2.199   0.563  0.0095 -0.2870  0.3094
   63MOL   C10123785   3.196   2.226   0.528  0.0157 -0.5738  0.3081
   63MOL   C10223786   3.127   2.123   0.440 -0.7113  0.0961  0.3223
   63MOL   O10323787   3.365   1.907   0.662  0.0433  0.2079  0.2673
   63MOL   H10423788   3.390   1.934   0.922 -1.0094 -0.3647  0.7713
   63MOL   H10523789   3.255   2.041   0.952 -2.2475 -0.0534 -0.4042
   63MOL   H10623790   3.178   1.998   0.705  0.6239 -1.4360 -0.7950
   63MOL   H10723791   3.460   2.125   0.723 -0.5564 -2.7423  3.3739
   63MOL   H10823792   3.314   2.217   0.766 -1.2433  1.2492 -2.4494
   63MOL   H10923793   3.383   2.133   0.488  1.4538  1.3566 -0.3216
   63MOL   H11023794   3.402   2.288   0.557 -3.3618  2.4099  2.8842
   63MOL   H11123795   3.205   2.312   0.462  0.5100 -1.1229 -0.3438
   63MOL   H11223796   3.144   2.271   0.613 -0.0237 -1.0337  0.5288
   63MOL   H11323797   3.048   2.174   0.384 -0.2268  0.8147  0.2826
   63MOL   H11423798   3.188   2.076   0.363 -1.7833  2.3821 -1.9867
   63MOL   H11523799   3.087   2.042   0.501  1.2102 -1.3322 -0.2514
   63MOL   C11623800   3.279   1.815   0.596  0.2992 -0.3246 -0.3726
   63MOL   C11723801   3.371   1.711   0.540  0.7096  0.0701 -0.2979
   63MOL   C11823802   3.345   1.667   0.391  0.3049 -0.1134 -0.2232
   63MOL   C11923803   3.450   1.578   0.318  0.0015 -0.3130 -0.1416
   63MOL   C12023804   3.433   1.559   0.164  0.1019 -0.4000  0.1541
   63MOL   C12123805   3.445   1.683   0.083  0.3894 -0.4012  0.2851
   63MOL   O12223806   3.376   1.595   0.607 -0.2732 -0.1090  0.1248
   63MOL   H12323807   3.207   1.764   0.661 -0.0644  0.9420  0.2574
   63MOL   H12423808   3.225   1.856   0.511 -1.3137 -0.1941  0.6820
   63MOL   H12523809   3.472   1.754   0.536 -0.0493  1.7947 -1.7917
   63MOL   H12623810   3.253   1.609   0.383  0.4219 -0.2843 -0.3305
   63MOL   H12723811   3.319   1.750   0.325 -1.0582 -1.1677 -1.0484
   63MOL   H12823812   3.471   1.485   0.370  1.1897 -0.1265 -0.2717
   63MOL   H12923813   3.541   1.636   0.331 -2.7228  3.6246  2.6421
   63MOL   H13023814   3.513   1.503   0.116  0.1902 -0.2522  0.1292
   63MOL   H13123815   3.336   1.514   0.143 -1.2798  2.0539  1.0463
   63MOL   H13223816   3.531   1.745   0.108  0.1897 -0.1805  0.4172
   63MOL   H13323817   3.452   1.664   7.761 -1.5107  1.2361 -0.1523
   63MOL   H13423818   3.360   1.747   0.104  1.0928  0.8523 -0.6578
   63MOL   C13523819   3.446   1.613   0.733  0.2310 -0.5249  0.6111
   63MOL   C13623820   3.488   1.479   0.792 -0.2390  0.2318 -1.2819
   63MOL   C13723821   3.492   1.476   0.948  0.2041  0.2878  0.5019
   63MOL   C13823822   3.511   1.333   1.009  0.1968  0.5541  0.7583
   63MOL   C13923823   3.470   1.338   1.159  0.4432 -1.0868 -0.2356
   63MOL   C14023824   3.495   1.210   1.244 -0.8478  0.5807  0.4998
   63MOL   O14123825   3.617   1.450   0.753  0.2013 -0.4703 -0.3982
   63MOL   H14223826   3.535   1.675   0.730 -0.1177  0.1029  2.2664
   63MOL   H14323827   3.382   1.678   0.793  0.8220 -0.6972  1.4440
   63MOL   H14423828   3.417   1.405   0.756  0.9111 -1.8528  0.6263
   63MOL   H14523829   3.561   1.548   0.992 -0.0166 -0.1099  1.5027
   63MOL   H14623830   3.393   1.505   0.984  0.5367 -0.1165  1.7428
   63MOL   H14723831   3.616   1.305   0.996 -0.3737 -0.3621 -2.1640
   63MOL   H14823832   3.447   1.256   0.968  1.7236 -0.7343  0.7619
   63MOL   H14923833   3.365   1.365   1.157  0.4518 -1.1253 -1.8422
   63MOL   H15023834   3.532   1.417   1.200 -0.7091 -0.7204  0.8153
   63MOL   H15123835   3.506   1.120   1.183 -0.0119  0.4627  0.8206
   63MOL   H15223836   3.581   1.235   1.306 -0.5579 -0.4713  0.5346
   63MOL   H15323837   3.409   1.197   1.309 -1.1182  0.7036  0.1676
   63MOL   C15423838   3.642   1.352   0.658  0.0583 -0.2131  0.2347
   63MOL   C15523839   3.786   1.368   0.625 -0.1010  0.4175  0.3583
   63MOL   C15623840   3.825   1.234   0.558 -0.1374  0.1950 -0.5626
   63MOL   C15723841   3.973   1.245   0.504 -0.6439  0.9674  0.3526
   63MOL   C15823842   4.027   1.110   0.449  0.4034 -0.0096  0.6294
   63MOL   C15923843   4.161   1.125   0.381 -0.3109 -0.4253 -0.1248
   63MOL   O16023844   3.796   1.473   0.526 -0.3725 -0.1789  0.3370
   63MOL   H16123845   3.572   1.368   0.576 -0.3203 -1.8767  0.2244
   63MOL   H16223846   3.614   1.258   0.705  0.9951  0.6872  2.6583
   63MOL   H16323847   3.853   1.380   0.710  1.6279  0.8265 -1.0231
   63MOL   H16423848   3.756   1.218   0.475  0.0928 -0.6861 -0.5875
   63MOL   H16523849   3.810   1.154   0.631  2.1394  0.6184  0.3863
   63MOL   H16623850   4.039   1.278   0.585  1.4225  0.2469 -0.9880
   63MOL   H16723851   3.977   1.324   0.429 -0.2232 -1.0444 -1.8070
   63MOL   H16823852   4.038   1.040   0.532  1.5389 -1.6596 -0.8636
   63MOL   H16923853   3.963   1.067   0.373 -0.1708  0.9761  0.5468
   63MOL   H17023854   4.232   1.189   0.434 -1.9169 -0.7962  2.5673
   63MOL   H17123855   4.141   1.157   0.278  0.9979  2.1266  0.3667
   63MOL   H17223856   4.212   1.030   0.369  1.8469  0.4770  1.5274
   63MOL   C17323857   3.770   1.610   0.563  0.6374  0.1832  0.3127
   63MOL   C17423858   3.849   1.709   0.484  0.0286  0.2839 -0.7458
   63MOL   C17523859   3.780   1.849   0.506 -0.5715  0.5073  0.0567
   63MOL   C17623860   3.836   1.964   0.432 -0.5514 -0.0058  0.9130
   63MOL   C17723861   3.765   2.098   0.452  0.1051  0.1640 -0.5049
   63MOL   C17823862   3.767   2.144   0.594 -0.2883  0.1178 -0.2773
   63MOL   O17923863   3.986   1.721   0.530  0.2199 -0.3117 -0.1729
   63MOL   H18023864   3.787   1.621   0.670  1.0121  0.2094  0.2510
   63MOL   H18123865   3.669   1.637   0.533  1.3268  1.2191 -1.2123
   63MOL   H18223866   3.844   1.680   0.379  1.1655 -2.1462 -0.1661
   63MOL   H18323867   3.673   1.843   0.483 -0.6187 -0.4755  0.5031
   63MOL   H18423868   3.797   1.858   0.613  2.4924 -0.3105 -0.3314
   63MOL   H18523869   3.941   1.971   0.460 -0.5134  2.1883  0.3346
   63MOL   H18623870   3.821   1.946   0.325 -2.0262 -2.2312  1.4531
   63MOL   H18723871   3.803   2.183   0.394  0.4380  1.3126  1.3724
   63MOL   H18823872   3.669   2.084   0.401 -0.3032 -3.6548  1.1530
   63MOL   H18923873   3.869   2.153   0.630 -0.0324 -0.0168 -0.9748
   63MOL   H19023874   3.700   2.080   0.651 -0.0671 -0.0565 -0.2130
   63MOL   H19123875   3.714   2.239   0.604 -2.3848 -1.1544  1.0128
   63MOL   C19223876   4.073   1.614   0.526 -0.0075 -0.1562  0.0193
   63MOL   C19323877   4.211   1.666   0.556 -0.1577  0.3365  0.7165
   63MOL   C19423878   4.311   1.558   0.503  0.2959  1.0022  0.5623
   63MOL   C19523879   4.456   1.608   0.492  0.0363  0.1418 -1.1036
   63MOL   C19623880   4.551   1.502   0.441  0.3289  0.4532  0.1416
   63MOL   C19723881   4.587   1.540   0.298  0.8848 -0.1925  0.0392
   63MOL   O19823882   4.232   1.667   0.696  0.2204 -0.1252  0.3928
   63MOL   H19923883   4.045   1.542   0.603 -0.8571  0.8345  0.6419
   63MOL   H20023884   4.061   1.568   0.428 -1.7315  1.7914 -0.7090
   63MOL   H20123885   4.235   1.754   0.496 -0.4220  0.9564  1.5096
   63MOL   H20223886   4.307   1.468   0.565 -0.5713  1.5016  1.2377
   63MOL   H20323887   4.294   1.522   0.401  1.7159  2.9040 -0.3818
   63MOL   H20423888   4.493   1.627   0.592 -1.7864 -1.6381 -0.0603
   63MOL   H20523889   4.468   1.706   0.445  4.6960  0.6089  0.8166
   63MOL   H20623890   4.644   1.503   0.498  0.5116 -0.1600 -0.1452
   63MOL   H20723891   4.504   1.403   0.448  2.7630 -0.7421  0.2211
   63MOL   H20823892   4.651   1.461   0.256  2.9762  1.5280 -0.0921
   63MOL   H20923893   4.500   1.563   0.236 -0.1169  0.0673  1.5081
   63MOL   H21023894   4.642   1.634   0.299 -0.2859  0.5055  0.9006
   63MOL   C21123895   4.204   1.792   0.751 -0.0853  0.0497  0.7249
   63MOL   C21223896   4.171   1.780   0.898  0.3026  0.1225 -0.8591
   63MOL   C21323897   4.062   1.873   0.944 -0.8289 -0.4148 -0.3750
   63MOL   C21423898   3.921   1.857   0.893 -0.0877  0.2197  0.1668
   63MOL   C21523899   3.818   1.925   0.982  0.5899  0.2379 -0.7274
   63MOL   C21623900   3.673   1.886   0.940 -0.2711  0.5766 -0.8212
   63MOL   O21723901   4.280   1.812   0.982  0.2391 -0.2446 -0.0914
   63MOL   H21823902   4.125   1.833   0.688  1.5136  1.1160 -0.6602
   63MOL   H21923903   4.297   1.847   0.735 -0.1048  0.1068  0.8095
   63MOL   H22023904   4.133   1.678   0.912  1.3884 -0.1239  0.3876
   63MOL   H22123905   4.059   1.857   1.052  4.1412 -1.9822 -0.3551
   63MOL   H22223906   4.081   1.979   0.930 -0.7238 -0.0609  2.3328
   63MOL   H22323907   3.913   1.894   0.791 -0.8857 -3.2386 -1.1123
   63MOL   H22423908   3.906   1.751   0.874 -0.8605  0.1597  1.0772
   63MOL   H22523909   3.826   1.877   1.080  0.7804  1.2890 -0.2163
   63MOL   H22623910   3.821   2.034   0.990 -0.0924  0.2693 -0.9315
   63MOL   H22723911   3.586   1.928   0.990 -0.8869 -1.8180  0.1727
   63MOL   H22823912   3.669   1.778   0.954  1.3039  0.3202 -2.1496
   63MOL   H22923913   3.651   1.911   0.836  1.4314  2.9062 -0.6716
   63MOL   C23023914   4.308   1.727   1.094  0.0375  0.4289  0.3915
   63MOL   C23123915   4.409   1.611   1.046 -0.0499 -0.3287  0.0263
   63MOL   C23223916   4.426   1.503   1.141  0.0092  0.4949  0.4077
   63MOL   C23323917   4.467   1.368   1.084  0.2352  0.8542  0.2270
   63MOL   C23423918   4.441   1.248   1.180 -0.0420 -0.0491  0.3701
   63MOL   C23523919   4.291   1.216   1.201  0.7976 -0.6614 -0.3653
   63MOL   O23623920   4.529   1.677   1.025  0.1471 -0.8151 -0.1933
   63MOL   H23723921   4.364   1.781   1.170 -0.9338  1.2509  0.5478
   63MOL   H23823922   4.212   1.688   1.129  0.3608 -1.2198 -0.4979
   63MOL   H23923923   4.367   1.567   0.955 -0.7119  0.4439 -0.0523
   63MOL   H24023924   4.336   1.488   1.202 -0.0540 -0.6649  0.0352
   63MOL   H24123925   4.508   1.526   1.209  1.2680 -1.5622 -0.3681
   63MOL   H24223926   4.574   1.376   1.067  0.1654  0.2207 -0.5484
   63MOL   H24323927   4.421   1.355   0.986  0.2883 -0.5478  0.3829
   63MOL   H24423928   4.499   1.162   1.149 -1.4946 -1.0571  0.4139
   63MOL   H24523929   4.481   1.286   1.275  1.0973  0.9897 -0.5020
   63MOL   H24623930   4.245   1.232   1.103  0.8714  2.2918  0.0403
   63MOL   H24723931   4.248   1.279   1.279  1.8023 -1.0208  0.4863
   63MOL   H24823932   4.277   1.115   1.238 -1.2596  0.4996  2.1916
   63MOL   C24923933   4.611   1.630   0.928 -0.4875 -0.7304 -0.2137
   63MOL   C25023934   4.731   1.719   0.910 -0.2437  0.0369 -0.3212
   63MOL   C25123935   4.821   1.700   1.029 -0.5080  0.1844  0.0476
   63MOL   C25223936   4.935   1.806   1.039  0.0525  0.6307 -0.2711
   63MOL   C25323937   5.012   1.816   1.176  0.7407 -0.3831  0.6303
   63MOL   C25423938   5.150   1.763   1.169 -0.7470  0.4055 -0.7753
   63MOL   O25523939   4.699   1.860   0.887  0.3097  0.5898  0.2062
   63MOL   H25623940   4.647   1.529   0.949  1.9133 -0.0439 -0.8659
   63MOL   H25723941   4.547   1.630   0.839 -2.5294  0.6374  1.2084
   63MOL   H25823942   4.788   1.694   0.821 -1.1035 -0.7390 -0.6543
   63MOL   H25923943   4.771   1.710   1.125  2.7673  0.8528  1.7484
   63MOL   H26023944   4.874   1.605   1.023 -0.1090  0.4147 -0.1048
   63MOL   H26123945   4.992   1.824   0.947 -0.3690  0.7526 -0.5108
   63MOL   H26223946   4.885   1.903   1.046  0.0416  0.6208 -0.2127
   63MOL   H26323947   5.026   1.920   1.203 -0.2216  0.6770 -2.7385
   63MOL   H26423948   4.954   1.767   1.255 -0.5108  1.4062  0.8604
   63MOL   H26523949   5.146   1.655   1.185 -0.5055  0.5101  0.0240
   63MOL   H26623950   5.209   1.797   1.254  1.1034 -1.3263 -1.3368
   63MOL   H26723951   5.188   1.788   1.070 -0.0457  1.2004 -0.3087
   63MOL   C26823952   4.626   1.884   0.768  0.5067 -0.2828  0.3204
   63MOL   C26923953   4.637   2.034   0.720  0.1790  0.2757 -0.1447
   63MOL   C27023954   4.536   2.066   0.611 -0.4785 -0.8781  0.4542
   63MOL   C27123955   4.544   2.215   0.572 -0.2102  0.0518 -0.5907
   63MOL   C27223956   4.454   2.273   0.455 -0.5702 -0.6443 -0.7686
   63MOL   C27323957   4.471   2.424   0.431 -0.1843  0.2850 -0.0954
   63MOL   O27423958   4.762   2.069   0.676  0.2332  0.4297  0.5207
   63MOL   H27523959   4.523   1.849   0.780  0.5977 -0.5680  0.2784
   63MOL   H27623960   4.660   1.817   0.688 -0.9517 -0.2208 -0.3734
   63MOL   H27723961   4.613   2.090   0.810  0.3169  0.3179 -0.1337
   63MOL   H27823962   4.555   1.998   0.529  0.1118 -2.1664  1.6403
   63MOL   H27923963   4.431   2.058   0.642 -1.9020  2.2268 -3.1762
   63MOL   H28023964   4.539   2.280   0.659 -0.5866  1.7793 -1.8645
   63MOL   H28123965   4.645   2.232   0.535 -0.4495  0.5330 -1.0435
   63MOL   H28223966   4.481   2.223   0.362 -0.2454 -2.4574  0.2761
   63MOL   H28323967   4.352   2.244   0.477 -0.4836  0.1274  0.6771
   63MOL   H28423968   4.450   2.479   0.522  0.7245  0.0493  0.2602
   63MOL   H28523969   4.577   2.444   0.418  0.0059 -0.7106 -0.0957
   63MOL   H28623970   4.419   2.459   0.342 -0.7754 -0.1820  0.0632
   63MOL   C28723971   4.855   2.074   0.785  0.4333  0.5223  0.3477
   63MOL   C28823972   5.000   2.114   0.728 -0.6737 -0.1823  0.3273
   63MOL   C28923973   5.110   2.105   0.839 -0.7858 -1.3169  0.5247
   63MOL   C29023974   5.254   2.098   0.791 -0.2958 -0.4441  0.1405
   63MOL   C29123975   5.351   2.093   0.903  0.4413 -0.1042 -0.4351
   63MOL   C29223976   5.490   2.078   0.851 -0.1246 -0.1564  0.1598
   63MOL   O29323977   5.008   2.252   0.690 -0.0864  0.5326 -0.4328
   63MOL   H29423978   4.877   1.973   0.821  0.0939  0.6523  0.9106
   63MOL   H29523979   4.828   2.136   0.870 -0.3814 -1.1248  1.3105
   63MOL   H29623980   5.029   2.052   0.644 -1.7404 -1.4695  0.8951
   63MOL   H29723981   5.094   2.189   0.905 -0.4188 -0.2167 -0.7669
   63MOL   H29823982   5.083   2.013   0.892  0.8767 -1.8030  0.5434
   63MOL   H29923983   5.273   2.019   0.719  0.0960 -0.7352  0.5575
   63MOL   H30023984   5.263   2.186   0.728 -1.8281 -1.3551 -1.3620
   63MOL   H30123985   5.322   1.999   0.950  1.6726 -1.9448 -3.2644
   63MOL   H30223986   5.349   2.180   0.969 -1.4485 -0.0854 -0.5056
   63MOL   H30323987   5.496   2.004   0.772 -1.7208 -0.4210  0.2644
   63MOL   H30423988   5.527   2.170   0.805  0.2622 -1.0132 -1.2596
   63MOL   H30523989   5.554   2.054   0.936 -0.1738 -3.7046 -0.7512
   63MOL   C30623990   5.002   2.276   0.548  0.7845 -0.1140  0.1941
   63MOL   C30723991   5.003   2.428   0.517  0.3702  0.0663  0.2703
   63MOL   C30823992   4.924   2.462   0.394  0.4776 -0.6413  0.0785
   63MOL   C30923993   4.990   2.396   0.262  0.3781  0.2717  0.1380
   63MOL   C31023994   4.916   2.443   0.133 -0.3837 -1.1825  0.5580
   63MOL   C31123995   4.970   2.358   0.014  0.2592 -0.5755  0.9769
   63MOL   O31223996   5.136   2.475   0.493 -0.1469 -0.1994  0.1363
   63MOL   H31323997   5.089   2.230   0.500 -1.2449 -3.3102 -0.5436
   63MOL   H31423998   4.906   2.231   0.524 -0.5133  0.6174  3.6205
   63MOL   H31523999   4.959   2.483   0.600  2.9548  2.1585  0.3489
   63MOL   H31624000   4.924   2.570   0.386 -1.7864 -0.5824  0.6714
   63MOL   H31724001   4.822   2.434   0.421 -0.4303  2.7155  0.3412
   63MOL   H31824002   5.098   2.412   0.256  0.4589 -0.8989 -1.8561
   63MOL   H31924003   4.980   2.289   0.276 -2.1785  0.2352 -1.7094
   63MOL   H32024004   4.948   2.547   0.121 -0.4944 -1.4901 -2.6653
   63MOL   H32124005   4.808   2.446   0.141 -0.2708  1.0823  1.8106
   63MOL   H32224006   4.899   2.369   7.717  1.0330 -2.1765  0.0846
   63MOL   H32324007   5.071   2.376   7.765 -0.9165  0.1309 -2.2944
   63MOL   H32424008   4.958   2.252   0.037 -0.4008 -1.3935 -2.7060
   63MOL   C32524009   5.204   2.518   0.612 -0.1816  0.1286  0.5858
   63MOL   C32624010   5.320   2.614   0.570 -0.3746 -0.4397 -0.2107
   63MOL   C32724011   5.424   2.601   0.682 -0.0699 -0.1700 -0.0092
   63MOL   C32824012   5.544   2.694   0.653 -0.4473  0.4751  1.0035
   63MOL   C32924013   5.663   2.674   0.740  0.2748 -0.2512 -0.0657
   63MOL   C33024014   5.768   2.778   0.697 -0.2811 -0.1930 -0.8552
   63MOL   O33124015   5.282   2.746   0.540  0.3297  0.2152  0.4569
   63MOL   H33224016   5.241   2.436   0.672  1.8572 -0.4232 -1.3434
   63MOL   H33324017   5.134   2.574   0.673 -0.4986 -0.9687  1.2402
   63MOL   H33424018   5.366   2.574   0.480  0.4070  1.1391 -0.5281
   63MOL   H33524019   5.375   2.610   0.780  0.9150 -1.7793  0.6480
   63MOL   H33624020   5.463   2.500   0.695  1.0224  0.1567 -0.6940
   63MOL   H33724021   5.569   2.669   0.550 -0.1692  1.5253  0.8065
   63MOL   H33824022   5.513   2.799   0.657 -1.2241  0.2480  1.1338
   63MOL   H33924023   5.631   2.679   0.844  1.0823 -0.9169  0.2228
   63MOL   H34024024   5.706   2.574   0.729  1.0398  0.2001 -1.3816
   63MOL   H34124025   5.742   2.874   0.652  1.1644  0.7886  0.3971
   63MOL   H34224026   5.827   2.792   0.787 -3.4422 -1.2942  1.4815
   63MOL   H34324027   5.844   2.733   0.633 -0.6076  0.4835 -1.7384
   63MOL   C34424028   5.162   2.756   0.452 -0.0237 -0.2709  0.0690
   63MOL   C34524029   5.171   2.884   0.365 -0.0727 -0.1872 -0.4676
   63MOL   C34624030   5.070   2.894   0.257  0.3076  0.5605 -0.3764
   63MOL   C34724031   5.078   3.026   0.177  0.3743  0.8094 -0.4195
   63MOL   C34824032   5.018   3.019   0.030  0.8187 -1.1253  0.1873
   63MOL   C34924033   5.035   3.159   7.753  0.3086 -0.2092  0.1149
   63MOL   O35024034   5.142   3.001   0.446 -0.5622 -0.0565  0.6521
   63MOL   H35124035   5.062   2.748   0.494 -0.2460  2.3944  0.1493
   63MOL   H35224036   5.166   2.677   0.378 -2.5729  1.0799 -1.5669
   63MOL   H35324037   5.271   2.889   0.322  1.2535  1.2240  2.5697
   63MOL   H35424038   4.967   2.887   0.292  0.2591 -1.6021 -0.9120
   63MOL   H35524039   5.080   2.811   0.188  0.7603  0.3694 -0.0821
   63MOL   H35624040   5.184   3.048   0.183 -0.0595  2.7342  0.7030
   63MOL   H35724041   5.036   3.113   0.229  1.4173  1.1409 -0.1293
   63MOL   H35824042   4.911   2.996   0.039  0.9046 -2.0353 -1.0690
   63MOL   H35924043   5.063   2.936   7.762 -0.3001 -0.7623 -1.3330
   63MOL   H36024044   4.975   3.243   0.001  0.8450  0.2167  0.0143
   63MOL   H36124045   5.039   3.157   7.644  0.6181  3.2734  0.0135
   63MOL   H36224046   5.127   3.197   0.010  0.5416 -1.1029  0.4349
   63MOL   C36324047   5.245   3.045   0.538 -1.1937 -0.0266 -0.6461
   63MOL   C36424048   5.225   3.197   0.555  0.4784  0.4213  0.2192
   63MOL   C36524049   5.265   3.275   0.426 -0.4153 -0.0621  0.3049
   63MOL   C36624050   5.420   3.273   0.394  0.1420  0.5917  0.3428
   63MOL   C36724051   5.464   3.378   0.289  0.1630 -0.7538 -0.6435
   63MOL   C36824052   5.616   3.373   0.277 -0.6334  0.1856 -0.1819
   63MOL   O36924053   5.088   3.208   0.589 -0.2099 -0.3866  0.2621
   63MOL   H37024054   5.340   3.015   0.494  0.4252  3.1442  0.4557
   63MOL   H37124055   5.238   2.996   0.635 -0.0012 -0.3562 -0.7189
   63MOL   H37224056   5.272   3.238   0.644  3.3951 -2.1661 -0.0183
   63MOL   H37324057   5.206   3.241   0.341  0.8920 -2.1961  0.2098
   63MOL   H37424058   5.246   3.381   0.443 -0.8509 -0.3381  1.5960
   63MOL   H37524059   5.471   3.295   0.488 -0.7265  0.5039  0.8508
   63MOL   H37624060   5.446   3.172   0.366  0.6736  0.8107  0.0492
   63MOL   H37724061   5.403   3.373   0.199  0.2833  1.4655 -0.8622
   63MOL   H37824062   5.436   3.479   0.319  1.0645 -0.2917 -1.3278
   63MOL   H37924063   5.633   3.272   0.238  0.8271 -0.3992  1.8459
   63MOL   H38024064   5.665   3.449   0.217  0.9222 -0.6066  0.0361
   63MOL   H38124065   5.665   3.393   0.373 -3.4804 -0.7007  1.4969
   63MOL   H38224066   5.043   3.141   0.540 -2.1052  1.4623 -0.6045
   64MOL     C124067   3.237   3.070   3.527 -0.4462  0.3714 -0.1543
   64MOL     C224068   3.089   3.120   3.523  0.1435  0.4143 -0.5079
   64MOL     C324069   3.068   3.243   3.437  0.0983  0.0533  0.8037
   64MOL     C424070   2.929   3.290   3.441  0.6539  0.1739  0.3320
   64MOL     C524071   2.912   3.427   3.377  0.6127  0.3582 -0.2204
   64MOL     C624072   2.956   3.545   3.466 -0.3328 -0.0088  0.0532
   64MOL     O724073   3.011   3.015   3.463 -0.0236 -0.0066 -0.4265
   64MOL     H824074   3.304   3.152   3.552 -0.7132 -0.1226  2.3460
   64MOL     H924075   3.270   3.032   3.430 -0.9537  2.1742 -1.0428
   64MOL    H1024076   3.057   3.133   3.626  0.8732 -0.6065 -0.1471
   64MOL    H1124077   3.124   3.320   3.488  0.2122  0.0264  0.7187
   64MOL    H1224078   3.089   3.222   3.332 -0.7318 -0.8707  0.8060
   64MOL    H1324079   2.867   3.232   3.373  0.1614 -0.2982  1.1770
   64MOL    H1424080   2.892   3.289   3.543  2.2162  0.8881  0.9098
   64MOL    H1524081   2.965   3.429   3.281  1.3558 -1.2809  0.1396
   64MOL    H1624082   2.806   3.446   3.358  0.8638  2.4759  0.3812
   64MOL    H1724083   3.064   3.543   3.478 -0.3751  0.0345  0.4335
   64MOL    H1824084   2.927   3.640   3.420  0.8600  0.4845  0.2795
   64MOL    H1924085   2.917   3.545   3.568 -0.3853 -0.8843  0.0332
   64MOL    H2024086   3.249   2.994   3.605  0.6045 -0.7174 -1.3432
   64MOL    C2124087   2.907   2.973   3.540  0.8609  0.2383  0.3259
   64MOL    C2224088   2.814   2.890   3.444 -0.0501  0.6518 -0.0830
   64MOL    C2324089   2.694   2.847   3.531 -1.0582  0.2713  0.2440
   64MOL    C2424090   2.595   2.747   3.466  0.1121  0.2778 -0.2088
   64MOL    C2524091   2.466   2.727   3.550  0.2509 -0.3530 -0.4090
   64MOL    C2624092   2.391   2.592   3.522  0.0983 -0.2593  0.5028
   64MOL    O2724093   2.774   2.961   3.324 -0.0364  0.3494  0.2163
   64MOL    H2824094   2.936   2.920   3.631  1.0341 -0.6480 -0.2437
   64MOL    H2924095   2.855   3.059   3.583  2.0117  0.2854  1.6604
   64MOL    H3024096   2.862   2.796   3.418 -0.0594  0.2425  1.3087
   64MOL    H3124097   2.644   2.933   3.575 -0.0199  0.8062  0.4013
   64MOL    H3224098   2.731   2.807   3.625  0.1950  2.4297  0.7029
   64MOL    H3324099   2.665   2.666   3.447  1.2930  1.0360  0.8669
   64MOL    H3424100   2.570   2.780   3.365  1.5652 -0.5319 -0.8348
   64MOL    H3524101   2.489   2.732   3.656 -1.4930 -0.5798  0.0023
   64MOL    H3624102   2.417   2.820   3.521 -1.2423 -1.3093 -1.0310
   64MOL    H3724103   2.295   2.570   3.569 -0.4143  2.0591  0.6012
   64MOL    H3824104   2.466   2.515   3.535  0.2980 -0.0936  0.3381
   64MOL    H3924105   2.383   2.595   3.413 -1.6862 -0.2486  0.6061
   64MOL    C4024106   2.864   2.936   3.212  0.1068  0.1119  0.5989
   64MOL    C4124107   2.843   3.034   3.094  0.1638  0.5406  0.3856
   64MOL    C4224108   2.740   2.979   2.985  0.3075 -0.6153  0.3996
   64MOL    C4324109   2.700   3.082   2.878  0.1284  0.5474 -0.4344
   64MOL    C4424110   2.618   3.019   2.757 -0.1704 -0.3772 -0.1149
   64MOL    C4524111   2.558   3.124   2.674 -0.3871  1.0603  0.7369
   64MOL    O4624112   2.966   3.047   3.016 -0.2456  0.5530 -0.2963
   64MOL    H4724113   2.881   2.833   3.178  0.3870 -0.4397  2.3510
   64MOL    H4824114   2.968   2.952   3.239  0.8405 -1.6508 -0.9821
   64MOL    H4924115   2.815   3.128   3.140 -2.3367 -0.9342  2.0543
   64MOL    H5024116   2.773   2.885   2.941 -0.6927 -0.7500 -0.0773
   64MOL    H5124117   2.647   2.960   3.039  0.4204 -1.0830  0.4260
   64MOL    H5224118   2.784   3.139   2.837 -0.4987  1.2099 -0.8313
   64MOL    H5324119   2.626   3.146   2.927 -1.1512 -0.4490 -1.0317
   64MOL    H5424120   2.687   2.961   2.696 -1.4255  0.1550 -2.0987
   64MOL    H5524121   2.545   2.956   2.807 -0.0334 -1.4480 -1.2456
   64MOL    H5624122   2.491   3.186   2.734 -0.0258  3.9665 -1.7708
   64MOL    H5724123   2.638   3.176   2.622  0.4430 -0.5234  0.4105
   64MOL    H5824124   2.489   3.081   2.602  0.1878 -0.0680  0.8510
   64MOL    C5924125   3.015   3.174   3.019 -0.8065  0.2839  0.1065
   64MOL    C6024126   3.132   3.187   2.920 -0.4469  0.2889  0.0965
   64MOL    C6124127   3.235   3.062   2.934  0.5701  0.5754 -0.8237
   64MOL    C6224128   3.361   3.076   2.848  0.3440  0.2594 -0.3709
   64MOL    C6324129   3.440   2.941   2.852  0.0417 -0.3298 -0.1974
   64MOL    C6424130   3.569   2.928   2.760 -0.1337 -0.5790 -0.0589
   64MOL    O6524131   3.094   3.199   2.784 -0.0891  0.1646 -0.1113
   64MOL    H6624132   3.048   3.197   3.121  2.3526 -2.7331 -0.1175
   64MOL    H6724133   2.947   3.257   3.000 -1.9748 -0.2237  1.9586
   64MOL    H6824134   3.177   3.282   2.950 -0.3479 -0.0674  1.0770
   64MOL    H6924135   3.184   2.969   2.908  0.9158  0.5747 -1.4986
   64MOL    H7024136   3.260   3.039   3.038  0.8387 -0.8148 -1.1933
   64MOL    H7124137   3.429   3.149   2.890  0.9534  0.5629 -1.8504
   64MOL    H7224138   3.337   3.098   2.744 -2.3274  0.1780  0.1935
   64MOL    H7324139   3.374   2.864   2.811  0.2024  0.5278 -2.1385
   64MOL    H7424140   3.467   2.908   2.952 -0.1509  1.4330  0.4440
   64MOL    H7524141   3.538   2.952   2.658 -2.6874  0.7186  0.9851
   64MOL    H7624142   3.652   2.993   2.787  0.2361  0.2170 -2.9497
   64MOL    H7724143   3.626   2.835   2.757 -0.2699 -0.6314 -1.5763
   64MOL    C7824144   3.108   3.332   2.722  0.0621  0.0060 -0.8928
   64MOL    C7924145   3.057   3.337   2.575  0.1550  0.6289 -0.2626
   64MOL    C8024146   3.151   3.267   2.475 -0.3692 -0.6931 -0.2428
   64MOL    C8124147   3.083   3.233   2.344  0.1599  0.4641  0.2764
   64MOL    C8224148   3.167   3.137   2.248 -0.8678  0.0286 -0.2603
   64MOL    C8324149   3.076   3.044   2.185  0.1818  0.4856  0.2797
   64MOL    O8424150   3.025   3.467   2.523 -0.0362  0.5884  0.0990
   64MOL    H8524151   3.206   3.375   2.744 -0.2806  0.1303  0.4278
   64MOL    H8624152   3.043   3.398   2.779  0.9139 -1.3414  1.7272
   64MOL    H8724153   2.964   3.281   2.582  0.1979  0.4336 -1.1351
   64MOL    H8824154   3.227   3.343   2.457  0.7559 -1.6053  0.6609
   64MOL    H8924155   3.199   3.176   2.509 -1.5378 -0.2709  2.6566
   64MOL    H9024156   3.055   3.320   2.286  0.7987  2.2313  2.5266
   64MOL    H9124157   2.990   3.185   2.373  0.6420 -0.5901  0.1341
   64MOL    H9224158   3.225   3.203   2.183 -1.6125  0.1997 -0.7617
   64MOL    H9324159   3.244   3.081   2.300 -2.1496 -0.2178  1.4147
   64MOL    H9424160   2.994   3.090   2.130 -0.1477 -1.3376 -0.8228
   64MOL    H9524161   3.029   2.987   2.264 -0.0268  1.1927  0.6692
   64MOL    H9624162   3.136   2.979   2.121 -0.3488 -0.6729  0.9414
   64MOL    C9724163   2.903   3.534   2.569 -0.5728  0.5719  0.1770
   64MOL    C9824164   2.772   3.477   2.508 -0.2526  0.3532 -0.5343
   64MOL    C9924165   2.641   3.496   2.587  0.1209 -0.4971 -0.5873
   64MOL   C10024166   2.595   3.647   2.618  0.0361  0.6607  0.7662
   64MOL   C10124167   2.691   3.751   2.680  0.0326  0.8151 -0.2082
   64MOL   C10224168   2.623   3.869   2.743  0.0971 -0.2149  0.2388
   64MOL   O10324169   2.749   3.532   2.379 -0.0586 -0.0448  0.3011
   64MOL   H10424170   2.911   3.641   2.550 -1.8554  0.3400 -1.8600
   64MOL   H10524171   2.899   3.529   2.678  0.1542 -0.1165  0.1726
   64MOL   H10624172   2.786   3.372   2.481  1.0556  0.7043 -1.3094
   64MOL   H10724173   2.648   3.448   2.684 -1.2619 -0.8799 -0.6701
   64MOL   H10824174   2.562   3.445   2.532 -0.6868  1.8107 -1.6696
   64MOL   H10924175   2.498   3.653   2.667  1.1164 -2.0306  3.4221
   64MOL   H11024176   2.574   3.688   2.519 -0.9672 -0.7773  0.3627
   64MOL   H11124177   2.768   3.782   2.610  2.9883 -2.4151  1.4862
   64MOL   H11224178   2.749   3.712   2.763 -0.8370  2.1755  1.0521
   64MOL   H11324179   2.689   3.921   2.813  0.4226  0.2938 -0.4384
   64MOL   H11424180   2.572   3.929   2.667  0.5316 -1.7837 -1.3318
   64MOL   H11524181   2.542   3.842   2.810 -0.1803  1.7707  0.7225
   64MOL   C11624182   2.841   3.530   2.269  0.5986 -0.0130  0.0314
   64MOL   C11724183   2.789   3.631   2.155 -0.0891  0.1947  0.3368
   64MOL   C11824184   2.822   3.579   2.014  0.2104 -0.0112 -0.4479
   64MOL   C11924185   2.767   3.672   1.899  0.6900  0.4299 -0.4660
   64MOL   C12024186   2.780   3.606   1.760  0.0214 -0.0553  0.6999
   64MOL   C12124187   2.733   3.698   1.639  0.6584 -0.3045 -0.0074
   64MOL   O12224188   2.845   3.766   2.175 -0.2171  0.2640  0.2976
   64MOL   H12324189   2.935   3.575   2.300  0.6538  0.2127 -0.4639
   64MOL   H12424190   2.837   3.426   2.237 -1.1507  0.1399 -0.2772
   64MOL   H12524191   2.682   3.643   2.167  0.2519  2.0568  1.8004
   64MOL   H12624192   2.930   3.576   2.000  0.5160 -2.5119  2.0865
   64MOL   H12724193   2.777   3.480   2.000 -2.6390  1.1986 -0.0803
   64MOL   H12824194   2.830   3.760   1.894 -0.5900  1.4315  0.8014
   64MOL   H12924195   2.662   3.691   1.924  1.1187  1.9492  0.2054
   64MOL   H13024196   2.887   3.590   1.748 -0.5300 -1.6900 -2.4109
   64MOL   H13124197   2.735   3.507   1.757  0.0313 -0.0151 -2.1144
   64MOL   H13224198   2.734   3.646   1.544 -0.2262 -1.2392  0.4770
   64MOL   H13324199   2.639   3.754   1.648  1.6993  1.6770 -1.2925
   64MOL   H13424200   2.795   3.786   1.623  2.4177 -1.3312  1.0293
   64MOL   C13524201   2.842   3.820   2.299 -0.5250 -0.2314  0.0938
   64MOL   C13624202   2.830   3.972   2.303 -0.1955 -0.4186 -0.2588
   64MOL   C13724203   2.801   4.030   2.438  0.1499  0.2196  0.7278
   64MOL   C13824204   2.774   4.177   2.445 -0.3384 -0.0806 -0.1540
   64MOL   C13924205   2.758   4.232   2.585 -0.3265  0.7051 -0.4772
   64MOL   C14024206   2.764   4.384   2.604 -0.2353  0.1066 -0.1931
   64MOL   O14124207   2.710   4.006   2.234 -0.1385  0.2619  0.3576
   64MOL   H14224208   2.745   3.787   2.336 -1.0479  0.2927 -0.7705
   64MOL   H14324209   2.914   3.771   2.364  0.7747  0.6512 -0.6413
   64MOL   H14424210   2.918   4.019   2.259  0.1647 -0.6982  0.1627
   64MOL   H14524211   2.731   3.955   2.476  0.3856 -0.3778  0.0211
   64MOL   H14624212   2.899   4.010   2.483  0.2451 -2.0417 -0.3650
   64MOL   H14724213   2.682   4.198   2.391  0.7665 -0.0459 -2.0645
   64MOL   H14824214   2.857   4.231   2.400  0.0197 -2.4506 -2.4225
   64MOL   H14924215   2.822   4.175   2.653 -0.2154  1.0053 -0.3320
   64MOL   H15024216   2.661   4.189   2.610 -1.2662  1.6590 -2.4152
   64MOL   H15124217   2.866   4.417   2.582 -0.8324  2.6405  0.7774
   64MOL   H15224218   2.691   4.445   2.550 -1.2546  0.5404  1.6477
   64MOL   H15324219   2.748   4.409   2.708  0.8130  0.2633 -0.0665
   64MOL   C15424220   2.731   4.023   2.095  0.3871  0.4308  0.2737
   64MOL   C15524221   2.629   4.121   2.038  0.0953 -0.0728  0.2080
   64MOL   C15624222   2.678   4.166   1.899  0.2857  0.5332  0.4958
   64MOL   C15724223   2.595   4.283   1.848  0.4055 -0.8069 -0.2777
   64MOL   C15824224   2.647   4.421   1.899 -0.3725  0.1424  0.7134
   64MOL   C15924225   2.552   4.533   1.848  0.3891 -0.0566 -0.2505
   64MOL   O16024226   2.503   4.058   2.025  0.1590  0.6951 -0.6193
   64MOL   H16124227   2.733   3.926   2.047  2.6556 -0.5367  2.2364
   64MOL   H16224228   2.835   4.053   2.084  0.9477 -1.3659  0.6572
   64MOL   H16324229   2.611   4.216   2.089  0.8384  0.1235  0.1091
   64MOL   H16424230   2.667   4.086   1.826 -0.5785  2.3935 -1.4255
   64MOL   H16524231   2.782   4.197   1.911  0.4480  0.4691 -0.7077
   64MOL   H16624232   2.489   4.274   1.876  0.6761 -3.2833  0.0386
   64MOL   H16724233   2.603   4.306   1.742  2.5210 -1.6217 -0.3034
   64MOL   H16824234   2.650   4.431   2.008  0.8604  0.9876  0.6123
   64MOL   H16924235   2.745   4.448   1.859 -0.9299 -1.6078 -1.9858
   64MOL   H17024236   2.538   4.536   1.740 -1.5520  1.1707  0.0060
   64MOL   H17124237   2.594   4.632   1.869 -5.0232  2.1294  1.2983
   64MOL   H17224238   2.461   4.545   1.906 -0.8202  0.6566 -2.2381
   64MOL   C17324239   2.423   4.020   2.143  0.3323  0.1678 -0.2121
   64MOL   C17424240   2.393   3.871   2.140 -0.5282  0.3900 -0.3947
   64MOL   C17524241   2.325   3.840   2.277  0.4451 -0.9445 -0.3960
   64MOL   C17624242   2.284   3.696   2.309 -0.2067  0.0905  0.0111
   64MOL   C17724243   2.208   3.678   2.444 -0.2097  0.1481 -0.7902
   64MOL   C17824244   2.230   3.538   2.488 -0.1783  0.9414 -0.8603
   64MOL   O17924245   2.311   3.838   2.023 -0.4281  0.1426 -0.2849
   64MOL   H18024246   2.332   4.079   2.155  0.6690  0.8695 -1.0401
   64MOL   H18124247   2.488   4.046   2.226 -0.1203 -0.3106  0.2887
   64MOL   H18224248   2.483   3.809   2.141  0.1366  1.3312 -1.1741
   64MOL   H18324249   2.377   3.885   2.361  0.0668 -2.2318  0.5505
   64MOL   H18424250   2.230   3.890   2.257  0.7841 -1.5090 -3.8002
   64MOL   H18524251   2.220   3.660   2.229  0.8705 -3.1647  0.5564
   64MOL   H18624252   2.376   3.637   2.306  0.7046  1.5054 -0.5446
   64MOL   H18724253   2.231   3.751   2.522 -0.6811 -1.6086  1.0497
   64MOL   H18824254   2.104   3.694   2.419 -0.4631  0.0491  0.1770
   64MOL   H18924255   2.197   3.474   2.406  2.3406 -0.1004 -1.1040
   64MOL   H19024256   2.163   3.509   2.569  1.4259  0.3158  0.2631
   64MOL   H19124257   2.330   3.506   2.514 -0.2634  2.5988  1.6436
   64MOL   C19224258   2.389   3.803   1.911  0.3801  0.5829 -0.0801
   64MOL   C19324259   2.285   3.784   1.797 -0.6254  0.0122 -0.5141
   64MOL   C19424260   2.321   3.680   1.690  0.4762  0.1017 -0.0460
   64MOL   C19524261   2.211   3.641   1.592  0.0934  0.1752 -0.2236
   64MOL   C19624262   2.112   3.554   1.672  0.2659 -0.4839 -0.1881
   64MOL   C19724263   2.010   3.488   1.576  0.3325  0.4975 -0.6663
   64MOL   O19824264   2.264   3.906   1.728 -0.1433  0.5324 -0.5110
   64MOL   H19924265   2.454   3.881   1.870 -1.6119  2.2770 -0.1273
   64MOL   H20024266   2.434   3.707   1.935 -0.6342 -0.0934 -0.8015
   64MOL   H20124267   2.189   3.765   1.844  0.2849  0.8672  1.7322
   64MOL   H20224268   2.409   3.717   1.636  0.7401  0.0094  0.3178
   64MOL   H20324269   2.341   3.586   1.743 -1.1449 -0.9327 -1.2156
   64MOL   H20424270   2.244   3.566   1.520  3.5447 -0.7465  2.2238
   64MOL   H20524271   2.167   3.725   1.538 -0.4703 -0.7188 -1.1870
   64MOL   H20624272   2.165   3.473   1.722 -2.2313 -2.2285 -0.2574
   64MOL   H20724273   2.057   3.613   1.746  0.0232 -0.0790 -0.6881
   64MOL   H20824274   1.945   3.414   1.624  0.2028  0.0264 -1.5486
   64MOL   H20924275   1.947   3.565   1.530  0.6572  0.1795 -1.6665
   64MOL   H21024276   2.065   3.429   1.502 -0.4169  0.3910 -1.1538
   64MOL   C21124277   2.171   3.995   1.789  0.5074  0.4721 -0.3927
   64MOL   C21224278   2.209   4.143   1.757  0.2963 -0.0919  0.5870
   64MOL   C21324279   2.142   4.247   1.858 -0.2592 -0.6255 -0.3960
   64MOL   C21424280   2.177   4.398   1.824 -0.1050  0.4089  0.1464
   64MOL   C21524281   2.083   4.500   1.891 -0.3941 -0.6522 -0.1841
   64MOL   C21624282   2.080   4.492   2.043  0.4985 -0.0995 -0.8238
   64MOL   O21724283   2.176   4.191   1.622 -0.3554  0.2597 -0.4960
   64MOL   H21824284   2.188   3.979   1.895 -1.5266 -0.4675 -0.1889
   64MOL   H21924285   2.064   3.976   1.781  0.5483 -0.9306  1.9967
   64MOL   H22024286   2.317   4.148   1.765  0.2919  0.3556  0.4230
   64MOL   H22124287   2.034   4.233   1.854 -0.0683 -2.2676 -0.1035
   64MOL   H22224288   2.165   4.228   1.962  2.2178 -3.7551 -1.4363
   64MOL   H22324289   2.281   4.418   1.851  0.1881 -0.5279 -0.2548
   64MOL   H22424290   2.184   4.417   1.717  2.9454  2.6508  0.6679
   64MOL   H22524291   2.103   4.601   1.856  0.8810 -0.3055  1.4779
   64MOL   H22624292   1.982   4.489   1.852  0.0735 -1.8921 -1.0917
   64MOL   H22724293   2.054   4.394   2.083  1.9817 -0.1963 -0.0469
   64MOL   H22824294   2.005   4.558   2.087  1.1084 -0.3103  0.5492
   64MOL   H22924295   2.178   4.522   2.079 -0.2179  1.4980 -0.1469
   64MOL   C23024296   2.198   4.097   1.515 -0.3750  0.5160 -0.6141
   64MOL   C23124297   2.169   4.155   1.377  0.0405 -0.2254  0.5924
   64MOL   C23224298   2.173   4.044   1.266 -0.3735  0.5854  0.3689
   64MOL   C23324299   2.184   4.108   1.119  0.2483  0.0281 -0.2540
   64MOL   C23424300   2.174   4.012   1.001  0.1111 -0.1154  0.4430
   64MOL   C23524301   2.162   4.100   0.872 -0.3531 -0.2524 -0.0559
   64MOL   O23624302   2.286   4.241   1.348 -0.1098  0.0968  0.3949
   64MOL   H23724303   2.300   4.060   1.519 -0.9452 -0.9477  2.6045
   64MOL   H23824304   2.126   4.017   1.533  0.5782  0.0344  1.2034
   64MOL   H23924305   2.075   4.209   1.367  0.5019  0.3067 -1.0354
   64MOL   H24024306   2.083   3.984   1.268 -0.4255  0.5771 -1.1888
   64MOL   H24124307   2.250   3.969   1.283 -0.6889  0.5136  1.4615
   64MOL   H24224308   2.280   4.160   1.114  0.1712  0.0990 -1.1298
   64MOL   H24324309   2.102   4.179   1.104  2.5564  2.7366 -0.4771
   64MOL   H24424310   2.260   3.946   0.995 -0.5723 -0.9890  0.2947
   64MOL   H24524311   2.075   3.967   1.002  0.2708 -0.4619  1.0017
   64MOL   H24624312   2.161   4.040   0.781 -3.3273  1.5584 -1.2803
   64MOL   H24724313   2.245   4.171   0.868 -2.3335  2.1480  0.4317
   64MOL   H24824314   2.075   4.164   0.864  1.2165  1.7915 -1.5004
   64MOL   C24924315   2.287   4.373   1.391 -0.1795  0.6970  0.0769
   64MOL   C25024316   2.429   4.422   1.406 -0.1552  0.7957  0.0044
   64MOL   C25124317   2.434   4.547   1.496 -0.4235 -0.3099 -0.5055
   64MOL   C25224318   2.372   4.672   1.432  0.2037 -1.0438 -0.2067
   64MOL   C25324319   2.364   4.777   1.541 -0.3616  0.7257  0.2695
   64MOL   C25424320   2.250   4.745   1.652  0.3720 -0.3384 -0.3342
   64MOL   O25524321   2.472   4.456   1.276 -0.1628 -0.3542 -0.5423
   64MOL   H25624322   2.218   4.428   1.327 -1.0659  0.3627  0.7408
   64MOL   H25724323   2.239   4.373   1.490 -0.7018  0.8741 -0.1730
   64MOL   H25824324   2.486   4.347   1.461 -0.1070  0.1978 -0.8364
   64MOL   H25924325   2.389   4.513   1.589 -0.6394  0.3677 -0.3564
   64MOL   H26024326   2.535   4.578   1.525 -1.2128  0.9553  0.9704
   64MOL   H26124327   2.441   4.697   1.351 -1.0429  3.1474 -0.1241
   64MOL   H26224328   2.276   4.650   1.387 -0.4085  1.0158  0.0147
   64MOL   H26324329   2.454   4.785   1.603 -1.4524 -0.7388  2.1154
   64MOL   H26424330   2.352   4.871   1.488  0.4596 -0.1998 -1.6338
   64MOL   H26524331   2.252   4.825   1.726  1.7850 -0.9604  0.3308
   64MOL   H26624332   2.257   4.651   1.707  1.8483 -1.1026 -1.7654
   64MOL   H26724333   2.152   4.746   1.606 -0.2626 -0.1697  1.0155
   64MOL   C26824334   2.615   4.442   1.258 -0.1952  0.2494  0.2935
   64MOL   C26924335   2.641   4.294   1.228 -0.0775  0.0721  0.2629
   64MOL   C27024336   2.774   4.235   1.287  0.3897  0.1878  0.2678
   64MOL   C27124337   2.768   4.083   1.291 -0.3709  0.4418  0.6934
   64MOL   C27224338   2.649   4.023   1.364  0.5518  0.5194  0.0960
   64MOL   C27324339   2.641   4.075   1.506 -0.0831  0.3303  0.6980
   64MOL   O27424340   2.655   4.272   1.095  0.2419  0.0875  0.2321
   64MOL   H27524341   2.662   4.479   1.349 -2.5637 -1.5463  2.2954
   64MOL   H27624342   2.648   4.506   1.176 -1.4475  0.2827 -0.1985
   64MOL   H27724343   2.553   4.237   1.259 -0.5985  0.8927  0.3056
   64MOL   H27824344   2.857   4.268   1.223  0.8060 -2.5075 -0.6587
   64MOL   H27924345   2.791   4.279   1.385  1.6098  0.6744 -0.1478
   64MOL   H28024346   2.759   4.043   1.190  2.2502  0.1380  0.5456
   64MOL   H28124347   2.857   4.038   1.335 -0.0938 -0.5039 -0.8252
   64MOL   H28224348   2.558   4.044   1.308  0.7600  0.6358 -0.1988
   64MOL   H28324349   2.667   3.916   1.369  0.4535  0.5288  0.7883
   64MOL   H28424350   2.629   4.183   1.510  0.0543  0.3785 -0.2836
   64MOL   H28524351   2.552   4.031   1.551 -0.1706 -0.5031 -0.2763
   64MOL   H28624352   2.721   4.044   1.573 -0.7490  0.7599  1.7055
   64MOL   C28724353   2.545   4.302   1.008  0.2024 -0.0109  0.1967
   64MOL   C28824354   2.557   4.265   0.859 -0.8680 -0.2725 -0.0517
   64MOL   C28924355   2.469   4.352   0.775  0.1057  0.5139 -0.2826
   64MOL   C29024356   2.524   4.343   0.634  0.7769 -0.3359 -0.1553
   64MOL   C29124357   2.416   4.394   0.539 -0.6071 -0.0165 -0.1005
   64MOL   C29224358   2.452   4.402   0.391 -0.5111  0.1217  0.5984
   64MOL   O29324359   2.512   4.134   0.833 -0.2956 -0.0799 -0.3202
   64MOL   H29424360   2.543   4.410   1.017  1.6520  0.0853 -0.5402
   64MOL   H29524361   2.454   4.261   1.052  2.2533 -4.1370  0.8392
   64MOL   H29624362   2.661   4.274   0.828 -0.4288 -2.1281  0.7974
   64MOL   H29724363   2.362   4.330   0.774  0.1030  0.2037  2.6188
   64MOL   H29824364   2.467   4.454   0.814  0.5508  0.1862  0.5912
   64MOL   H29924365   2.613   4.405   0.634  0.3157  0.3332 -0.7740
   64MOL   H30024366   2.544   4.238   0.613  1.1217 -0.1232 -0.8884
   64MOL   H30124367   2.384   4.493   0.568 -0.6761 -0.3650  1.0270
   64MOL   H30224368   2.328   4.330   0.543 -1.2519  1.0241  3.6384
   64MOL   H30324369   2.481   4.305   0.352 -3.1637 -1.0357  1.4376
   64MOL   H30424370   2.363   4.439   0.341 -0.7533 -0.0727  0.8909
   64MOL   H30524371   2.529   4.476   0.367 -0.4633 -0.2807 -0.5133
   64MOL   C30624372   2.588   4.035   0.906  0.1756  0.2063 -0.1644
   64MOL   C30724373   2.533   3.900   0.861  0.3937 -0.4733  0.2109
   64MOL   C30824374   2.589   3.786   0.950  0.0163  0.3124  0.1216
   64MOL   C30924375   2.518   3.654   0.923  0.4093 -0.7117 -0.8947
   64MOL   C31024376   2.561   3.538   1.015 -0.0383 -0.4845  0.9104
   64MOL   C31124377   2.710   3.503   0.998  0.8049 -0.8300 -0.2342
   64MOL   O31224378   2.596   3.869   0.733  0.0437 -0.1990 -0.3942
   64MOL   H31324379   2.696   4.040   0.891  0.2932  2.8771  1.3230
   64MOL   H31424380   2.557   4.037   1.011  1.7778 -1.0754  0.3480
   64MOL   H31524381   2.426   3.894   0.841  0.9391 -2.8007 -2.2469
   64MOL   H31624382   2.573   3.799   1.057  0.6013  0.0236  0.2511
   64MOL   H31724383   2.695   3.774   0.928 -0.2545  0.1521 -1.1015
   64MOL   H31824384   2.411   3.669   0.938  0.2256 -3.0984  0.3237
   64MOL   H31924385   2.534   3.620   0.821 -0.1451 -1.1039 -0.8519
   64MOL   H32024386   2.492   3.455   1.002 -0.5024  0.1270 -0.7508
   64MOL   H32124387   2.558   3.578   1.116 -1.2379 -0.0057  0.7046
   64MOL   H32224388   2.765   3.579   1.055 -3.3905 -0.5919  3.8983
   64MOL   H32324389   2.719   3.411   1.056  1.1265 -1.2701 -0.9794
   64MOL   H32424390   2.743   3.477   0.898 -0.2473  0.7098 -1.0038
   64MOL   C32524391   2.499   3.877   0.629  0.0383 -0.0731  0.7761
   64MOL   C32624392   2.574   3.831   0.503  0.4155  0.6976  0.9031
   64MOL   C32724393   2.679   3.726   0.520 -0.6496 -0.0713 -1.7236
   64MOL   C32824394   2.711   3.642   0.393 -0.9025 -0.0171 -0.5676
   64MOL   C32924395   2.814   3.532   0.424 -0.5493 -0.0925  0.1475
   64MOL   C33024396   2.763   3.405   0.491  0.2400 -0.6108 -0.9758
   64MOL   O33124397   2.623   3.948   0.426  0.4909 -0.2016  0.7626
   64MOL   H33224398   2.443   3.970   0.618 -0.5481 -0.6125 -0.8728
   64MOL   H33324399   2.429   3.798   0.658  0.6764 -0.4899  1.2129
   64MOL   H33424400   2.497   3.776   0.450  0.6287  0.4246  0.8745
   64MOL   H33524401   2.768   3.754   0.576 -0.0530 -1.6287 -1.8550
   64MOL   H33624402   2.630   3.646   0.577  0.4442  0.1730 -0.3979
   64MOL   H33724403   2.621   3.600   0.349 -1.0278  1.8287 -2.0962
   64MOL   H33824404   2.754   3.706   0.317  1.5323 -1.1826 -0.2264
   64MOL   H33924405   2.868   3.509   0.333  0.6517 -1.4990  1.1964
   64MOL   H34024406   2.903   3.560   0.482 -1.3922  2.4612  0.2774
   64MOL   H34124407   2.830   3.320   0.504  1.4676  0.7673  2.1109
   64MOL   H34224408   2.711   3.421   0.585 -0.5358 -2.3666 -1.0698
   64MOL   H34324409   2.684   3.365   0.427 -0.0714 -1.6291  0.0283
   64MOL   C34424410   2.722   4.032   0.479 -0.3136  0.2508  0.2182
   64MOL   C34524411   2.751   4.158   0.394  0.3444  0.1403  0.0787
   64MOL   C34624412   2.845   4.251   0.479  0.7167  0.4664  0.0004
   64MOL   C34724413   2.865   4.394   0.437  0.1440  0.2349 -0.5160
   64MOL   C34824414   2.961   4.474   0.527  1.0670  0.0787  0.5023
   64MOL   C34924415   2.945   4.612   0.485 -0.6870 -0.6960  0.0188
   64MOL   O35024416   2.831   4.121   0.284  0.3732 -0.4846 -0.2341
   64MOL   H35124417   2.816   3.977   0.489 -0.3642  0.4668  2.1172
   64MOL   H35224418   2.683   4.074   0.572  2.1741 -0.2428  1.5319
   64MOL   H35324419   2.658   4.207   0.365  0.7308 -0.1618 -1.7226
   64MOL   H35424420   2.945   4.206   0.476 -0.1210 -1.3777 -0.5968
   64MOL   H35524421   2.814   4.259   0.583  3.6859  0.9139  0.9047
   64MOL   H35624422   2.769   4.447   0.443  0.8970  1.7938 -1.7443
   64MOL   H35724423   2.902   4.396   0.334 -3.8284  0.9902 -2.0450
   64MOL   H35824424   3.066   4.443   0.521  1.1390  0.0890  1.6583
   64MOL   H35924425   2.933   4.470   0.632 -2.3356  0.4668 -0.3282
   64MOL   H36024426   2.843   4.646   0.505 -0.3842  0.6280 -0.6507
   64MOL   H36124427   2.975   4.638   0.384 -0.9657  1.2371  0.3980
   64MOL   H36224428   3.008   4.676   0.548  0.3374 -0.8478 -0.8465
   64MOL   C36324429   2.758   4.082   0.170  0.4542  0.3745  0.1325
   64MOL   C36424430   2.851   4.078   0.040  0.8464  0.1265  0.4072
   64MOL   C36524431   2.969   3.985   0.073 -0.2143 -1.2448  0.5734
   64MOL   C36624432   3.067   3.965   7.746 -0.0991 -0.0706 -0.7474
   64MOL   C36724433   3.182   3.878   0.004 -1.1037  0.3838  0.5904
   64MOL   C36824434   3.257   3.831   7.667 -0.2456  0.5328 -0.2782
   64MOL   O36924435   2.777   4.038   7.709 -0.0928 -0.2139  0.3991
   64MOL   H37024436   2.666   4.137   0.153 -1.1240 -0.9930  3.7749
   64MOL   H37124437   2.716   3.983   0.188  1.4669 -0.4070 -1.5552
   64MOL   H37224438   2.884   4.180   0.023  0.6933  0.1493  0.2473
   64MOL   H37324439   3.030   4.021   0.156 -0.8932  0.8754  0.1849
   64MOL   H37424440   2.931   3.891   0.112 -0.2884 -0.4127  2.5613
   64MOL   H37524441   3.020   3.919   7.658  2.5143 -1.1603 -1.6410
   64MOL   H37624442   3.113   4.060   7.719 -0.0811  0.2842  0.5366
   64MOL   H37724443   3.253   3.931   0.068 -1.3664  0.1777  1.0515
   64MOL   H37824444   3.143   3.791   0.055 -0.3014  1.5198  3.2303
   64MOL   H37924445   3.295   3.916   7.610 -0.4127  1.0847  0.4288
   64MOL   H38024446   3.341   3.771   7.700  0.7810  1.7211 -0.6867
   64MOL   H38124447   3.197   3.775   7.595  1.2604 -2.3347  0.6469
   64MOL   H38224448   2.834   4.057   7.636  0.4479 -0.7462  0.6788
   65MOL     C124449   5.122   4.386   1.267 -0.0823  0.1797  0.0318
   65MOL     C224450   5.002   4.308   1.304  0.1537 -0.2671  0.4599
   65MOL     C324451   4.955   4.336   1.451 -0.0453  0.3799  0.4233
   65MOL     C424452   5.042   4.273   1.560  0.3440 -0.5460 -0.1235
   65MOL     C524453   5.022   4.344   1.696 -0.1976  0.1792  1.3477
   65MOL     C624454   5.140   4.314   1.790 -0.0414 -0.5826 -0.4046
   65MOL     O724455   4.908   4.358   1.211 -0.3992  0.0358 -0.1198
   65MOL     H824456   5.098   4.490   1.288 -0.5146  0.5309 -2.0739
   65MOL     H924457   5.144   4.393   1.161  0.1138 -0.2492  0.0428
   65MOL    H1024458   5.024   4.202   1.285 -0.2286  0.0871 -2.2319
   65MOL    H1124459   4.966   4.444   1.461  2.9134  0.1835 -0.1093
   65MOL    H1224460   4.851   4.322   1.477 -0.1752  0.6284  0.0491
   65MOL    H1324461   5.031   4.166   1.579  1.1845 -0.5045  0.6136
   65MOL    H1424462   5.148   4.283   1.537  0.2367 -0.0496 -0.3912
   65MOL    H1524463   5.027   4.452   1.679 -2.1049 -0.2297 -2.3573
   65MOL    H1624464   4.933   4.312   1.749 -0.5558  1.7388  1.7186
   65MOL    H1724465   5.227   4.369   1.754 -0.6098  2.4048  2.4886
   65MOL    H1824466   5.116   4.345   1.891 -2.3341 -3.1713 -0.0879
   65MOL    H1924467   5.150   4.205   1.788 -2.1562 -0.8300  1.2189
   65MOL    H2024468   5.213   4.359   1.321  1.0111  0.6636 -1.5437
   65MOL    C2124469   4.774   4.302   1.195  0.0966  0.4529  0.2305
   65MOL    C2224470   4.763   4.172   1.114  0.7258 -0.2684 -0.1503
   65MOL    C2324471   4.615   4.115   1.129  0.3236 -0.3213 -0.0837
   65MOL    C2424472   4.609   3.969   1.113 -0.6718  0.1334  0.2832
   65MOL    C2524473   4.474   3.896   1.131 -0.7439 -0.5592 -0.3079
   65MOL    C2624474   4.476   3.743   1.139  0.2564  0.1007 -0.1832
   65MOL    O2724475   4.785   4.185   0.977 -0.0300 -0.6395 -0.3909
   65MOL    H2824476   4.732   4.290   1.295 -2.1728 -2.9910 -1.0407
   65MOL    H2924477   4.715   4.371   1.134  3.2618  1.8053 -1.3916
   65MOL    H3024478   4.831   4.100   1.161  1.0412  1.0386  1.4719
   65MOL    H3124479   4.555   4.161   1.049  1.0179 -1.2880 -1.1728
   65MOL    H3224480   4.575   4.130   1.229  3.0129  0.7978  0.8543
   65MOL    H3324481   4.681   3.925   1.183  0.7601  1.4288 -0.3456
   65MOL    H3424482   4.634   3.950   1.008 -0.1664 -0.2032  0.4597
   65MOL    H3524483   4.422   3.934   1.219 -0.3361  1.2510 -0.8353
   65MOL    H3624484   4.415   3.923   1.044  0.5241  0.9506 -0.7302
   65MOL    H3724485   4.563   3.715   1.198  0.9324  0.3810 -1.0235
   65MOL    H3824486   4.497   3.704   1.039 -1.1815 -1.1416 -0.0348
   65MOL    H3924487   4.387   3.697   1.183 -0.2464 -0.4770 -1.7527
   65MOL    C4024488   4.909   4.244   0.944  0.0430  0.7136  0.1503
   65MOL    C4124489   4.946   4.222   0.802  0.1397 -0.0158 -0.2801
   65MOL    C4224490   5.097   4.279   0.781  0.5867  0.0774 -0.2723
   65MOL    C4324491   5.146   4.260   0.641  0.6021 -0.4749  0.2774
   65MOL    C4424492   5.295   4.284   0.617 -0.7862 -0.4255 -0.1083
   65MOL    C4524493   5.390   4.187   0.701  0.1479 -0.4513  0.1801
   65MOL    O4624494   4.868   4.309   0.727 -0.4361 -0.3249 -0.0320
   65MOL    H4724495   4.993   4.200   0.997 -0.2809 -0.7259 -0.5293
   65MOL    H4824496   4.918   4.351   0.963 -2.4491  0.8635  0.6752
   65MOL    H4924497   4.939   4.120   0.764 -1.3590 -0.4547  1.1256
   65MOL    H5024498   5.096   4.388   0.788  1.8982  0.1630 -1.2726
   65MOL    H5124499   5.172   4.248   0.853  2.2766 -0.1034 -2.0491
   65MOL    H5224500   5.087   4.323   0.574  2.2675 -0.2992 -1.0376
   65MOL    H5324501   5.139   4.159   0.600  0.2083  1.2068 -4.0428
   65MOL    H5424502   5.324   4.276   0.512  0.6139 -1.8633  0.3684
   65MOL    H5524503   5.322   4.386   0.643 -0.6313 -0.5937  0.3950
   65MOL    H5624504   5.353   4.084   0.702  0.2446 -0.5202 -1.9585
   65MOL    H5724505   5.485   4.179   0.648 -0.7911 -1.7153 -1.3386
   65MOL    H5824506   5.396   4.213   0.807 -0.0072 -0.0784  0.0967
   65MOL    C5924507   4.755   4.263   0.659  0.1940 -0.2304  0.1402
   65MOL    C6024508   4.705   4.366   0.562  0.9258  0.0838 -0.2407
   65MOL    C6124509   4.742   4.513   0.594 -0.6397 -0.2027 -0.1736
   65MOL    C6224510   4.675   4.615   0.489 -0.4538 -0.1962 -0.6317
   65MOL    C6324511   4.699   4.761   0.527 -0.2425  0.5225 -0.0731
   65MOL    C6424512   4.602   4.856   0.444  0.0324 -0.0296 -0.7663
   65MOL    O6524513   4.751   4.344   0.432 -0.5428  0.3962  0.2809
   65MOL    H6624514   4.673   4.240   0.727 -0.2369  1.9269  0.3922
   65MOL    H6724515   4.781   4.175   0.600 -0.7591  0.2793 -1.0395
   65MOL    H6824516   4.596   4.369   0.553  1.0808 -0.5679 -2.5114
   65MOL    H6924517   4.849   4.529   0.580 -0.6894 -0.0177 -0.3509
   65MOL    H7024518   4.709   4.543   0.693 -1.1998 -2.8914  0.4947
   65MOL    H7124519   4.567   4.601   0.491 -0.5190  0.3197 -0.5320
   65MOL    H7224520   4.716   4.601   0.389  1.2891 -2.2814  0.3395
   65MOL    H7324521   4.801   4.784   0.498  0.2291 -2.6363 -1.1622
   65MOL    H7424522   4.687   4.775   0.634 -2.7465 -1.5772 -0.0122
   65MOL    H7524523   4.634   4.857   0.340  0.6668  0.1497 -0.5700
   65MOL    H7624524   4.497   4.833   0.462 -0.0956  1.5389  0.5879
   65MOL    H7724525   4.617   4.962   0.461 -0.8678 -0.3200  2.1632
   65MOL    C7824526   4.704   4.248   0.348  0.0394  0.0809  0.2198
   65MOL    C7924527   4.823   4.206   0.256 -0.5476 -0.5504  0.0020
   65MOL    C8024528   4.956   4.196   0.325 -0.5652  0.6054  0.1148
   65MOL    C8124529   5.061   4.122   0.243 -1.2173  0.0282 -0.6858
   65MOL    C8224530   5.181   4.064   0.320  0.4552  0.1486  0.8271
   65MOL    C8324531   5.235   3.950   0.230  0.2219 -0.1408  0.0864
   65MOL    O8424532   4.834   4.303   0.152  0.0475 -0.0953  0.0277
   65MOL    H8524533   4.629   4.293   0.282 -1.4308 -0.9901  1.1257
   65MOL    H8624534   4.666   4.159   0.399  1.9724 -0.7545  0.2440
   65MOL    H8724535   4.800   4.110   0.211 -1.4376 -1.1214  1.6171
   65MOL    H8824536   4.985   4.299   0.348 -0.7825  0.9851 -1.3222
   65MOL    H8924537   4.951   4.146   0.422 -0.0090  2.2616  1.0192
   65MOL    H9024538   5.094   4.181   0.157 -0.8546  0.1971 -0.4314
   65MOL    H9124539   5.010   4.038   0.196  1.0437 -1.2629 -0.8870
   65MOL    H9224540   5.257   4.143   0.323  0.2079  0.6976 -3.7123
   65MOL    H9324541   5.139   4.040   0.418 -0.4186 -0.2797  0.3475
   65MOL    H9424542   5.234   3.976   0.125 -0.2224 -1.7276 -0.3097
   65MOL    H9524543   5.165   3.868   0.243  1.0428 -0.9292 -0.4772
   65MOL    H9624544   5.332   3.907   0.254  1.5992  2.7892  0.0522
   65MOL    C9724545   4.784   4.262   0.023 -0.0055  0.1391  0.5693
   65MOL    C9824546   4.825   4.372   7.709 -0.3165 -0.1558 -0.0870
   65MOL    C9924547   4.758   4.326   7.571 -0.5904  0.3793 -0.5352
   65MOL   C10024548   4.806   4.198   7.508  0.5063  0.0895 -0.0070
   65MOL   C10124549   4.758   4.171   7.364  0.3188 -0.5546 -0.1508
   65MOL   C10224550   4.793   4.029   7.311 -0.1764  0.1229  0.1475
   65MOL   O10324551   4.766   4.491   7.743 -0.1138 -0.5088  0.4353
   65MOL   H10424552   4.679   4.236   0.020 -0.0433 -0.0827  2.8319
   65MOL   H10524553   4.835   4.166   0.009 -0.5918 -0.0918 -0.0063
   65MOL   H10624554   4.930   4.396   7.691 -1.1065  1.1982 -3.3344
   65MOL   H10724555   4.762   4.410   7.501 -0.2154  0.5215 -0.3434
   65MOL   H10824556   4.651   4.318   7.591 -1.3203 -0.5992 -4.5006
   65MOL   H10924557   4.768   4.114   7.566 -0.2810  1.3375  1.3117
   65MOL   H11024558   4.915   4.193   7.511  0.4148 -2.3304  0.3289
   65MOL   H11124559   4.804   4.247   7.301 -0.8664 -0.2176 -0.6202
   65MOL   H11224560   4.651   4.187   7.352  0.3260  0.8035  1.3993
   65MOL   H11324561   4.723   3.956   7.351  0.8978 -2.0410 -1.7989
   65MOL   H11424562   4.786   4.035   7.203  0.0995 -0.4416  0.0928
   65MOL   H11524563   4.888   4.001   7.357  0.5576  1.3151 -0.6428
   65MOL   C11624564   4.835   4.584   0.047  0.1582  0.3111  0.8610
   65MOL   C11724565   4.744   4.712   0.054  0.8157  0.6508 -0.4820
   65MOL   C11824566   4.823   4.834   0.110  0.0636 -0.7636  0.7368
   65MOL   C11924567   4.752   4.974   0.094  0.1708 -0.1421  0.1879
   65MOL   C12024568   4.843   5.096   0.096  0.6050  0.7559  0.0831
   65MOL   C12124569   4.763   5.232   0.083  0.0050  0.1734 -0.5590
   65MOL   O12224570   4.635   4.687   0.144  0.3531  0.5317 -0.3940
   65MOL   H12324571   4.855   4.525   0.136 -2.0733 -0.4756  0.8734
   65MOL   H12424572   4.923   4.601   7.771 -0.0682  0.1912  0.4960
   65MOL   H12524573   4.711   4.744   7.740  0.5807  0.3590 -0.4966
   65MOL   H12624574   4.860   4.813   0.210 -1.6167 -2.7736  0.9561
   65MOL   H12724575   4.920   4.854   0.064 -0.1866  2.0254  1.3178
   65MOL   H12824576   4.672   4.992   0.167  0.5790  3.6782 -0.1694
   65MOL   H12924577   4.699   4.986   7.785  0.3882  0.3326  0.1260
   65MOL   H13024578   4.901   5.094   0.189  0.5007 -0.5299  0.1231
   65MOL   H13124579   4.905   5.106   0.007  0.2938  2.3588  0.0367
   65MOL   H13224580   4.824   5.322   0.089 -1.3910  1.0328  1.2526
   65MOL   H13324581   4.713   5.239   7.772 -3.7466  0.9860  1.3761
   65MOL   H13424582   4.678   5.247   0.149  0.0109 -0.5826 -0.3755
   65MOL   C13524583   4.552   4.584   0.122 -0.0085 -0.5169  0.6392
   65MOL   C13624584   4.424   4.585   0.204 -0.2173  0.2714  0.3899
   65MOL   C13724585   4.363   4.436   0.202  0.2098  0.4234 -0.3335
   65MOL   C13824586   4.224   4.420   0.265 -0.6639 -0.4877  0.1082
   65MOL   C13924587   4.161   4.283   0.274  0.7468 -0.2278  0.1184
   65MOL   C14024588   4.021   4.283   0.335 -0.0038  0.1609 -0.8704
   65MOL   O14124589   4.329   4.666   0.130  0.6264  0.1615  0.1991
   65MOL   H14224590   4.530   4.573   0.016  0.1541  0.0619  0.5483
   65MOL   H14324591   4.609   4.495   0.150  0.2531 -0.4397  0.3613
   65MOL   H14424592   4.431   4.633   0.301 -1.6308 -1.3696  1.3279
   65MOL   H14524593   4.366   4.398   0.100 -0.0385 -0.6947  0.0665
   65MOL   H14624594   4.424   4.361   0.253 -0.4725 -0.6749 -1.1134
   65MOL   H14724595   4.153   4.482   0.210 -0.0439 -0.9293 -1.2150
   65MOL   H14824596   4.248   4.462   0.363 -0.3879 -1.2642  0.3725
   65MOL   H14924597   4.216   4.212   0.334  0.7383 -0.0582  0.3304
   65MOL   H15024598   4.169   4.248   0.171 -1.3874 -0.0505 -0.1336
   65MOL   H15124599   3.985   4.181   0.336 -2.1026  0.8947  0.4123
   65MOL   H15224600   4.018   4.324   0.436 -2.7145 -0.1291 -0.8179
   65MOL   H15324601   3.953   4.341   0.272 -0.3934  0.1282 -0.4761
   65MOL   C15424602   4.347   4.808   0.111 -0.0224 -0.2737  0.0193
   65MOL   C15524603   4.236   4.871   0.025  0.3447  0.4007 -0.4401
   65MOL   C15624604   4.216   5.021   0.030  0.9299  0.8683  0.8210
   65MOL   C15724605   4.101   5.079   7.731 -0.0791  0.3124  0.4881
   65MOL   C15824606   4.073   5.235   7.759  0.1970  0.3276  0.6419
   65MOL   C15924607   3.961   5.295   7.665  0.1792 -0.0215  0.3720
   65MOL   O16024608   4.249   4.854   7.670 -0.4939 -0.3152  0.4648
   65MOL   H16124609   4.445   4.822   0.065  0.5345 -0.0719  1.2553
   65MOL   H16224610   4.353   4.846   0.213 -0.3553 -1.7721  0.6138
   65MOL   H16324611   4.138   4.834   0.055 -0.0680  2.5453  1.0049
   65MOL   H16424612   4.310   5.058   7.775  0.6757 -0.2433 -0.8032
   65MOL   H16524613   4.199   5.043   0.135  0.7304  1.2680  0.7036
   65MOL   H16624614   4.009   5.021   7.740 -0.4443  1.2489  3.5111
   65MOL   H16724615   4.137   5.067   7.629  0.7777  0.8583  0.7248
   65MOL   H16824616   4.043   5.260   0.076 -1.3693  1.5319 -0.1016
   65MOL   H16924617   4.164   5.292   7.742 -0.8865  1.5558 -1.1433
   65MOL   H17024618   3.930   5.398   7.683 -2.3686 -0.4592 -1.3525
   65MOL   H17124619   3.866   5.249   7.691  1.1452 -0.4972  3.2363
   65MOL   H17224620   3.984   5.283   7.559 -2.3803 -3.1770  0.1308
   65MOL   C17324621   4.226   4.722   7.626 -0.1253  0.7656  0.6543
   65MOL   C17424622   4.233   4.728   7.475 -0.4725 -0.6327  1.2972
   65MOL   C17524623   4.295   4.603   7.414 -0.0158 -0.1588 -0.1834
   65MOL   C17624624   4.205   4.478   7.426  0.2085  0.1003 -0.1202
   65MOL   C17724625   4.286   4.349   7.458  0.2632  0.1430  0.7563
   65MOL   C17824626   4.344   4.332   7.598 -0.0511 -0.1457 -0.3016
   65MOL   O17924627   4.107   4.750   7.413 -0.1779  0.0379 -0.0067
   65MOL   H18024628   4.129   4.682   7.658 -0.5716 -0.3861 -1.9728
   65MOL   H18124629   4.292   4.646   7.668  1.3421  1.2135 -0.8238
   65MOL   H18224630   4.296   4.809   7.438 -0.5190 -1.7707 -1.3259
   65MOL   H18324631   4.322   4.615   7.310  2.1789 -1.4948  0.2117
   65MOL   H18424632   4.395   4.596   7.458  0.4057 -0.5055 -1.1944
   65MOL   H18524633   4.124   4.491   7.498 -0.7663 -0.9538 -1.0111
   65MOL   H18624634   4.146   4.464   7.336 -0.3199 -0.0147  0.2388
   65MOL   H18724635   4.219   4.263   7.451 -0.9348  1.1517 -0.2402
   65MOL   H18824636   4.364   4.334   7.383 -0.8430 -2.6407  0.1004
   65MOL   H18924637   4.422   4.403   7.624  0.0198  0.1188 -1.2197
   65MOL   H19024638   4.384   4.232   7.613  3.9354  1.4515  0.4409
   65MOL   H19124639   4.271   4.351   7.677 -0.2869 -2.3363  0.0494
   65MOL   C19224640   4.040   4.862   7.454 -0.2931 -0.0351 -0.4858
   65MOL   C19324641   3.903   4.881   7.381 -0.6667 -0.3751  0.3809
   65MOL   C19424642   3.840   5.015   7.414  0.2382  0.0232 -0.7588
   65MOL   C19524643   3.692   5.024   7.363 -0.6946 -0.0356  0.4744
   65MOL   C19624644   3.616   5.162   7.371  0.2290  0.6804  0.8073
   65MOL   C19724645   3.659   5.259   7.258 -0.4146  0.1331 -0.1664
   65MOL   O19824646   3.817   4.773   7.422 -0.5329  0.1745 -0.0612
   65MOL   H19924647   4.026   4.859   7.561 -1.7705 -0.9489 -0.6984
   65MOL   H20024648   4.105   4.945   7.425  0.8538 -0.0037  2.1089
   65MOL   H20124649   3.925   4.886   7.275 -0.5072  2.6680  0.5315
   65MOL   H20224650   3.841   5.028   7.522 -1.3332 -2.2068 -0.4584
   65MOL   H20324651   3.908   5.084   7.364 -1.6713  2.9445  0.5045
   65MOL   H20424652   3.637   4.951   7.423  0.5183 -0.8101  0.6666
   65MOL   H20524653   3.683   4.989   7.260  0.9069  2.0073 -0.3820
   65MOL   H20624654   3.509   5.142   7.357  0.9911 -3.3452 -0.0272
   65MOL   H20724655   3.628   5.208   7.469  1.8972 -0.0952  0.9836
   65MOL   H20824656   3.766   5.280   7.259 -0.1691 -0.8803 -2.5513
   65MOL   H20924657   3.641   5.228   7.155 -3.0959 -2.1670  0.9312
   65MOL   H21024658   3.599   5.348   7.276  1.6629  1.2603  1.3917
   65MOL   C21124659   3.780   4.671   7.327 -0.5633 -0.0105 -0.4973
   65MOL   C21224660   3.673   4.577   7.394  0.3461 -0.0890 -0.2355
   65MOL   C21324661   3.625   4.467   7.292 -0.1368 -0.7336 -0.2225
   65MOL   C21424662   3.702   4.336   7.299  0.3532 -0.4227 -0.2558
   65MOL   C21524663   3.652   4.252   7.415  0.2995  0.1504  0.1808
   65MOL   C21624664   3.693   4.103   7.428  0.0105 -0.1223 -0.1518
   65MOL   O21724665   3.561   4.663   7.419  0.4273 -0.0347 -0.1179
   65MOL   H21824666   3.874   4.618   7.307 -1.5820 -1.7013 -0.9547
   65MOL   H21924667   3.737   4.702   7.232 -0.3658  0.5389 -0.4092
   65MOL   H22024668   3.711   4.526   7.483  0.9865  2.1991  0.8379
   65MOL   H22124669   3.519   4.449   7.311 -1.0549  2.3918 -1.9412
   65MOL   H22224670   3.634   4.499   7.189  1.0265  2.1079  0.7056
   65MOL   H22324671   3.690   4.291   7.201  0.5156 -0.5075 -0.2364
   65MOL   H22424672   3.808   4.360   7.311  0.0626  0.4579  0.6442
   65MOL   H22524673   3.689   4.305   7.502 -2.0358  1.7557  0.2434
   65MOL   H22624674   3.543   4.259   7.424  0.1220 -1.8492 -0.1443
   65MOL   H22724675   3.673   4.068   7.530  2.3425  1.3783  0.8543
   65MOL   H22824676   3.797   4.103   7.399  0.1670  3.3332  0.2235
   65MOL   H22924677   3.634   4.046   7.356  0.5483  0.2747 -0.9107
   65MOL   C23024678   3.461   4.615   7.512  0.6328  0.2641 -0.5158
   65MOL   C23124679   3.414   4.723   7.607  0.0625 -0.0695 -0.9039
   65MOL   C23224680   3.351   4.674   7.736  0.4960 -0.4519 -0.0687
   65MOL   C23324681   3.312   4.785   0.055  0.0898 -0.0738  0.0783
   65MOL   C23424682   3.245   4.724   0.177 -0.2930  0.1412 -0.1711
   65MOL   C23524683   3.237   4.827   0.296 -0.0230  0.4727 -0.1745
   65MOL   O23624684   3.314   4.795   7.543  0.3008  0.4754  0.1045
   65MOL   H23724685   3.385   4.579   7.442  1.6180  0.5052 -1.7278
   65MOL   H23824686   3.497   4.524   7.560 -3.3033  0.2799  2.7508
   65MOL   H23924687   3.491   4.791   7.644 -1.5552  2.2484 -1.6582
   65MOL   H24024688   3.424   4.606   7.780 -0.7204 -0.8859  1.3289
   65MOL   H24124689   3.264   4.611   7.714  0.2344  0.5134 -1.9146
   65MOL   H24224690   3.243   4.855   0.006  2.1222  0.4483 -2.1128
   65MOL   H24324691   3.401   4.844   0.075  1.1893 -1.4347 -0.7022
   65MOL   H24424692   3.145   4.685   0.159  0.1183 -0.9641 -0.1019
   65MOL   H24524693   3.295   4.634   0.213  0.3534  0.2689 -0.7355
   65MOL   H24624694   3.179   4.914   0.264 -3.2905 -0.3324  3.2867
   65MOL   H24724695   3.336   4.859   0.330 -0.4896  1.8710 -0.0838
   65MOL   H24824696   3.187   4.781   0.380  0.0749 -0.2391 -0.5069
   65MOL   C24924697   3.339   4.933   7.542 -0.1602 -0.6773  0.3683
   65MOL   C25024698   3.214   5.009   7.509 -0.0575 -0.5651  0.5089
   65MOL   C25124699   3.232   5.151   7.464 -0.3354 -0.4976 -0.4196
   65MOL   C25224700   3.104   5.210   7.412  0.4280  0.5859  0.6175
   65MOL   C25324701   3.083   5.358   7.394  0.0475  0.0440 -0.6336
   65MOL   C25424702   2.944   5.397   7.341 -0.2776  0.2019  0.5531
   65MOL   O25524703   3.128   5.006   7.625 -0.2763  0.1634 -0.5163
   65MOL   H25624704   3.382   4.969   7.635  0.1173 -1.2023  0.4428
   65MOL   H25724705   3.409   4.948   7.459 -0.4074 -0.2255  0.2429
   65MOL   H25824706   3.169   4.957   7.425 -1.6513  1.0826  0.3026
   65MOL   H25924707   3.279   5.201   7.549 -2.2496 -0.6574  0.7613
   65MOL   H26024708   3.307   5.162   7.386  0.8376 -1.5770  0.5215
   65MOL   H26124709   3.070   5.169   7.317  1.0770  0.1882  0.5541
   65MOL   H26224710   3.024   5.179   7.479  1.0392  0.2595  1.2031
   65MOL   H26324711   3.094   5.404   7.493  1.0097 -0.4026 -0.5295
   65MOL   H26424712   3.160   5.390   7.325  1.0576 -0.5770  0.2019
   65MOL   H26524713   2.930   5.340   7.249 -2.2625  1.0373  0.3106
   65MOL   H26624714   2.937   5.505   7.327  1.2501  0.2185 -0.1638
   65MOL   H26724715   2.871   5.344   7.401 -1.5617  1.7092  0.3546
   65MOL   C26824716   3.018   4.920   7.625  0.8438  0.2933  0.4646
   65MOL   C26924717   2.944   4.921   7.758  0.1331  0.1237  0.6244
   65MOL   C27024718   2.837   4.814   7.778 -0.0286 -0.5622  0.4599
   65MOL   C27124719   2.762   4.840   0.121  0.2196 -0.5712  0.2871
   65MOL   C27224720   2.703   4.718   0.191  0.0548 -0.0595  0.0046
   65MOL   C27324721   2.614   4.635   0.092  0.0249 -0.7410 -0.1020
   65MOL   O27424722   2.859   5.031   7.770 -0.5668  0.1589  0.1669
   65MOL   H27524723   3.058   4.820   7.610 -1.5252 -0.4974 -0.7681
   65MOL   H27624724   2.947   4.958   7.551 -2.3142  0.5268  3.5042
   65MOL   H27724725   3.016   4.909   0.054 -1.9876  1.4944  2.7896
   65MOL   H27824726   2.769   4.828   7.694  1.3635  0.9196 -0.4688
   65MOL   H27924727   2.892   4.720   7.779  1.0296 -0.0283 -2.7793
   65MOL   H28024728   2.831   4.887   0.190 -1.5583  2.5097  0.0554
   65MOL   H28124729   2.690   4.922   0.115  1.0751  0.4829  3.4163
   65MOL   H28224730   2.774   4.658   0.247 -0.8274 -0.3539  0.8192
   65MOL   H28324731   2.630   4.753   0.264  1.3702  2.3407  0.2060
   65MOL   H28424732   2.687   4.587   0.026  0.9603  2.2994 -1.3473
   65MOL   H28524733   2.569   4.553   0.149 -0.2412 -0.6129 -0.1275
   65MOL   H28624734   2.546   4.684   0.023  2.6811  0.1671 -2.1518
   65MOL   C28724735   2.911   5.156   0.006  0.3163 -0.1250  0.0396
   65MOL   C28824736   2.963   5.179   0.156  0.2686 -0.8153 -0.2155
   65MOL   C28924737   2.852   5.214   0.265  0.1986 -0.7632  0.2898
   65MOL   C29024738   2.897   5.195   0.411  0.1889  0.3636  0.0020
   65MOL   C29124739   2.783   5.185   0.515 -0.4888  0.3053 -0.0273
   65MOL   C29224740   2.678   5.071   0.498  0.2208 -0.0670  0.2078
   65MOL   O29324741   3.074   5.275   0.163  0.5081 -0.0461 -0.3099
   65MOL   H29424742   2.837   5.233   7.770  0.7655 -0.1631 -1.6536
   65MOL   H29524743   2.980   5.166   7.708  0.7005 -1.2961  0.2015
   65MOL   H29624744   3.005   5.082   0.185 -2.9101 -1.9973  0.6641
   65MOL   H29724745   2.808   5.314   0.257  2.3041  0.3816  2.4651
   65MOL   H29824746   2.765   5.155   0.238 -0.3747 -0.0169  0.4759
   65MOL   H29924747   2.934   5.093   0.419  1.8698  0.9872  0.3014
   65MOL   H30024748   2.978   5.259   0.446  1.3907 -1.0931 -0.0522
   65MOL   H30124749   2.726   5.276   0.496 -1.0637 -0.1242 -0.3745
   65MOL   H30224750   2.822   5.194   0.616  2.4802 -0.6489 -1.0434
   65MOL   H30324751   2.729   4.976   0.517  0.6677  0.1299 -0.0111
   65MOL   H30424752   2.590   5.081   0.562  1.1106 -0.9006  1.5997
   65MOL   H30524753   2.645   5.059   0.395 -2.8102  0.9905  1.0057
   65MOL   C30624754   3.198   5.235   0.113 -0.4926 -0.6569 -0.1200
   65MOL   C30724755   3.302   5.352   0.116 -0.3551  0.4458 -0.1350
   65MOL   C30824756   3.431   5.327   0.037  0.3687  0.4734  0.0258
   65MOL   C30924757   3.494   5.195   0.098 -0.1629 -0.4692  0.0826
   65MOL   C31024758   3.634   5.190   0.040  0.2594  0.5952  0.7553
   65MOL   C31124759   3.692   5.042   0.069 -0.1182  0.6703  0.4311
   65MOL   O31224760   3.347   5.378   0.250 -0.2480  0.4940 -0.5860
   65MOL   H31324761   3.228   5.146   0.167  1.0611 -0.6244 -0.9036
   65MOL   H31424762   3.189   5.215   0.006 -2.7209 -1.9693  0.2970
   65MOL   H31524763   3.258   5.448   0.088  1.6363  1.8980  1.5692
   65MOL   H31624764   3.496   5.414   0.032 -1.5172  1.8905 -0.6298
   65MOL   H31724765   3.410   5.329   7.716 -1.5232 -0.1937  0.3642
   65MOL   H31824766   3.500   5.187   0.206  2.2357 -0.5352 -0.0354
   65MOL   H31924767   3.433   5.110   0.067  0.8750 -1.2489  0.1450
   65MOL   H32024768   3.693   5.265   0.092 -0.6391  1.7423  0.1436
   65MOL   H32124769   3.627   5.223   7.722 -1.5496 -1.8477  0.0413
   65MOL   H32224770   3.698   4.989   7.760 -0.9171 -0.2631  0.8972
   65MOL   H32324771   3.798   5.047   0.094  0.0567  0.7493 -0.3050
   65MOL   H32424772   3.620   4.994   0.135  0.7693 -1.5806 -0.2083
   65MOL   C32524773   3.260   5.425   0.350  0.0074 -0.5765 -0.2986
   65MOL   C32624774   3.339   5.491   0.469 -0.5542 -0.3300 -0.5024
   65MOL   C32724775   3.273   5.509   0.602 -0.1490 -0.3058  0.1665
   65MOL   C32824776   3.139   5.585   0.599 -0.4547  0.2150  0.0418
   65MOL   C32924777   3.096   5.637   0.743 -0.1846  0.1574  0.1886
   65MOL   C33024778   3.024   5.533   0.830 -0.3259 -0.2105 -0.2226
   65MOL   O33124779   3.394   5.614   0.442 -0.2906 -0.6041 -0.5103
   65MOL   H33224780   3.194   5.340   0.368 -1.7264  1.0369  1.1881
   65MOL   H33324781   3.187   5.500   0.320  0.6205  0.5171  0.8625
   65MOL   H33424782   3.416   5.416   0.489 -1.3283 -0.3863  2.4711
   65MOL   H33524783   3.258   5.406   0.636  2.0868 -1.4955 -2.2457
   65MOL   H33624784   3.343   5.566   0.663 -2.0247 -0.3218  2.3947
   65MOL   H33724785   3.167   5.669   0.535  1.9165 -0.5441  0.0253
   65MOL   H33824786   3.051   5.534   0.560  1.1358 -2.3879 -0.2868
   65MOL   H33924787   3.182   5.680   0.795  0.3974  1.8025 -2.0623
   65MOL   H34024788   3.034   5.726   0.740  0.8985  0.8719 -1.7154
   65MOL   H34124789   2.922   5.518   0.793 -0.8706 -0.5785  1.4009
   65MOL   H34224790   3.080   5.440   0.841 -0.2345  0.0410  1.4223
   65MOL   H34324791   3.015   5.556   0.936  0.0951 -1.2358  0.0448
   65MOL   C34424792   3.467   5.623   0.318  0.5614  0.4045 -0.3689
   65MOL   C34524793   3.542   5.747   0.320 -0.6169 -0.1844 -0.2597
   65MOL   C34624794   3.666   5.750   0.232 -0.3468  0.4338  0.1413
   65MOL   C34724795   3.784   5.654   0.277 -0.1692 -0.4531  0.4429
   65MOL   C34824796   3.877   5.631   0.161  0.1228  0.2515  0.0030
   65MOL   C34924797   4.006   5.555   0.204 -0.2073 -0.3059 -0.0300
   65MOL   O35024798   3.463   5.860   0.284 -0.7035  0.8558  0.5487
   65MOL   H35124799   3.401   5.616   0.232 -1.0633  0.3554  0.8557
   65MOL   H35224800   3.515   5.526   0.307 -4.8510 -2.6797  1.1383
   65MOL   H35324801   3.595   5.755   0.415  2.1343  1.2363 -1.8663
   65MOL   H35424802   3.701   5.843   0.186  0.5140 -0.1316 -0.3680
   65MOL   H35524803   3.626   5.704   0.141  0.9600  1.4050 -0.9610
   65MOL   H35624804   3.745   5.557   0.308 -0.5936 -0.1546  0.8638
   65MOL   H35724805   3.826   5.696   0.369 -3.0238  2.9084  0.3322
   65MOL   H35824806   3.897   5.719   0.100  2.4514 -0.9690 -1.0697
   65MOL   H35924807   3.817   5.568   0.094 -3.1114 -0.0360  2.9898
   65MOL   H36024808   3.987   5.458   0.249 -2.8803 -0.5279 -1.5080
   65MOL   H36124809   4.060   5.619   0.274 -0.9246  0.7383 -0.4198
   65MOL   H36224810   4.073   5.535   0.119  1.5620 -1.3512  1.5658
   65MOL   C36324811   3.361   5.920   0.362 -0.5538 -0.8554 -0.5683
   65MOL   C36424812   3.411   5.969   0.497  0.1860  0.4485  0.3758
   65MOL   C36524813   3.354   6.102   0.538 -0.8324  0.7784 -0.1665
   65MOL   C36624814   3.390   6.149   0.686 -0.3858 -0.1495  0.1277
   65MOL   C36724815   3.351   6.295   0.707 -0.1402 -0.1545 -0.2218
   65MOL   C36824816   3.444   6.388   0.627 -0.0561  0.0824  0.3606
   65MOL   O36924817   3.390   5.868   0.588  0.4511  0.0432 -0.2325
   65MOL   H37024818   3.272   5.858   0.364 -1.0515 -0.1292  0.0464
   65MOL   H37124819   3.334   6.007   0.301  4.0488  1.7790  0.8491
   65MOL   H37224820   3.517   5.993   0.497  1.1531 -3.5207  0.3683
   65MOL   H37324821   3.391   6.179   0.469  1.9259  0.9407  1.4043
   65MOL   H37424822   3.245   6.099   0.533 -0.8330 -0.1927  0.3126
   65MOL   H37524823   3.339   6.099   0.768  0.9373  0.4842  1.3487
   65MOL   H37624824   3.498   6.142   0.699 -0.2132 -0.5993 -1.3764
   65MOL   H37724825   3.245   6.303   0.682  0.2988  2.5879 -1.3344
   65MOL   H37824826   3.367   6.323   0.811  0.7198  0.7076 -0.5797
   65MOL   H37924827   3.411   6.387   0.523 -0.7284  0.3996  0.5687
   65MOL   H38024828   3.428   6.488   0.666 -0.6883  0.1521 -0.0523
   65MOL   H38124829   3.552   6.380   0.635  0.1457 -0.4804 -2.3498
   65MOL   H38224830   3.409   5.792   0.537  1.1539 -0.2920  0.5107
   66MOL     C124831   0.036   2.294   5.433 -0.1833 -0.0503  0.1842
   66MOL     C224832   0.077   2.331   5.575 -0.0079 -0.1190 -0.7534
   66MOL     C324833   0.115   2.210   5.657 -0.3468 -0.6926 -0.4141
   66MOL     C424834   0.003   2.122   5.709 -0.6784  0.5774  0.4898
   66MOL     C524835   0.063   1.996   5.784  0.7146  0.3151 -0.9320
   66MOL     C624836   7.753   1.882   5.793  0.3458 -0.3434 -0.3705
   66MOL     O724837   0.182   2.426   5.555 -0.0650  0.6495 -0.4235
   66MOL     H824838   0.022   2.391   5.385 -0.2263  0.1128  0.5292
   66MOL     H924839   7.730   2.237   5.448  0.4349 -0.9202  0.6710
   66MOL    H1024840   7.775   2.380   5.618 -0.2152 -2.5718  1.7790
   66MOL    H1124841   0.189   2.147   5.607  0.6056 -0.7048  0.9762
   66MOL    H1224842   0.163   2.247   5.747 -0.6086  0.7157 -0.8385
   66MOL    H1324843   7.735   2.179   5.785 -3.6474  0.6835 -1.6227
   66MOL    H1424844   7.716   2.089   5.635 -0.7029  2.3013 -0.2802
   66MOL    H1524845   0.156   1.955   5.743  0.6043 -0.3761 -0.5011
   66MOL    H1624846   0.094   2.029   5.883  1.4834 -2.6176 -0.1366
   66MOL    H1724847   7.664   1.913   5.848  0.0304 -0.0710 -1.0188
   66MOL    H1824848   7.717   1.854   5.694  1.0182 -0.7627 -0.4989
   66MOL    H1924849   0.003   1.795   5.848  2.2460 -0.1687 -1.2898
   66MOL    H2024850   0.115   2.245   5.376 -1.7206 -1.2365 -0.9363
   66MOL    C2124851   0.230   2.492   5.674  0.2535  0.2020 -0.4070
   66MOL    C2224852   0.319   2.611   5.632  0.0795 -0.4965 -0.7842
   66MOL    C2324853   0.429   2.556   5.532  0.0723  0.4275 -0.4870
   66MOL    C2424854   0.544   2.667   5.515 -0.1650  0.3598  0.0678
   66MOL    C2524855   0.643   2.623   5.405 -0.0761 -0.3335  0.2050
   66MOL    C2624856   0.765   2.721   5.411 -0.7340  0.0776 -0.0604
   66MOL    O2724857   0.238   2.696   5.562  0.4620 -0.2626  0.0437
   66MOL    H2824858   0.150   2.520   5.742  0.8119  2.4627 -0.6668
   66MOL    H2924859   0.300   2.423   5.721  0.3643 -0.2603 -1.2427
   66MOL    H3024860   0.376   2.650   5.715 -2.6763  0.8720  0.5512
   66MOL    H3124861   0.383   2.543   5.434 -0.6194  2.3542 -0.4379
   66MOL    H3224862   0.472   2.460   5.560 -0.7206  0.1532 -0.2012
   66MOL    H3324863   0.613   2.671   5.599  0.1679  1.3197 -0.2429
   66MOL    H3424864   0.513   2.771   5.507  0.4406  0.6772  1.5137
   66MOL    H3524865   0.676   2.519   5.410 -0.7670 -0.4935  1.4073
   66MOL    H3624866   0.580   2.629   5.315 -0.5829  0.9998  0.6428
   66MOL    H3724867   0.824   2.717   5.502  1.6122  1.1166 -1.4882
   66MOL    H3824868   0.721   2.821   5.410  0.1321  0.4864  1.4030
   66MOL    H3924869   0.821   2.715   5.317  0.4854  2.1321  0.5029
   66MOL    C4024870   0.171   2.791   5.641 -0.3289 -0.0108  0.0577
   66MOL    C4124871   0.104   2.890   5.543 -0.6907  0.3541  0.3187
   66MOL    C4224872   0.102   3.034   5.600  0.4025  0.1700 -0.4609
   66MOL    C4324873   0.050   3.131   5.494  0.0442 -0.1217 -0.0267
   66MOL    C4424874   0.064   3.275   5.544 -0.2667  0.3412  0.5197
   66MOL    C4524875   7.785   3.376   5.458  0.2322 -0.4275  0.1460
   66MOL    O4624876   7.755   2.857   5.506 -0.0052  0.0852 -0.0582
   66MOL    H4724877   0.236   2.851   5.705  0.3266  0.4196 -0.9956
   66MOL    H4824878   0.099   2.753   5.713  0.6167  1.6488  1.9092
   66MOL    H4924879   0.171   2.896   5.457  2.4082  0.4132  2.6483
   66MOL    H5024880   0.046   3.039   5.694  0.3792 -2.7989 -0.2598
   66MOL    H5124881   0.208   3.054   5.615  0.9706 -1.5769 -1.9383
   66MOL    H5224882   7.730   3.113   5.475 -0.1849  2.6543 -1.5871
   66MOL    H5324883   0.094   3.124   5.395  1.8894  0.0673  0.7676
   66MOL    H5424884   0.009   3.264   5.638  1.9207 -0.3682  1.7438
   66MOL    H5524885   0.162   3.317   5.565 -0.1656 -0.5729  1.9481
   66MOL    H5624886   0.031   3.377   5.354  0.1134 -1.3510  0.1031
   66MOL    H5724887   7.678   3.356   5.458  0.5310 -2.0990 -0.5736
   66MOL    H5824888   0.029   3.477   5.488 -1.0677  0.6039 -1.9461
   66MOL    C5924889   7.738   2.743   5.420 -0.0082 -0.0251 -0.7185
   66MOL    C6024890   7.610   2.760   5.340  0.0623 -0.4948  0.0977
   66MOL    C6124891   7.620   2.698   5.199 -0.1645  0.1666  0.0641
   66MOL    C6224892   7.501   2.708   5.104  0.6551 -0.3368 -0.0516
   66MOL    C6324893   7.518   2.661   4.961 -0.7331 -0.3545  0.1591
   66MOL    C6424894   7.558   2.510   4.962 -0.3021  0.4339  0.7344
   66MOL    O6524895   7.510   2.689   5.417  0.0075  0.0647  0.6647
   66MOL    H6624896   7.725   2.650   5.475 -1.2147  1.2626  1.2289
   66MOL    H6724897   0.038   2.729   5.353 -0.6875 -0.5134 -1.4796
   66MOL    H6824898   7.594   2.868   5.331 -0.3604 -0.6976 -1.7949
   66MOL    H6924899   7.641   2.591   5.206 -1.0774 -0.1745 -1.8776
   66MOL    H7024900   7.704   2.740   5.144 -1.2232  0.5060 -1.3398
   66MOL    H7124901   7.451   2.805   5.112  0.9136 -0.1322 -0.9410
   66MOL    H7224902   7.418   2.642   5.130 -0.7400  0.6997 -1.7241
   66MOL    H7324903   7.596   2.721   4.915  1.0945 -1.0478  2.3171
   66MOL    H7424904   7.424   2.671   4.906 -0.5087  0.5862 -0.0695
   66MOL    H7524905   7.480   2.447   5.007  1.0593 -1.0379  1.0959
   66MOL    H7624906   7.585   2.476   4.862  0.9996  2.7989  0.2671
   66MOL    H7724907   7.645   2.484   5.022  0.7740 -0.2633 -1.1024
   66MOL    C7824908   7.471   2.747   5.542  0.2151 -0.1093 -0.2101
   66MOL    C7924909   7.351   2.668   5.595  1.4045  0.6224 -0.6587
   66MOL    C8024910   7.261   2.742   5.696  0.3025 -0.6324 -0.1597
   66MOL    C8124911   7.137   2.658   5.741  0.5924  0.2917  0.2412
   66MOL    C8224912   7.033   2.714   5.843 -0.9783 -0.6871 -0.1655
   66MOL    C8324913   6.906   2.631   5.847  0.1611  0.3427 -0.2567
   66MOL    O8424914   7.409   2.555   5.668  0.6116  0.3836  0.1405
   66MOL    H8524915   7.447   2.851   5.518 -1.9788 -0.4537  0.4277
   66MOL    H8624916   7.556   2.745   5.610  0.2903  1.2253 -0.2481
   66MOL    H8724917   7.287   2.631   5.515  0.3687 -1.5753  1.1324
   66MOL    H8824918   7.326   2.775   5.777  1.7808  1.2967 -2.0786
   66MOL    H8924919   7.238   2.837   5.648 -1.7388 -1.3058 -0.5594
   66MOL    H9024920   7.184   2.568   5.780  0.2379 -0.3635 -0.8248
   66MOL    H9124921   7.090   2.621   5.650  2.1125 -2.0066  0.3607
   66MOL    H9224922   7.065   2.704   5.946  0.3272 -0.9458 -0.5854
   66MOL    H9324923   7.010   2.819   5.827 -0.5680 -0.5638  0.0765
   66MOL    H9424924   6.842   2.685   5.918 -0.3585  1.2353 -1.4003
   66MOL    H9524925   6.918   2.535   5.898  1.0424  1.2133  1.2298
   66MOL    H9624926   6.858   2.611   5.751 -1.7421  1.1412  0.4884
   66MOL    C9724927   7.455   2.441   5.604  0.0921 -0.1227 -0.6758
   66MOL    C9824928   7.395   2.300   5.648  0.6019 -0.3350 -0.3659
   66MOL    C9924929   7.430   2.198   5.545  0.1345  0.0071 -0.3697
   66MOL   C10024930   7.414   2.053   5.592 -0.3570 -0.6800  0.4530
   66MOL   C10124931   7.435   1.949   5.480 -0.3684  0.3947  0.3022
   66MOL   C10224932   7.419   1.807   5.526  0.5245  0.6257  0.2938
   66MOL   O10324933   7.462   2.262   5.771  0.6301 -0.2273 -0.4969
   66MOL   H10424934   7.564   2.429   5.607  0.3129  1.8652 -0.0994
   66MOL   H10524935   7.438   2.454   5.497  2.4053 -0.5065 -1.1179
   66MOL   H10624936   7.287   2.295   5.661  0.6042  0.7251  0.1450
   66MOL   H10724937   7.533   2.214   5.511  0.9521  0.4490  2.2119
   66MOL   H10824938   7.370   2.212   5.456  1.8450  2.3421 -1.2117
   66MOL   H10924939   7.311   2.041   5.625 -1.1183  0.1558 -1.5064
   66MOL   H11024940   7.479   2.033   5.676  1.1855  1.0254 -0.2900
   66MOL   H11124941   7.536   1.955   5.439 -0.3172  1.7503  0.6141
   66MOL   H11224942   7.368   1.971   5.396 -1.2653 -0.8124  0.6964
   66MOL   H11324943   7.321   1.780   5.564  0.4162 -0.2439 -0.5691
   66MOL   H11424944   7.435   1.729   5.452 -2.5824 -2.1111  2.3818
   66MOL   H11524945   7.486   1.783   5.608 -1.3178 -0.7394  1.4249
   66MOL   C11624946   7.393   2.303   5.890  0.0553  0.6431 -0.3311
   66MOL   C11724947   7.283   2.199   5.955  0.0893  0.0275 -0.1553
   66MOL   C11824948   7.326   2.057   5.972  0.4487  0.1091  0.1860
   66MOL   C11924949   7.433   2.039   6.076 -0.7217  0.0361 -0.4798
   66MOL   C12024950   7.471   1.883   6.094 -0.2562  0.4728 -0.3057
   66MOL   C12124951   7.597   1.887   6.187 -0.1488 -0.0877 -0.7109
   66MOL   O12224952   7.175   2.212   5.867 -0.9918 -0.4188  0.4577
   66MOL   H12324953   7.460   2.320   5.974  1.5482 -0.7290 -1.2088
   66MOL   H12424954   7.335   2.394   5.881 -0.9244 -0.1953 -3.1318
   66MOL   H12524955   7.244   2.234   6.051 -0.5394  0.4720 -0.5662
   66MOL   H12624956   7.241   1.997   6.004 -0.3204 -0.7843 -3.3383
   66MOL   H12724957   7.374   2.007   5.888 -1.4177 -2.5845  0.6575
   66MOL   H12824958   7.411   2.086   6.173 -3.3023 -2.3154  0.1464
   66MOL   H12924959   7.518   2.092   6.033  0.7005 -0.5931  1.4941
   66MOL   H13024960   7.387   1.842   6.149  0.5837 -0.5015  0.2655
   66MOL   H13124961   7.483   1.822   6.005  2.2588  1.0243 -0.3954
   66MOL   H13224962   7.649   1.791   6.194 -1.0816 -0.4801  0.9403
   66MOL   H13324963   7.678   1.936   6.134 -0.0087 -0.9371 -1.2993
   66MOL   H13424964   7.585   1.932   6.285  0.2503  1.1001 -1.1980
   66MOL   C13524965   7.054   2.149   5.901 -0.7116 -0.0894  0.3431
   66MOL   C13624966   6.931   2.209   5.823 -0.4176 -0.4812  0.4771
   66MOL   C13724967   6.791   2.205   5.893  0.0343 -0.1696 -0.1226
   66MOL   C13824968   6.780   2.270   6.025  0.0065 -0.8819 -0.4884
   66MOL   C13924969   6.636   2.307   6.067 -0.2059  0.3764  0.1824
   66MOL   C14024970   6.601   2.456   6.040  0.2631 -1.0155 -0.7650
   66MOL   O14124971   6.915   2.145   5.697 -0.4667  0.1345 -0.5728
   66MOL   H14224972   7.073   2.044   5.876  0.0266 -0.1465  1.1067
   66MOL   H14324973   7.039   2.163   6.008 -1.2894 -0.6305  0.3314
   66MOL   H14424974   6.952   2.315   5.812  0.5708 -0.7705 -0.5555
   66MOL   H14524975   6.713   2.246   5.828 -2.3066 -2.2688  1.2773
   66MOL   H14624976   6.759   2.101   5.898 -2.3601  0.5072 -0.5270
   66MOL   H14724977   6.844   2.358   6.027  2.5541 -2.7278  1.7062
   66MOL   H14824978   6.834   2.217   6.103  0.3052  1.1601  0.7237
   66MOL   H14924979   6.641   2.299   6.175 -0.2985  0.3790  0.1873
   66MOL   H15024980   6.553   2.247   6.029 -1.5031  0.7792  2.2837
   66MOL   H15124981   6.592   2.477   5.934  0.8617  0.1724 -0.5884
   66MOL   H15224982   6.504   2.474   6.086  0.0847 -1.6325 -0.8966
   66MOL   H15324983   6.674   2.524   6.084 -0.8277 -0.6218  0.4814
   66MOL   C15424984   7.025   2.168   5.617 -0.0016 -0.3306 -0.1292
   66MOL   C15524985   6.973   2.165   5.472 -0.1366  0.2078 -0.3499
   66MOL   C15624986   7.029   2.267   5.371  0.1137  0.6229 -0.7077
   66MOL   C15724987   7.012   2.254   5.220 -0.4999 -0.9194 -0.4191
   66MOL   C15824988   7.079   2.369   5.145 -0.4370 -0.3653  0.7855
   66MOL   C15924989   7.218   2.343   5.091 -0.3599 -0.0513 -0.2010
   66MOL   O16024990   7.016   2.040   5.424 -0.8040 -0.5415  0.4201
   66MOL   H16124991   7.111   2.103   5.634  1.1725  0.7839 -1.6753
   66MOL   H16224992   7.058   2.272   5.620 -2.6569  0.5937 -1.2685
   66MOL   H16324993   6.865   2.161   5.464 -0.0760 -1.6855 -0.3973
   66MOL   H16424994   7.135   2.263   5.396  0.6278 -0.5576 -2.9490
   66MOL   H16524995   7.009   2.370   5.401 -1.4680  0.6180 -1.6800
   66MOL   H16624996   6.907   2.259   5.192 -0.5366 -0.1367 -0.1518
   66MOL   H16724997   7.053   2.158   5.188  2.8453  1.1451 -2.6100
   66MOL   H16824998   7.019   2.372   5.054  1.1680 -1.8144 -0.3521
   66MOL   H16924999   7.062   2.467   5.191 -2.2611 -0.0069 -0.5914
   66MOL   H17025000   7.250   2.431   5.035 -0.9284  0.3785  0.1507
   66MOL   H17125001   7.220   2.251   5.032  1.5407 -0.2279  0.0871
   66MOL   H17225002   7.292   2.333   5.171  0.0125  1.6000 -0.3259
   66MOL   C17325003   6.952   1.917   5.465 -0.2743 -0.1800  0.2747
   66MOL   C17425004   7.028   1.788   5.408  0.2456 -0.3286  0.1232
   66MOL   C17525005   6.975   1.655   5.481 -0.1056  0.1729  0.1946
   66MOL   C17625006   7.040   1.533   5.417  0.3679 -0.3873 -0.0013
   66MOL   C17725007   6.998   1.393   5.483 -0.0044  0.9846  1.0071
   66MOL   C17825008   7.054   1.374   5.620 -0.5051  0.1822 -0.3728
   66MOL   O17925009   7.004   1.782   5.267 -0.0897 -0.0926 -0.5188
   66MOL   H18025010   6.849   1.912   5.429 -0.2786 -0.1497  0.2846
   66MOL   H18125011   6.941   1.911   5.573  2.0223  0.8054  0.5728
   66MOL   H18225012   7.135   1.791   5.427  0.6714 -1.7172 -1.9188
   66MOL   H18325013   7.018   1.660   5.581 -1.7981  0.0521  0.9398
   66MOL   H18425014   6.867   1.653   5.491 -0.2230  1.2892 -0.7680
   66MOL   H18525015   7.015   1.530   5.311  0.4381 -0.9914 -0.0015
   66MOL   H18625016   7.148   1.535   5.407  0.4833  2.9771  1.0924
   66MOL   H18725017   6.892   1.388   5.504 -0.2119  0.9214 -0.0447
   66MOL   H18825018   7.019   1.313   5.412  1.0410  1.2177  1.0343
   66MOL   H18925019   7.034   1.441   5.704  1.0541  0.4963 -0.2485
   66MOL   H19025020   7.163   1.374   5.616 -0.4134  0.1883  1.6306
   66MOL   H19125021   7.037   1.271   5.653  2.4573 -0.5262 -0.9532
   66MOL   C19225022   7.090   1.843   5.171 -0.1876  0.7084 -0.2518
   66MOL   C19325023   7.075   1.773   5.036 -0.0030  0.3827 -0.2553
   66MOL   C19425024   7.099   1.614   5.040  0.5765 -0.7371 -0.1821
   66MOL   C19525025   7.091   1.555   4.899 -0.2694  0.8606 -0.3287
   66MOL   C19625026   7.077   1.402   4.899 -0.7465  0.5529 -0.1189
   66MOL   C19725027   7.079   1.349   4.749  0.2124  0.5924  0.2168
   66MOL   O19825028   7.173   1.835   4.955  0.0109 -0.3145  0.5875
   66MOL   H19925029   7.068   1.948   5.158 -2.3553  0.1606 -1.2119
   66MOL   H20025030   7.198   1.835   5.188 -0.0332  0.6369 -1.1868
   66MOL   H20125031   6.977   1.794   4.992  0.3429  1.2433 -0.6298
   66MOL   H20225032   7.200   1.593   5.077  0.2409 -2.1513 -0.0424
   66MOL   H20325033   7.020   1.558   5.090 -0.7272  1.3386  0.1399
   66MOL   H20425034   7.176   1.583   4.836  0.8823  0.0757  0.8412
   66MOL   H20525035   7.014   1.595   4.834 -0.0233 -1.7135 -2.3351
   66MOL   H20625036   7.171   1.369   4.942 -1.3326 -1.3711 -0.2645
   66MOL   H20725037   6.991   1.371   4.959  0.4654 -0.9972  0.8340
   66MOL   H20825038   7.170   1.380   4.698  0.0937 -1.1024 -1.0903
   66MOL   H20925039   7.101   1.243   4.739  2.2064  0.7766  2.3107
   66MOL   H21025040   6.990   1.368   4.689  0.5609  0.2768 -0.4092
   66MOL   C21125041   7.123   1.943   4.874  0.4186 -0.7401  0.3810
   66MOL   C21225042   7.239   2.019   4.808 -0.0423  0.2328 -1.1339
   66MOL   C21325043   7.188   2.141   4.729 -0.1040 -0.6939  0.8005
   66MOL   C21425044   7.284   2.207   4.630  0.2897  0.0976  0.1851
   66MOL   C21525045   7.230   2.332   4.567 -0.1536 -0.0344 -0.1313
   66MOL   C21625046   7.110   2.303   4.479  0.7811 -0.5428 -0.9661
   66MOL   O21725047   7.307   1.944   4.704 -0.1030  0.5821 -0.3197
   66MOL   H21825048   7.077   2.012   4.945 -0.8790 -0.6803 -0.5090
   66MOL   H21925049   7.045   1.919   4.803 -1.3531  0.5378  1.8418
   66MOL   H22025050   7.321   2.050   4.873 -0.9377 -1.2206  0.7354
   66MOL   H22125051   7.099   2.126   4.667  0.1937  0.5112  0.0760
   66MOL   H22225052   7.155   2.218   4.799  0.1120 -0.3404  0.5135
   66MOL   H22325053   7.375   2.237   4.682  1.0208 -1.3357 -0.2327
   66MOL   H22425054   7.313   2.131   4.558  0.2244  0.1602  0.0929
   66MOL   H22525055   7.209   2.410   4.640  0.4300 -0.6522  0.7024
   66MOL   H22625056   7.298   2.365   4.488  0.0190  0.4989  0.2359
   66MOL   H22725057   7.122   2.217   4.414 -1.0336 -0.7109 -1.1083
   66MOL   H22825058   7.083   2.387   4.416 -3.0255 -1.4046 -0.5801
   66MOL   H22925059   7.015   2.287   4.529  0.2899  0.8153 -1.4459
   66MOL   C23025060   7.404   1.848   4.743  0.1837  0.2169  0.4258
   66MOL   C23125061   7.453   1.762   4.617  0.2751 -0.5688 -0.0003
   66MOL   C23225062   7.470   1.615   4.662  0.4964  0.1852 -0.3002
   66MOL   C23325063   7.493   1.517   4.549  0.0348 -0.3630 -0.0592
   66MOL   C23425064   7.516   1.377   4.609  0.8103 -0.1210 -0.5794
   66MOL   C23525065   7.500   1.258   4.509 -0.1794 -0.6556 -0.4313
   66MOL   O23625066   7.573   1.811   4.574 -0.6543 -0.1094 -0.3256
   66MOL   H23725067   7.489   1.904   4.783  0.4430  0.9422 -1.0786
   66MOL   H23825068   7.370   1.781   4.821  2.2001  1.7552  2.7108
   66MOL   H23925069   7.375   1.767   4.541  0.6621 -2.5168 -0.5356
   66MOL   H24025070   7.383   1.599   4.726  0.2235  1.0381 -0.4458
   66MOL   H24125071   7.553   1.603   4.731  0.9236  2.1403 -0.4309
   66MOL   H24225072   7.579   1.545   4.487 -0.5645  2.0777  0.1834
   66MOL   H24325073   7.408   1.525   4.481 -1.5997  1.1115  2.1172
   66MOL   H24425074   7.619   1.375   4.646  0.7114 -1.3179 -0.3783
   66MOL   H24525075   7.447   1.370   4.693 -0.3553 -1.5247 -1.6425
   66MOL   H24625076   7.556   1.285   4.419 -0.0978  1.2781  0.1815
   66MOL   H24725077   7.397   1.236   4.481 -1.2211  1.6384  1.4564
   66MOL   H24825078   7.533   1.166   4.557  3.0426  0.6166 -0.0243
   66MOL   C24925079   7.557   1.916   4.483 -0.1793  0.1947 -0.6116
   66MOL   C25025080   7.683   2.006   4.464 -0.2453  0.0833 -0.0042
   66MOL   C25125081   0.019   1.926   4.417  0.5899 -0.8411 -0.4298
   66MOL   C25225082   0.146   2.011   4.388 -0.3059 -0.4488  0.2459
   66MOL   C25325083   0.255   1.935   4.326  1.0258  0.2525 -0.0204
   66MOL   C25425084   0.374   2.023   4.314  0.0999 -0.0423 -0.0099
   66MOL   O25525085   7.723   2.062   4.580  0.2669  1.1352  0.3498
   66MOL   H25625086   7.535   1.873   4.385 -0.5189  2.0837 -1.3966
   66MOL   H25725087   7.469   1.976   4.505 -0.3511 -0.8772  1.7196
   66MOL   H25825088   7.665   2.100   4.412 -1.2221  0.5883  1.2315
   66MOL   H25925089   0.049   1.859   4.498 -0.8110  0.3945  1.1433
   66MOL   H26025090   7.767   1.866   4.334 -0.9365  1.4066 -1.3917
   66MOL   H26125091   0.126   2.105   4.337 -0.0464 -0.5785 -0.0972
   66MOL   H26225092   0.160   2.056   4.486  0.1772 -0.2408  0.0804
   66MOL   H26325093   0.284   1.852   4.392 -0.8207 -0.8777 -0.5975
   66MOL   H26425094   0.209   1.887   4.240 -1.1483 -1.2090  1.9022
   66MOL   H26525095   0.403   2.069   4.408  2.2033 -0.9488 -0.1977
   66MOL   H26625096   0.361   2.112   4.252 -0.3364 -0.6165 -0.7598
   66MOL   H26725097   0.456   1.959   4.280 -0.8514 -0.0850 -2.3556
   66MOL   C26825098   7.635   2.140   4.666 -0.5495 -0.0076 -0.0325
   66MOL   C26925099   7.700   2.178   4.794 -0.3349  0.6650 -0.3825
   66MOL   C27025100   0.059   2.228   4.783  0.1540  0.6313 -0.4667
   66MOL   C27125101   0.108   2.273   4.926 -0.8663 -0.0906 -0.1324
   66MOL   C27225102   0.226   2.371   4.913 -0.0099  0.1939  0.3758
   66MOL   C27325103   0.264   2.437   5.044  0.2085  0.6890  0.2096
   66MOL   O27425104   7.708   2.057   4.862 -0.2246 -0.6477 -0.5581
   66MOL   H27525105   7.540   2.092   4.688 -0.5179 -0.1429 -0.1925
   66MOL   H27625106   7.621   2.237   4.618 -0.3838 -0.0384 -0.1402
   66MOL   H27725107   7.638   2.254   4.842  0.5990 -0.1862  2.2905
   66MOL   H27825108   0.123   2.149   4.746  1.3098  2.1455 -1.7693
   66MOL   H27925109   0.062   2.313   4.715 -0.0752  0.8860 -0.1611
   66MOL   H28025110   0.027   2.320   4.980  1.5000  3.6509  0.3286
   66MOL   H28125111   0.140   2.176   4.966 -1.7288 -0.5060 -0.4461
   66MOL   H28225112   0.306   2.314   4.866 -0.0796 -0.7966  1.4404
   66MOL   H28325113   0.211   2.456   4.846  1.0448 -0.6542 -0.9498
   66MOL   H28425114   0.362   2.480   5.027  0.9033 -0.7760  0.4072
   66MOL   H28525115   0.195   2.515   5.078 -1.1740 -0.7185  0.7457
   66MOL   H28625116   0.257   2.361   5.123 -0.8514 -0.5725 -1.0615
   66MOL   C28725117   7.649   2.060   4.988 -0.1610  0.4293 -0.2180
   66MOL   C28825118   7.678   1.922   5.042 -0.3322 -0.1298 -0.1238
   66MOL   C28925119   7.560   1.865   5.123  0.5048 -0.0796  0.1152
   66MOL   C29025120   7.567   1.718   5.166  0.5074 -0.6354 -0.6144
   66MOL   C29125121   7.594   1.622   5.051 -0.3736  0.2925 -0.1218
   66MOL   C29225122   7.536   1.478   5.094  0.1972  0.3351  1.0608
   66MOL   O29325123   0.006   1.899   5.128  0.1965 -0.0710  0.3867
   66MOL   H29425124   7.542   2.071   4.972 -0.3055 -0.5171  0.0611
   66MOL   H29525125   7.680   2.141   5.055  1.3557  0.6367 -1.1555
   66MOL   H29625126   7.681   1.850   4.961 -0.1713 -2.2874  1.7335
   66MOL   H29725127   7.540   1.918   5.215  1.0009  3.6189 -1.8025
   66MOL   H29825128   7.472   1.875   5.059  1.3258 -1.6470 -1.3067
   66MOL   H29925129   7.645   1.690   5.238 -0.8879  0.2995  1.3074
   66MOL   H30025130   7.477   1.692   5.222  0.8221 -0.7014 -0.1302
   66MOL   H30125131   7.695   1.600   5.017 -2.0965 -2.9932 -3.4918
   66MOL   H30225132   7.542   1.655   4.961  1.5108  0.0620 -1.3061
   66MOL   H30325133   7.576   1.440   5.188  1.0269 -2.3698 -0.3402
   66MOL   H30425134   7.427   1.475   5.105  0.1130 -1.3374  0.0435
   66MOL   H30525135   7.568   1.406   5.018  1.0483  1.4355  0.3645
   66MOL   C30625136   0.137   1.895   5.079  0.2639 -0.5527  0.4299
   66MOL   C30725137   0.236   1.964   5.173  0.3432 -0.3078 -0.8158
   66MOL   C30825138   0.372   2.018   5.111  0.5535 -0.1449  1.1553
   66MOL   C30925139   0.452   2.122   5.196 -0.4310 -0.6260 -0.1117
   66MOL   C31025140   0.549   2.198   5.108 -0.3709  0.0591 -0.0733
   66MOL   C31125141   0.646   2.291   5.182 -0.0990  0.3933  0.0347
   66MOL   O31225142   0.276   1.863   5.264 -0.0912 -0.3707  0.6135
   66MOL   H31325143   0.170   1.794   5.057  2.2821  0.6508 -2.2778
   66MOL   H31425144   0.141   1.941   4.981  1.4357  0.7810  1.0823
   66MOL   H31525145   0.186   2.050   5.219 -0.2025 -1.4887  0.8480
   66MOL   H31625146   0.360   2.051   5.008  0.2133 -2.6430  0.3517
   66MOL   H31725147   0.432   1.929   5.090  2.1059  1.0736  0.3527
   66MOL   H31825148   0.385   2.188   5.251 -2.5874 -1.7354 -1.3548
   66MOL   H31925149   0.513   2.074   5.273  1.0327 -1.2188 -1.6059
   66MOL   H32025150   0.487   2.270   5.056 -0.0052 -1.1589 -2.2700
   66MOL   H32125151   0.605   2.127   5.046  0.9703  0.3545  0.7720
   66MOL   H32225152   0.706   2.340   5.106 -3.2820  1.6867 -1.7612
   66MOL   H32325153   0.588   2.357   5.247 -1.0229 -2.4257  2.1612
   66MOL   H32425154   0.715   2.245   5.252 -0.7346 -3.1958 -1.5808
   66MOL   C32525155   0.182   1.829   5.363 -0.1151  0.0268 -0.4615
   66MOL   C32625156   0.241   1.725   5.459  0.0479 -0.2441 -0.3379
   66MOL   C32725157   0.137   1.636   5.536  0.6626  0.3928  0.2286
   66MOL   C32825158   0.052   1.553   5.442 -0.3073  0.0948 -0.3731
   66MOL   C32925159   7.751   1.435   5.511 -0.0705 -0.1409  0.2050
   66MOL   C33025160   7.635   1.489   5.592  0.1171 -1.0258 -0.7011
   66MOL   O33125161   0.319   1.790   5.555  0.2596 -0.7414 -0.4654
   66MOL   H33225162   0.093   1.789   5.316 -1.9332  2.6798  0.6149
   66MOL   H33325163   0.155   1.918   5.420  1.8936 -0.2509  0.9853
   66MOL   H33425164   0.302   1.666   5.390 -1.6424 -1.8823 -0.5070
   66MOL   H33525165   0.188   1.564   5.600 -0.6188 -2.4059 -1.8192
   66MOL   H33625166   0.071   1.699   5.597  0.7346  0.0400  0.6756
   66MOL   H33725167   7.770   1.612   5.380  0.5352 -1.0766 -2.4710
   66MOL   H33825168   0.125   1.498   5.383  1.4200  0.8463  1.0159
   66MOL   H33925169   7.717   1.378   5.426  1.4257  0.7174 -0.9988
   66MOL   H34025170   0.026   1.370   5.575  2.1538  1.7145  0.0529
   66MOL   H34125171   7.590   1.577   5.545  1.1921 -0.0511  0.0453
   66MOL   H34225172   7.556   1.415   5.600 -1.3009  0.5454  0.2438
   66MOL   H34325173   7.660   1.523   5.693 -0.0517  0.0573 -1.0171
   66MOL   C34425174   0.455   1.770   5.551  0.4129 -0.2199 -0.1112
   66MOL   C34525175   0.532   1.844   5.657  0.4277  0.1061 -0.1965
   66MOL   C34625176   0.534   1.999   5.642 -0.4104 -0.8999 -0.6115
   66MOL   C34725177   0.642   2.070   5.720  0.2882 -0.9206  0.4034
   66MOL   C34825178   0.643   2.226   5.712  0.0014 -0.3251  0.0722
   66MOL   C34925179   0.698   2.280   5.839 -0.1243 -0.5434 -0.4044
   66MOL   O35025180   0.481   1.810   5.787  0.0959  0.1936 -0.0574
   66MOL   H35125181   0.486   1.800   5.451 -0.1255 -0.7173 -0.4343
   66MOL   H35225182   0.464   1.661   5.554 -1.1333 -0.4040 -1.1424
   66MOL   H35325183   0.638   1.821   5.645  0.7551  0.9903  0.9831
   66MOL   H35425184   0.430   2.028   5.661 -0.0630 -1.0376  1.5297
   66MOL   H35525185   0.547   2.036   5.540 -2.0846  1.6352  0.0429
   66MOL   H35625186   0.743   2.052   5.684  2.1731  1.8384  3.9724
   66MOL   H35725187   0.629   2.034   5.822  0.8641  1.4021  1.3296
   66MOL   H35825188   0.541   2.263   5.705  0.6342  1.3429 -0.6298
   66MOL   H35925189   0.683   2.265   5.618 -1.8112 -1.1592 -1.0723
   66MOL   H36025190   0.703   2.388   5.825  2.0533 -0.9455 -2.9533
   66MOL   H36125191   0.797   2.247   5.869  0.1665 -0.9383 -1.8125
   66MOL   H36225192   0.618   2.268   5.913  0.2336 -3.3426 -0.4089
   66MOL   C36325193   0.571   1.727   5.861  0.4191  0.1535  0.0444
   66MOL   C36425194   0.573   1.582   5.810  0.0889  0.1738  0.3213
   66MOL   C36525195   0.634   1.491   5.914 -0.1473  0.0764  0.2629
   66MOL   C36625196   0.791   1.500   5.931 -0.2666 -0.5584 -0.3325
   66MOL   C36725197   0.864   1.431   5.811 -0.2206  0.1538 -0.3739
   66MOL   C36825198   1.013   1.469   5.825 -0.1540  0.1593  0.2464
   66MOL   O36925199   0.439   1.542   5.798 -0.4249 -0.6817  0.0693
   66MOL   H37025200   0.535   1.733   5.963 -0.7696  1.2320 -0.4256
   66MOL   H37125201   0.673   1.763   5.852 -0.3147  1.9449 -1.3555
   66MOL   H37225202   0.619   1.567   5.712 -2.0920  0.1428 -0.7293
   66MOL   H37325203   0.584   1.511   6.009  1.2213 -1.0528  1.2385
   66MOL   H37425204   0.606   1.388   5.892 -0.7736  0.7858 -2.4731
   66MOL   H37525205   0.830   1.601   5.939 -0.6714 -0.3320 -1.1702
   66MOL   H37625206   0.823   1.451   6.022 -0.1738  0.4973  0.2065
   66MOL   H37725207   0.849   1.323   5.810 -0.7683  0.2341 -0.7855
   66MOL   H37825208   0.829   1.460   5.712  0.2490 -0.1045 -0.6160
   66MOL   H37925209   1.026   1.573   5.856  2.5839 -0.4210  1.1705
   66MOL   H38025210   1.040   1.406   5.910  0.7707  0.1513 -0.0526
   66MOL   H38125211   1.072   1.449   5.736 -0.8624 -2.2053  0.2765
   66MOL   H38225212   0.389   1.612   5.761 -0.4838 -1.6247 -1.6873
   67MOL     C125213   1.168   2.742   7.506  0.0024 -0.7644  0.1017
   67MOL     C225214   1.246   2.868   7.539  0.0045 -0.1464 -0.4326
   67MOL     C325215   1.300   2.945   7.421  0.3393  0.6201 -0.0959
   67MOL     C425216   1.406   3.052   7.459 -0.9803  0.1291 -0.2026
   67MOL     C525217   1.457   3.136   7.339  0.2865  0.1006  0.6796
   67MOL     C625218   1.547   3.248   7.388 -0.1527 -0.0836 -0.3654
   67MOL     O725219   1.156   2.961   7.601  0.0618  0.0444  0.3890
   67MOL     H825220   1.220   2.683   7.431  1.1012  0.9725 -0.5509
   67MOL     H925221   1.075   2.758   7.453  0.4422  2.3256  0.1434
   67MOL    H1025222   1.326   2.846   7.610  0.0658 -0.1699 -0.5097
   67MOL    H1125223   1.349   2.877   7.350 -0.9410 -0.6089  0.1718
   67MOL    H1225224   1.216   2.989   7.366 -0.0800 -0.7798 -0.5990
   67MOL    H1325225   1.361   3.111   7.539  0.4575 -1.8734  2.1662
   67MOL    H1425226   1.494   3.005   7.503  1.0783  3.0370 -1.0857
   67MOL    H1525227   1.504   3.058   7.279  3.1246  1.5598  0.9254
   67MOL    H1625228   1.371   3.171   7.282 -0.3117  1.0091  2.1169
   67MOL    H1725229   1.496   3.287   7.476 -1.9154  1.0992 -1.8714
   67MOL    H1825230   1.646   3.212   7.415 -1.0052 -1.7648  0.6017
   67MOL    H1925231   1.557   3.322   7.309 -1.4300  0.6403  0.1343
   67MOL    H2025232   1.152   2.689   7.599 -0.6077  1.9484  1.5971
   67MOL    C2125233   1.153   2.954   7.741 -0.4627  0.4747  0.5180
   67MOL    C2225234   1.060   3.059   0.016 -0.8091  0.3488  0.0516
   67MOL    C2325235   1.036   3.010   0.158  0.2332  0.0548  0.3971
   67MOL    C2425236   0.926   3.095   0.225 -0.1149 -0.7127 -0.6763
   67MOL    C2525237   0.881   3.029   0.353  0.1359  0.4347  0.6099
   67MOL    C2625238   0.759   3.110   0.409 -0.1679  0.1151 -0.5401
   67MOL    O2725239   1.120   3.175   0.044  0.1187 -0.2749 -0.0183
   67MOL    H2825240   1.127   2.851   7.763  2.2482 -0.4339 -0.4360
   67MOL    H2925241   1.253   2.972   7.779  0.2745 -0.4676 -0.9639
   67MOL    H3025242   0.973   3.065   7.736 -0.5646  0.8494 -0.2309
   67MOL    H3125243   1.128   3.013   0.217  0.7654 -0.8070 -0.3687
   67MOL    H3225244   0.993   2.910   0.160 -0.0791  0.1167 -1.9093
   67MOL    H3325245   0.842   3.118   0.159 -0.3955  0.5885  0.1160
   67MOL    H3425246   0.979   3.189   0.240 -0.0908 -1.1571  2.3831
   67MOL    H3525247   0.855   2.924   0.338  0.7547  0.2877  0.5413
   67MOL    H3625248   0.968   3.020   0.419  1.6933  0.4059 -1.4133
   67MOL    H3725249   0.795   3.212   0.424  0.0244 -0.1089  0.5142
   67MOL    H3825250   0.719   3.081   0.506  0.5518 -0.6421 -0.4669
   67MOL    H3925251   0.683   3.112   0.331 -1.1144  0.2194  0.3696
   67MOL    C4025252   1.159   3.253   7.717  0.5406  0.7090  0.0349
   67MOL    C4125253   1.041   3.332   7.667  1.0620  0.1896 -0.7665
   67MOL    C4225254   0.954   3.392   7.773  0.5896 -0.4180 -0.3042
   67MOL    C4325255   0.855   3.500   7.733 -0.6689  0.4766 -0.3123
   67MOL    C4425256   0.763   3.540   0.064  0.0481 -0.3293 -0.6721
   67MOL    C4525257   0.689   3.670   0.030 -0.5979  0.2192  0.1741
   67MOL    O4625258   0.964   3.254   7.585 -0.1334  0.2237 -0.5630
   67MOL    H4725259   1.210   3.192   7.643  1.3651  0.6630  0.6431
   67MOL    H4825260   1.236   3.325   7.744  0.8117  0.4352  0.0006
   67MOL    H4925261   1.077   3.415   7.606  0.9961  0.6512 -0.1781
   67MOL    H5025262   0.902   3.310   0.037  1.2859 -0.4607  0.3567
   67MOL    H5125263   1.023   3.442   0.056  0.0799  0.1297 -0.1908
   67MOL    H5225264   0.794   3.470   7.648 -1.5708  1.1092  0.1018
   67MOL    H5325265   0.905   3.584   7.685 -4.6830  1.0458 -3.7618
   67MOL    H5425266   0.684   3.468   0.081 -0.8336  0.8252  0.2339
   67MOL    H5525267   0.818   3.563   0.156 -0.3399  1.0535 -0.7733
   67MOL    H5625268   0.615   3.652   7.737 -0.8392 -0.6512  0.5882
   67MOL    H5725269   0.619   3.716   0.100 -0.5312 -0.2991  0.5871
   67MOL    H5825270   0.763   3.745   0.003  0.2428  0.3985  2.8201
   67MOL    C5925271   1.006   3.238   7.449  0.4715  0.6558  0.1528
   67MOL    C6025272   0.879   3.198   7.358 -0.0204 -0.0641 -0.3622
   67MOL    C6125273   0.915   3.231   7.213  0.3084  0.3599  0.2060
   67MOL    C6225274   1.039   3.161   7.151 -0.2632  0.4468 -0.1043
   67MOL    C6325275   1.065   3.211   7.009 -0.6661  0.1015 -0.3047
   67MOL    C6425276   1.208   3.181   6.963  0.4369  0.2676  0.7029
   67MOL    O6525277   0.849   3.063   7.360 -0.6598  0.3763  0.0877
   67MOL    H6625278   1.090   3.170   7.440 -1.6305 -2.2771  1.8012
   67MOL    H6725279   1.042   3.335   7.414  1.6678  0.1679  0.0094
   67MOL    H6825280   0.787   3.252   7.379 -0.8313 -1.8861  0.8822
   67MOL    H6925281   0.935   3.339   7.215  1.5853  0.1316  0.5375
   67MOL    H7025282   0.828   3.214   7.150  0.5901 -1.9950  0.4152
   67MOL    H7125283   1.015   3.055   7.146 -0.6942  0.5821 -1.0195
   67MOL    H7225284   1.133   3.180   7.204  0.4253  0.5132 -1.3209
   67MOL    H7325285   1.051   3.319   7.009  1.8378  0.4568  0.5990
   67MOL    H7425286   0.998   3.165   6.936 -0.0578 -1.6025  0.1881
   67MOL    H7525287   1.290   3.230   7.015  0.4302  2.4601 -1.2678
   67MOL    H7625288   1.228   3.074   6.973  1.2185  0.3819  0.3664
   67MOL    H7725289   1.222   3.218   6.862 -2.9001  1.4034  0.5677
   67MOL    C7825290   0.829   3.000   7.484 -0.0023  0.7784  0.1978
   67MOL    C7925291   0.732   2.878   7.468  0.1128 -0.3123 -0.1728
   67MOL    C8025292   0.707   2.809   7.609  0.0534  0.2282  0.1242
   67MOL    C8125293   0.836   2.734   7.656 -0.6704 -0.1830 -0.1520
   67MOL    C8225294   0.821   2.662   0.008  0.0761  0.0206  0.3437
   67MOL    C8325295   0.941   2.572   0.050 -1.0772  0.3898 -0.6007
   67MOL    O8425296   0.768   2.769   7.376  0.4905  0.0135  1.1584
   67MOL    H8525297   0.786   3.067   7.559  0.1600  0.3092  0.7140
   67MOL    H8625298   0.926   2.964   7.520 -0.1799  1.4368  1.3566
   67MOL    H8725299   0.641   2.927   7.435 -0.5857 -1.9559 -0.6833
   67MOL    H8825300   0.666   2.870   7.689  2.8234  1.4498  0.6786
   67MOL    H8925301   0.642   2.724   7.587  1.5237 -0.7270 -0.6346
   67MOL    H9025302   0.917   2.802   7.680  0.2744 -1.7687  1.3049
   67MOL    H9125303   0.870   2.658   7.586  0.7194  0.2023  0.0949
   67MOL    H9225304   0.811   2.742   0.081  0.9355 -0.0914  0.5857
   67MOL    H9325305   0.730   2.602   7.785  1.5516 -2.3574  0.7491
   67MOL    H9425306   1.034   2.628   0.039  0.6215 -1.6647  2.5016
   67MOL    H9525307   0.937   2.490   7.765 -2.2370 -0.6274  0.6241
   67MOL    H9625308   0.923   2.527   0.148 -2.7128 -0.2614 -1.2011
   67MOL    C9725309   0.754   2.804   7.237  0.1933 -0.6024 -0.0048
   67MOL    C9825310   0.732   2.687   7.142 -0.6633  0.8146  0.2237
   67MOL    C9925311   0.585   2.628   7.128  0.8194 -0.1571  0.3820
   67MOL   C10025312   0.517   2.605   7.263  0.2753 -0.1912 -0.0502
   67MOL   C10125313   0.372   2.550   7.238  0.0618  0.1516  0.6302
   67MOL   C10225314   0.312   2.481   7.360  0.1939  0.8387 -0.0466
   67MOL   O10325315   0.797   2.711   7.021 -0.1152 -0.3285  0.1785
   67MOL   H10425316   0.851   2.852   7.229 -0.5461  1.1759  1.2580
   67MOL   H10525317   0.675   2.879   7.237  1.3997  0.6855  0.9304
   67MOL   H10625318   0.794   2.615   7.195 -2.3932  0.1162  1.3498
   67MOL   H10725319   0.586   2.533   7.074  1.9652 -0.5058  0.9886
   67MOL   H10825320   0.522   2.693   7.068  2.1647  1.0676  0.2679
   67MOL   H10925321   0.514   2.702   7.313 -1.1959 -0.7195  0.8904
   67MOL   H11025322   0.573   2.534   7.324  1.8012  0.8192 -0.2281
   67MOL   H11125323   0.367   2.496   7.144  1.6066  0.3934  0.3980
   67MOL   H11225324   0.313   2.641   7.227 -0.0223  0.0341  0.0820
   67MOL   H11325325   0.306   2.372   7.363 -0.7789  0.8629 -0.8293
   67MOL   H11425326   0.367   2.514   7.447 -1.5772  1.5693  0.8312
   67MOL   H11525327   0.214   2.526   7.380  0.0691  0.6352 -0.1977
   67MOL   C11625328   0.730   2.803   6.935 -0.8056  0.1534 -0.3976
   67MOL   C11725329   0.823   2.807   6.814  0.0122 -0.6244  0.3992
   67MOL   C11825330   0.809   2.928   6.719 -0.0124  0.3469 -0.0632
   67MOL   C11925331   0.932   2.928   6.624  0.1877 -1.0119 -0.0076
   67MOL   C12025332   1.053   3.007   6.680  0.1990 -0.8751  0.1947
   67MOL   C12125333   1.189   2.961   6.620  0.0795  0.3920 -0.6377
   67MOL   O12225334   0.803   2.697   6.726  0.7385 -0.3364  0.1400
   67MOL   H12325335   0.629   2.777   6.903 -1.4219  0.8835  0.9358
   67MOL   H12425336   0.731   2.898   6.987 -0.6567 -1.2259  2.2395
   67MOL   H12525337   0.921   2.809   6.862  0.7420  1.4932 -1.0981
   67MOL   H12625338   0.708   2.940   6.678 -0.4085  2.4707  1.4489
   67MOL   H12725339   0.822   3.019   6.778  1.8083  0.1780 -0.1688
   67MOL   H12825340   0.903   2.979   6.533  0.5321 -1.3932 -0.3305
   67MOL   H12925341   0.956   2.826   6.593  0.6042 -1.0241  0.3403
   67MOL   H13025342   1.050   3.115   6.666  2.7912 -0.6663  0.8822
   67MOL   H13125343   1.064   3.001   6.788  0.6439  0.1392  0.2189
   67MOL   H13225344   1.202   2.983   6.514 -1.2198  0.6814 -0.7456
   67MOL   H13325345   1.262   3.020   6.676  0.2020 -0.1213 -0.2529
   67MOL   H13425346   1.215   2.860   6.651  0.5902  1.0140  0.9985
   67MOL   C13525347   0.836   2.564   6.761  0.5756  0.3865 -0.5997
   67MOL   C13625348   0.844   2.478   6.629 -0.3146  0.7655  0.8009
   67MOL   C13725349   0.733   2.376   6.618 -0.0472  0.0921 -0.2673
   67MOL   C13825350   0.709   2.325   6.478  0.2057 -0.8684 -0.0746
   67MOL   C13925351   0.629   2.193   6.479 -1.0052 -0.3348 -0.3476
   67MOL   C14025352   0.605   2.123   6.342  0.7718  0.5327  0.1398
   67MOL   O14125353   0.972   2.417   6.624  0.2381 -0.2872  0.3334
   67MOL   H14225354   0.927   2.571   6.820 -1.3835  3.1194  2.2587
   67MOL   H14325355   0.746   2.536   6.816  0.6652  0.6425 -0.3170
   67MOL   H14425356   0.832   2.551   6.549 -0.9705  1.1283  1.2244
   67MOL   H14525357   0.758   2.287   6.675 -1.2783  0.2038  0.4726
   67MOL   H14625358   0.644   2.418   6.665 -1.6279 -1.8847 -1.4517
   67MOL   H14725359   0.807   2.304   6.435 -0.2641 -0.3462 -1.4415
   67MOL   H14825360   0.667   2.410   6.423 -0.2018 -1.3509 -0.5118
   67MOL   H14925361   0.534   2.208   6.530  0.3980 -0.8170  2.4946
   67MOL   H15025362   0.675   2.114   6.538 -1.7356 -1.4586 -1.2529
   67MOL   H15125363   0.543   2.182   6.274  0.3706 -0.7139 -0.5866
   67MOL   H15225364   0.702   2.125   6.292  0.7734  1.5655  0.1740
   67MOL   H15325365   0.559   2.025   6.349  2.4322 -0.4203 -1.7925
   67MOL   C15425366   1.089   2.492   6.610 -0.4530 -0.7613 -0.2552
   67MOL   C15525367   1.196   2.428   6.700 -0.5481 -0.5179 -0.5390
   67MOL   C15625368   1.329   2.490   6.645  0.6697  0.0278  0.2377
   67MOL   C15725369   1.458   2.461   6.721 -0.4044 -0.1718  0.1397
   67MOL   C15825370   1.585   2.497   6.635  0.2285  0.1429 -0.3939
   67MOL   C15925371   1.722   2.498   6.710  0.7128 -0.2132  0.2765
   67MOL   O16025372   1.187   2.467   6.836  0.2032 -0.5208 -0.6192
   67MOL   H16125373   1.071   2.595   6.640  0.7588 -0.6166  0.0102
   67MOL   H16225374   1.120   2.483   6.506 -0.3044 -0.9987 -0.1913
   67MOL   H16325375   1.197   2.321   6.679 -1.3801 -0.7452  0.5621
   67MOL   H16425376   1.304   2.596   6.651 -0.5961 -0.3014  1.0763
   67MOL   H16525377   1.336   2.458   6.541  0.4281  0.5551  0.0595
   67MOL   H16625378   1.459   2.353   6.740  1.0812  0.0091  1.2181
   67MOL   H16725379   1.450   2.507   6.819 -1.0492 -1.5823  0.7587
   67MOL   H16825380   1.582   2.430   6.550  0.2813 -0.1577 -0.1617
   67MOL   H16925381   1.564   2.594   6.589 -0.8791 -0.9434 -2.1941
   67MOL   H17025382   1.777   2.552   6.633  1.0892 -1.2009 -0.1561
   67MOL   H17125383   1.760   2.403   6.746 -1.0235 -0.0984  2.5890
   67MOL   H17225384   1.719   2.565   6.796  0.7334 -0.2095  0.2742
   67MOL   C17325385   1.133   2.364   6.919 -0.2055  0.2775 -0.4802
   67MOL   C17425386   1.120   2.402   7.062 -0.2703  0.0019  0.8542
   67MOL   C17525387   1.000   2.320   7.134 -0.2773  0.0594 -0.0744
   67MOL   C17625388   0.976   2.372   7.279  0.1471  0.1424 -0.0932
   67MOL   C17725389   0.856   2.308   7.346 -0.0769 -0.7219 -0.1692
   67MOL   C17825390   0.838   2.354   7.494  0.0790 -0.4623  0.3212
   67MOL   O17925391   1.233   2.373   7.144  0.4161  0.1990 -0.0343
   67MOL   H18025392   1.205   2.283   6.913 -1.4245 -0.9745  1.2052
   67MOL   H18125393   1.039   2.328   6.877  0.6219 -0.6941 -1.5168
   67MOL   H18225394   1.091   2.506   7.080 -0.5481  0.0144  0.3266
   67MOL   H18325395   0.910   2.343   7.078 -0.8442  0.5301  1.0321
   67MOL   H18425396   1.023   2.213   7.135  0.3862  0.1915 -0.4551
   67MOL   H18525397   1.066   2.355   7.338 -1.1379 -0.4922  1.7269
   67MOL   H18625398   0.948   2.477   7.269  1.7574  0.7357  1.4347
   67MOL   H18725399   0.780   2.338   7.274  0.0521 -1.1500 -0.4867
   67MOL   H18825400   0.857   2.199   7.346  0.9371 -0.7166  1.5964
   67MOL   H18925401   0.933   2.382   7.541 -0.6043  0.0633  1.4118
   67MOL   H19025402   0.781   2.280   7.551  0.7069 -1.2746 -0.0974
   67MOL   H19125403   0.777   2.441   7.519  2.0496  1.0836 -0.1652
   67MOL   C19225404   1.353   2.450   7.128 -0.2084  0.1304  0.3880
   67MOL   C19325405   1.466   2.386   7.206 -0.1589  0.5420 -0.5092
   67MOL   C19425406   1.479   2.232   7.176  0.2790 -0.2467  0.1619
   67MOL   C19525407   1.582   2.157   7.254 -0.4673  0.3170  0.0573
   67MOL   C19625408   1.622   2.030   7.189  0.0831  0.4157 -0.6243
   67MOL   C19725409   1.726   1.958   7.261  0.6713 -0.2517  0.2231
   67MOL   O19825410   1.472   2.429   7.343  0.3053 -0.5368 -0.4623
   67MOL   H19925411   1.370   2.465   7.021 -1.6017  0.5661  0.2295
   67MOL   H20025412   1.324   2.550   7.157 -1.6213  0.3829 -1.7627
   67MOL   H20125413   1.559   2.425   7.165  0.0495 -0.2994 -0.8374
   67MOL   H20225414   1.379   2.190   7.185 -0.1432  0.8696  0.7563
   67MOL   H20325415   1.519   2.236   7.074 -0.8031  1.2723 -0.2252
   67MOL   H20425416   1.532   2.131   7.347 -1.7876 -1.6771 -1.1749
   67MOL   H20525417   1.672   2.216   7.277 -0.4234  1.2889 -2.3577
   67MOL   H20625418   1.536   1.965   7.171  1.6785 -1.2935 -2.3797
   67MOL   H20725419   1.653   2.058   7.088 -0.2479  1.5713 -0.4062
   67MOL   H20825420   1.759   1.858   7.233  0.7474 -0.1620 -0.0059
   67MOL   H20925421   1.815   2.020   7.249  1.0044 -0.6394  0.6466
   67MOL   H21025422   1.706   1.948   7.368  0.6398  0.2323  0.2615
   67MOL   C21125423   1.350   2.395   7.417  0.2834  0.9048 -0.2921
   67MOL   C21225424   1.386   2.367   7.564  0.2680  0.1600 -0.1037
   67MOL   C21325425   1.262   2.337   7.648  0.2911  0.0141  0.0421
   67MOL   C21425426   1.291   2.275   0.002 -0.4871  0.2436  0.0859
   67MOL   C21525427   1.166   2.245   0.090 -0.4767  0.1353 -0.1607
   67MOL   C21625428   1.221   2.159   0.203  0.6029 -0.0815  0.6482
   67MOL   O21725429   1.446   2.480   7.619 -0.3346  0.6045 -0.1895
   67MOL   H21825430   1.305   2.313   7.363  0.8024  1.0420 -0.9373
   67MOL   H21925431   1.278   2.475   7.399 -1.5206 -0.8933 -1.2121
   67MOL   H22025432   1.444   2.275   7.566  0.7338  0.4483 -0.2697
   67MOL   H22125433   1.202   2.427   7.658  0.7508  0.3179  0.0717
   67MOL   H22225434   1.202   2.263   7.594 -0.9217  1.2967 -0.3853
   67MOL   H22325435   1.349   2.183   7.776 -1.9509 -0.3739 -2.9205
   67MOL   H22425436   1.357   2.336   0.063  1.1308  1.5042 -2.8531
   67MOL   H22525437   1.111   2.335   0.118  0.8679  2.1336 -3.6139
   67MOL   H22625438   1.099   2.180   0.032 -0.5836  0.2169 -0.1300
   67MOL   H22725439   1.308   2.203   0.253  2.1564  2.3474 -3.9122
   67MOL   H22825440   1.252   2.058   0.173  2.3075  0.7692 -0.5426
   67MOL   H22925441   1.147   2.158   0.283 -0.7252  0.9400 -0.5398
   67MOL   C23025442   1.576   2.460   7.683  0.5233  0.9578  0.5986
   67MOL   C23125443   1.650   2.590   7.728 -0.4463  0.3099  0.3951
   67MOL   C23225444   1.803   2.548   7.735 -0.2837 -0.0492 -0.4373
   67MOL   C23325445   1.886   2.668   7.760  0.0033  0.8779  0.1721
   67MOL   C23425446   2.031   2.631   7.716 -0.6152  0.0752 -0.1469
   67MOL   C23525447   2.130   2.744   7.733 -0.3936 -0.3411  0.0835
   67MOL   O23625448   1.605   2.626   0.068 -0.6312  0.4587 -0.3362
   67MOL   H23725449   1.572   2.393   7.769 -1.1227  1.4693  0.9334
   67MOL   H23825450   1.630   2.400   7.610  0.5409 -1.2831  2.3829
   67MOL   H23925451   1.643   2.671   7.656 -0.8554  0.5127  0.6691
   67MOL   H24025452   1.823   2.496   7.642 -2.4041 -1.8561  0.0755
   67MOL   H24125453   1.813   2.477   0.031  0.7304  1.2461  0.5958
   67MOL   H24225454   1.882   2.706   0.076  1.4669 -0.0626  0.6008
   67MOL   H24325455   1.856   2.749   7.693 -0.8563 -1.0938 -1.9106
   67MOL   H24425456   2.058   2.543   7.773 -0.6111  1.0222  1.3218
   67MOL   H24525457   2.036   2.608   7.609  1.3097  2.4127 -0.6003
   67MOL   H24625458   2.142   2.763   0.054  0.1587 -2.3093  0.3922
   67MOL   H24725459   2.097   2.830   7.674  0.1808  0.4582  0.9210
   67MOL   H24825460   2.226   2.721   7.685  0.6089  0.6512  1.5631
   67MOL   C24925461   1.464   2.650   0.085 -0.1892 -0.2176  0.5100
   67MOL   C25025462   1.445   2.755   0.199  0.1571  0.5334  0.1894
   67MOL   C25125463   1.306   2.746   0.266  0.4232 -0.1434  0.4749
   67MOL   C25225464   1.291   2.835   0.386  0.5965 -0.6489  0.6140
   67MOL   C25325465   1.158   2.798   0.457 -1.2222 -0.0222 -0.4815
   67MOL   C25425466   1.130   2.878   0.590  0.8689  0.4518  0.4392
   67MOL   O25525467   1.459   2.886   0.148  0.2089  0.4560  0.4386
   67MOL   H25625468   1.419   2.680   7.776  1.0336  0.0717  0.0057
   67MOL   H25725469   1.428   2.549   0.102 -0.5374 -0.5501 -2.0214
   67MOL   H25825470   1.516   2.747   0.282 -0.9711  1.0197  1.2072
   67MOL   H25925471   1.235   2.783   0.192  0.6478 -0.7370 -0.0426
   67MOL   H26025472   1.283   2.644   0.297  0.7766 -0.1601  0.6831
   67MOL   H26125473   1.378   2.835   0.452  0.3020  2.5081  1.0659
   67MOL   H26225474   1.288   2.941   0.363  3.0595 -0.3536  1.4719
   67MOL   H26325475   1.079   2.814   0.383 -1.8514 -1.4891 -0.1243
   67MOL   H26425476   1.152   2.693   0.485  0.5488  0.1808  0.7444
   67MOL   H26525477   1.146   2.983   0.566 -0.4727  1.0732  2.1620
   67MOL   H26625478   1.210   2.857   0.662  1.7160  0.7670 -0.4000
   67MOL   H26725479   1.030   2.869   0.632  0.3185  1.0670 -0.7122
   67MOL   C26825480   1.577   2.910   0.080 -0.8962  0.0577 -0.0913
   67MOL   C26925481   1.596   3.050   0.032 -0.4651  0.2568  1.2395
   67MOL   C27025482   1.714   3.080   7.718  0.0397  0.2497 -0.3945
   67MOL   C27125483   1.852   3.072   0.002 -0.3138  0.2260 -0.2865
   67MOL   C27225484   1.964   3.118   7.694 -0.3407  0.1121 -0.4516
   67MOL   C27325485   2.102   3.117   7.754  0.6286  0.0450  0.5077
   67MOL   O27425486   1.580   3.159   0.117  0.1690 -0.3415  0.3570
   67MOL   H27525487   1.572   2.854   7.773 -2.5755  0.0178  0.0085
   67MOL   H27625488   1.658   2.865   0.139 -2.2524 -1.6574  0.5061
   67MOL   H27725489   1.516   3.064   7.745  1.2555 -1.0413 -0.9487
   67MOL   H27825490   1.709   3.010   7.635 -3.4120  1.6940 -1.4973
   67MOL   H27925491   1.703   3.182   7.681  0.3908  0.2172 -0.5918
   67MOL   H28025492   1.849   3.133   0.092 -0.8151 -0.3567  0.0987
   67MOL   H28125493   1.860   2.970   0.038 -1.5081  1.4541  3.6948
   67MOL   H28225494   1.964   3.051   7.609  0.3946 -1.5037  0.7973
   67MOL   H28325495   1.941   3.221   7.666  1.4350  0.8627  0.7001
   67MOL   H28425496   2.167   3.178   7.691  0.8126 -0.2103  0.4494
   67MOL   H28525497   2.108   3.153   0.071  0.5420 -0.5243  0.7138
   67MOL   H28625498   2.138   3.015   7.755  0.2974 -0.0626  1.1981
   67MOL   C28725499   1.452   3.184   0.178  0.0123  0.8837 -0.5982
   67MOL   C28825500   1.430   3.328   0.212  1.1760 -0.6230  0.0524
   67MOL   C28925501   1.295   3.357   0.284 -0.4342 -0.2064  0.0110
   67MOL   C29025502   1.280   3.278   0.418 -0.2386  0.2080  0.1000
   67MOL   C29125503   1.407   3.271   0.515  0.1201 -0.6087  0.0172
   67MOL   C29225504   1.381   3.190   0.645 -0.5191 -0.0313  0.2357
   67MOL   O29325505   1.405   3.411   0.095 -0.5228 -0.1703 -0.1626
   67MOL   H29425506   1.442   3.111   0.259 -0.7648  0.6396 -0.9054
   67MOL   H29525507   1.369   3.158   0.113 -0.4205 -1.6345  0.8904
   67MOL   H29625508   1.509   3.368   0.275  1.8644  0.0819 -1.2361
   67MOL   H29725509   1.295   3.464   0.302  1.2995 -0.4565  1.6908
   67MOL   H29825510   1.212   3.322   0.222 -0.6156  0.8512 -0.3379
   67MOL   H29925511   1.195   3.318   0.473 -0.0637 -1.3577  1.5616
   67MOL   H30025512   1.260   3.172   0.398 -0.2921 -0.2176  2.3100
   67MOL   H30125513   1.443   3.372   0.535 -0.3899  0.2968 -3.3052
   67MOL   H30225514   1.496   3.223   0.474 -1.1262 -1.3099 -1.9733
   67MOL   H30325515   1.466   3.219   0.707  0.5800  2.4692 -2.3352
   67MOL   H30425516   1.298   3.210   0.713 -1.7534 -2.3179 -0.5536
   67MOL   H30525517   1.380   3.082   0.627 -1.6216 -0.3029  1.7834
   67MOL   C30625518   1.521   3.472   0.048  0.7554  0.4002  0.5060
   67MOL   C30725519   1.483   3.550   7.702  0.6582 -0.1868 -0.3791
   67MOL   C30825520   1.609   3.565   7.616  0.0988 -0.0113 -0.3717
   67MOL   C30925521   1.584   3.634   7.491  0.1182 -0.7622  0.2221
   67MOL   C31025522   1.681   3.616   7.383  0.2002 -0.2535 -0.1517
   67MOL   C31125523   1.613   3.617   7.245  0.2790 -0.3996 -0.0650
   67MOL   O31225524   1.443   3.691   7.721 -0.0497 -0.1199  0.2900
   67MOL   H31325525   1.566   3.539   0.121  2.0759  1.9791 -1.7016
   67MOL   H31425526   1.585   3.387   0.026 -1.6366 -1.2450 -0.3443
   67MOL   H31525527   1.399   3.501   7.652  0.7609  0.2395 -0.9734
   67MOL   H31625528   1.655   3.468   7.597 -0.8144 -0.4701 -0.2809
   67MOL   H31725529   1.688   3.615   7.672  0.2948 -0.1397 -0.5335
   67MOL   H31825530   1.488   3.593   7.458  0.3161  0.8265 -2.3905
   67MOL   H31925531   1.557   3.740   7.495  1.8930 -0.1702 -2.5956
   67MOL   H32025532   1.730   3.519   7.391  2.5083  0.9203  0.3864
   67MOL   H32125533   1.757   3.694   7.396 -0.8238  0.8013 -0.3433
   67MOL   H32225534   1.680   3.582   7.167 -3.1938 -1.6807 -2.6073
   67MOL   H32325535   1.535   3.542   7.235  0.9845 -1.0342 -0.9584
   67MOL   H32425536   1.586   3.717   7.210  1.4483  0.7394  2.2268
   67MOL   C32525537   1.336   3.698   0.026  0.0497  0.2014  0.2901
   67MOL   C32625538   1.292   3.839   0.064 -0.5583  0.1517  0.8093
   67MOL   C32725539   1.217   3.846   0.192 -0.1172  0.7197  0.2346
   67MOL   C32825540   1.092   3.756   0.217  0.3296  0.3445 -0.5232
   67MOL   C32925541   1.021   3.781   0.353  0.5619 -0.3230 -0.3545
   67MOL   C33025542   0.889   3.704   0.379 -0.0170  0.0005  0.3692
   67MOL   O33125543   1.210   3.876   7.745 -0.0088 -0.0050 -0.2897
   67MOL   H33225544   1.360   3.656   0.124 -1.0155  0.2778  0.5863
   67MOL   H33325545   1.258   3.633   7.772  0.7583 -0.7002  0.3574
   67MOL   H33425546   1.386   3.894   0.069 -1.0580  0.9779  1.3515
   67MOL   H33525547   1.293   3.830   0.269 -0.2348  0.9086  0.3907
   67MOL   H33625548   1.178   3.945   0.212 -0.0387  1.0671 -1.2838
   67MOL   H33725549   1.021   3.786   0.141  1.3317  2.1451 -0.7773
   67MOL   H33825550   1.122   3.651   0.213 -2.4942 -0.6313  2.0016
   67MOL   H33925551   1.096   3.745   0.424 -0.0435 -0.8051  0.0370
   67MOL   H34025552   1.001   3.888   0.366  2.6996  0.0264  0.2801
   67MOL   H34125553   0.811   3.731   0.308  0.4612  2.1349  0.6285
   67MOL   H34225554   0.897   3.596   0.368  1.2541 -0.0297  1.5492
   67MOL   H34325555   0.864   3.728   0.482  2.3728  1.6988  0.5805
   67MOL   C34425556   1.268   3.954   7.647 -0.2782  0.4141 -0.1351
   67MOL   C34525557   1.176   3.987   7.526  0.5567  0.2448  0.1810
   67MOL   C34625558   1.105   3.863   7.478  0.3350  0.8699  0.4179
   67MOL   C34725559   1.195   3.761   7.406 -0.2710 -0.1433 -0.1633
   67MOL   C34825560   1.116   3.654   7.342  1.0067  0.3101 -0.1929
   67MOL   C34925561   1.190   3.533   7.286 -0.2584 -0.7894 -0.0532
   67MOL   O35025562   1.086   4.092   7.541  0.0219 -0.0663  0.1502
   67MOL   H35125563   1.353   3.894   7.614  1.3313  1.8297  1.2821
   67MOL   H35225564   1.319   4.040   7.691 -0.5065 -0.6151  2.2231
   67MOL   H35325565   1.244   4.014   7.445  0.8059 -2.1406 -0.4337
   67MOL   H35425566   1.035   3.889   7.398 -1.1009  0.6035  1.5859
   67MOL   H35525567   1.046   3.808   7.551  0.2352 -0.1228 -0.4015
   67MOL   H35625568   1.245   3.701   7.481  0.1692 -0.2507 -0.5432
   67MOL   H35725569   1.263   3.805   7.334  0.9490  0.7984  1.5232
   67MOL   H35825570   1.051   3.700   7.267  0.5644 -1.1159 -0.6968
   67MOL   H35925571   1.040   3.616   7.411  0.7915  1.5014  0.2487
   67MOL   H36025572   1.129   3.464   7.228 -2.2280  0.9640 -0.1148
   67MOL   H36125573   1.247   3.485   7.366  0.2544  1.3263  0.8822
   67MOL   H36225574   1.268   3.563   7.217 -0.2417 -1.0115 -0.1291
   67MOL   C36325575   0.988   4.093   7.640 -0.6661  0.4847  0.4758
   67MOL   C36425576   1.009   4.197   7.750 -0.4421  0.0022  0.0334
   67MOL   C36525577   0.885   4.207   0.054 -0.8512 -0.4993 -0.3065
   67MOL   C36625578   0.830   4.075   0.122  0.1684  0.5939  0.4097
   67MOL   C36725579   0.719   4.091   0.229  0.3816  0.8601 -0.5073
   67MOL   C36825580   0.774   4.155   0.360  0.4987  0.1741  0.4450
   67MOL   O36925581   1.124   4.153   0.041  0.0400  0.4239 -0.3685
   67MOL   H37025582   0.984   3.995   7.688 -0.6881  0.2105 -0.0779
   67MOL   H37125583   0.897   4.112   7.583  0.1927 -1.2844 -1.5251
   67MOL   H37225584   1.011   4.296   7.706 -0.2449  0.3904  0.8982
   67MOL   H37325585   0.911   4.281   0.130  0.3248 -1.9987  0.7803
   67MOL   H37425586   0.804   4.249   7.780 -1.0493  0.2624  0.4854
   67MOL   H37525587   0.798   3.999   0.051  1.1606 -0.7255  1.3490
   67MOL   H37625588   0.914   4.037   0.180 -1.1167 -2.0930  0.6016
   67MOL   H37725589   0.639   4.147   0.180  0.2761  1.6804  0.5990
   67MOL   H37825590   0.681   3.990   0.241  1.2519  0.6069  0.1476
   67MOL   H37925591   0.800   4.260   0.351 -0.0368  0.4570  2.0508
   67MOL   H38025592   0.698   4.145   0.437 -0.1340 -2.6034 -0.4583
   67MOL   H38125593   0.866   4.104   0.390 -1.2166 -1.1740  3.6219
   67MOL   H38225594   1.152   4.064   0.022  0.2629 -0.6842  4.4839
   68MOL     C125595   5.931   1.907   2.559 -0.2075  1.3286 -0.0871
   68MOL     C225596   5.986   1.766   2.568  0.4781  0.0373  0.2263
   68MOL     C325597   5.971   1.687   2.441  0.0262  0.3883 -0.0943
   68MOL     C425598   6.006   1.538   2.474 -0.3222  0.0297 -0.1072
   68MOL     C525599   5.962   1.428   2.374  0.1109 -0.1679  0.0933
   68MOL     C625600   6.002   1.277   2.408  0.1097  0.1555  0.2355
   68MOL     O725601   6.121   1.770   2.598  0.3314 -0.3272  0.0793
   68MOL     H825602   5.827   1.897   2.528 -0.5548 -1.5269  1.7962
   68MOL     H925603   5.979   1.964   2.480 -0.5636 -0.5268 -1.6609
   68MOL    H1025604   5.924   1.715   2.642  0.2164  0.9808  0.6542
   68MOL    H1125605   5.874   1.713   2.400  0.0454 -0.3094 -0.5804
   68MOL    H1225606   6.051   1.722   2.375  0.3125 -0.7490 -0.3573
   68MOL    H1325607   6.115   1.533   2.487 -0.4094 -0.6517  0.3865
   68MOL    H1425608   5.969   1.515   2.573 -1.2911  1.2329 -0.1887
   68MOL    H1525609   5.862   1.433   2.331  1.0553 -0.0220 -2.1143
   68MOL    H1625610   6.013   1.457   2.283  1.8722 -1.8644  0.4911
   68MOL    H1725611   6.109   1.261   2.409 -0.1708 -1.7823  1.3157
   68MOL    H1825612   5.962   1.251   2.506  0.9368  1.1562  0.8522
   68MOL    H1925613   5.959   1.205   2.338 -1.8600 -1.6429  3.1890
   68MOL    H2025614   5.931   1.972   2.647 -0.4464  0.4034  0.6000
   68MOL    C2125615   6.153   1.795   2.734 -0.2240 -0.8940 -0.0788
   68MOL    C2225616   6.281   1.883   2.741 -0.4020  0.3373 -0.3399
   68MOL    C2325617   6.241   2.025   2.702  0.1742  0.2060  0.7600
   68MOL    C2425618   6.351   2.137   2.708  0.6986 -0.4742  0.9000
   68MOL    C2525619   6.311   2.266   2.639 -0.4488 -0.5745  0.8315
   68MOL    C2625620   6.202   2.342   2.712  0.3480 -0.5768  0.8977
   68MOL    O2725621   6.331   1.909   2.875 -0.3566  0.1723  0.4506
   68MOL    H2825622   6.068   1.848   2.777  0.1158 -0.2946 -0.1456
   68MOL    H2925623   6.164   1.696   2.779 -1.7449 -0.5114  1.2012
   68MOL    H3025624   6.358   1.846   2.673 -0.0490  1.7839 -0.7443
   68MOL    H3125625   6.153   2.060   2.756  0.4129 -1.3887  2.2516
   68MOL    H3225626   6.215   2.029   2.597  0.9940  0.2400  0.5527
   68MOL    H3325627   6.440   2.118   2.648  2.6454  2.1590  2.8117
   68MOL    H3425628   6.383   2.162   2.809  2.4926 -0.6731  0.3921
   68MOL    H3525629   6.388   2.342   2.628 -2.0398  0.7869 -1.3081
   68MOL    H3625630   6.287   2.250   2.534  2.0796  1.5077 -0.1008
   68MOL    H3725631   6.116   2.283   2.743  0.2856  0.3577  2.5717
   68MOL    H3825632   6.172   2.422   2.644 -1.7532 -0.3402  2.0565
   68MOL    H3925633   6.237   2.405   2.794  1.8998 -0.1982 -0.0476
   68MOL    C4025634   6.393   1.800   2.924 -0.0845  0.3559 -0.0045
   68MOL    C4125635   6.467   1.817   3.064  0.6324 -0.5338  0.4131
   68MOL    C4225636   6.618   1.848   3.053 -0.6193 -0.1151  0.1616
   68MOL    C4325637   6.646   1.984   2.981  0.2658 -0.0659 -0.2582
   68MOL    C4425638   6.791   2.030   2.981 -0.7490 -0.2406  0.0370
   68MOL    C4525639   6.878   1.927   2.905 -0.5396  0.2037 -0.5032
   68MOL    O4625640   6.435   1.700   3.131  0.2202  0.5180 -0.1588
   68MOL    H4725641   6.471   1.761   2.859 -1.5549 -1.6007 -0.6566
   68MOL    H4825642   6.310   1.729   2.927  0.2274 -0.1290 -2.0242
   68MOL    H4925643   6.420   1.892   3.127 -1.0870 -1.3802  0.1788
   68MOL    H5025644   6.658   1.855   3.154  2.0125 -1.6590 -0.7213
   68MOL    H5125645   6.672   1.770   3.000  1.1032 -0.1194  1.8456
   68MOL    H5225646   6.582   2.060   3.026 -0.1527 -1.2499  1.1802
   68MOL    H5325647   6.613   1.984   2.877 -1.8783 -0.4844  0.4012
   68MOL    H5425648   6.801   2.117   2.917  0.5903 -1.2326 -1.1355
   68MOL    H5525649   6.822   2.033   3.086 -1.0544  1.8819  0.0960
   68MOL    H5625650   6.849   1.908   2.802  0.3322 -0.2720 -0.6683
   68MOL    H5725651   6.985   1.949   2.904 -0.3703 -0.4983  0.2578
   68MOL    H5825652   6.869   1.831   2.956 -2.0011  0.3254 -0.5375
   68MOL    C5925653   6.319   1.703   3.219 -0.3881 -0.4059  0.0156
   68MOL    C6025654   6.363   1.738   3.361  0.6924 -0.0504  1.1377
   68MOL    C6125655   6.275   1.836   3.449  0.1492 -0.1620  0.4327
   68MOL    C6225656   6.351   1.901   3.562  0.0407 -0.0786 -0.2487
   68MOL    C6325657   6.262   1.989   3.654  1.1234 -0.0407  0.5380
   68MOL    C6425658   6.220   2.127   3.594  0.1856  0.0584 -0.8883
   68MOL    O6525659   6.401   1.623   3.435  0.1428  0.1124 -0.3366
   68MOL    H6625660   6.293   1.598   3.220  1.2688 -0.8164  0.4910
   68MOL    H6725661   6.242   1.770   3.180 -0.0442 -0.1370 -0.2088
   68MOL    H6825662   6.458   1.791   3.351  1.4132 -1.3347  0.9915
   68MOL    H6925663   6.193   1.774   3.484  0.8243 -1.1642  0.2546
   68MOL    H7025664   6.225   1.908   3.384 -0.5479 -0.2502  0.8683
   68MOL    H7125665   6.428   1.961   3.512 -1.1848  1.6016 -0.1865
   68MOL    H7225666   6.394   1.822   3.623 -2.1221 -0.2503  1.0958
   68MOL    H7325667   6.312   2.011   3.748 -1.4192  2.3615  1.4175
   68MOL    H7425668   6.175   1.932   3.687  1.5012 -1.2023 -0.4266
   68MOL    H7525669   6.149   2.110   3.513  1.1990 -1.8217 -1.4091
   68MOL    H7625670   6.174   2.195   3.666  1.8743  2.2351 -1.7936
   68MOL    H7725671   6.303   2.181   3.547  0.8892  0.8452  1.2002
   68MOL    C7825672   6.532   1.563   3.399  0.7099  0.0743 -0.3182
   68MOL    C7925673   6.544   1.436   3.486  1.1462  0.5981 -0.0672
   68MOL    C8025674   6.688   1.413   3.534  0.1647  0.0595 -0.3693
   68MOL    C8125675   6.683   1.311   3.647  0.2218  0.4478 -0.8176
   68MOL    C8225676   6.825   1.288   3.710 -0.7016 -0.0692  0.3868
   68MOL    C8325677   6.798   1.175   3.819  0.2896  0.1028  0.3564
   68MOL    O8425678   6.490   1.322   3.418 -0.1483  0.1205 -0.0964
   68MOL    H8525679   6.604   1.639   3.428  0.7909  0.3127 -1.1224
   68MOL    H8625680   6.538   1.556   3.290 -0.8748 -0.1762 -0.3969
   68MOL    H8725681   6.494   1.446   3.582  2.4131  4.9350  0.2468
   68MOL    H8825682   6.748   1.380   3.449 -1.2391  0.7328 -1.6350
   68MOL    H8925683   6.721   1.504   3.584 -0.6635  0.1519  0.0038
   68MOL    H9025684   6.636   1.217   3.619  0.8178 -0.6174  1.5811
   68MOL    H9125685   6.622   1.356   3.725  0.4463  2.3362 -1.6987
   68MOL    H9225686   6.899   1.265   3.634 -0.2606  4.5749 -0.7365
   68MOL    H9325687   6.862   1.374   3.767  0.8774 -1.7477  1.9542
   68MOL    H9425688   6.885   1.111   3.835  0.9491  1.0266  0.4766
   68MOL    H9525689   6.721   1.102   3.792  1.8123 -1.0376 -1.0499
   68MOL    H9625690   6.766   1.222   3.912 -0.7115 -0.0705  0.1031
   68MOL    C9725691   6.356   1.301   3.449 -0.1005 -0.1703  0.4975
   68MOL    C9825692   6.283   1.199   3.345 -0.3554 -0.4269 -0.8922
   68MOL    C9925693   6.153   1.151   3.409 -0.4088  0.2478 -0.8979
   68MOL   C10025694   6.077   1.054   3.323  0.1635  0.5953  0.7112
   68MOL   C10125695   5.987   0.962   3.407  0.5856 -0.1974  0.5965
   68MOL   C10225696   5.915   0.846   3.335 -0.4049 -0.7763  0.5838
   68MOL   O10325697   6.236   1.253   3.225 -0.2133  0.3158  0.1724
   68MOL   H10425698   6.308   1.399   3.452 -0.8382 -0.4754 -0.8684
   68MOL   H10525699   6.343   1.267   3.552 -1.5479 -0.6801  0.1515
   68MOL   H10625700   6.348   1.115   3.318  1.4966  1.3236 -2.0390
   68MOL   H10725701   6.091   1.235   3.441  0.8993  0.2987  1.5654
   68MOL   H10825702   6.181   1.105   3.503 -0.9312  0.7992 -0.4643
   68MOL   H10925703   6.149   0.998   3.264  0.8940  1.4612  0.7676
   68MOL   H11025704   6.019   1.104   3.245  0.8062 -0.0496 -0.1830
   68MOL   H11125705   5.922   1.020   3.474 -2.0248 -2.6143  0.2557
   68MOL   H11225706   6.056   0.918   3.479 -0.4751 -0.9530  1.1713
   68MOL   H11325707   5.852   0.895   3.261 -0.1532 -0.2831  0.6944
   68MOL   H11425708   5.966   0.763   3.287 -3.6800 -1.9898 -0.9146
   68MOL   H11525709   5.847   0.801   3.407 -0.8525  0.6878  1.0954
   68MOL   C11625710   6.330   1.316   3.138 -0.8446  0.0688 -0.7597
   68MOL   C11725711   6.259   1.375   3.015  0.0095  0.3453 -0.4757
   68MOL   C11825712   6.364   1.410   2.915  0.0905 -0.0677 -0.7052
   68MOL   C11925713   6.300   1.414   2.774 -0.3257  0.3333  0.0829
   68MOL   C12025714   6.391   1.475   2.674  0.2172 -0.1202  0.0060
   68MOL   C12125715   6.519   1.403   2.635 -0.4962 -0.3957 -0.7791
   68MOL   O12225716   6.174   1.486   3.036 -0.0149  0.4489 -0.0808
   68MOL   H12325717   6.383   1.395   3.190 -1.3101  0.4257 -0.8281
   68MOL   H12425718   6.405   1.243   3.108  0.3246  0.9745 -0.0867
   68MOL   H12525719   6.207   1.287   2.977  0.2627  0.9288 -2.2300
   68MOL   H12625720   6.399   1.511   2.939  0.7050  0.1204 -2.3197
   68MOL   H12725721   6.454   1.350   2.920  0.3660  0.2986 -1.1910
   68MOL   H12825722   6.210   1.476   2.779 -2.0029 -1.9325 -1.2612
   68MOL   H12925723   6.270   1.316   2.740 -2.5142  1.3127 -0.9087
   68MOL   H13025724   6.330   1.498   2.587  1.4026  2.6603 -0.1314
   68MOL   H13125725   6.413   1.575   2.711 -0.0920  0.7630 -2.1603
   68MOL   H13225726   6.497   1.314   2.576 -0.4880 -0.9071 -0.0198
   68MOL   H13325727   6.587   1.465   2.576 -0.0421  1.3366  1.4602
   68MOL   H13425728   6.569   1.375   2.728 -0.2587 -4.3526 -1.9977
   68MOL   C13525729   6.034   1.458   3.046 -0.3444 -0.5739  0.1257
   68MOL   C13625730   5.960   1.576   3.111  0.6056 -0.0338  0.2960
   68MOL   C13725731   5.956   1.704   3.016 -0.4536 -0.1588 -0.0072
   68MOL   C13825732   5.862   1.817   3.069 -0.5123 -0.2355  0.5763
   68MOL   C13925733   5.712   1.779   3.090 -0.5682  0.4310  0.8225
   68MOL   C14025734   5.640   1.732   2.962  0.7986 -0.2780  0.3010
   68MOL   O14125735   6.012   1.619   3.232  0.0527 -0.0276  0.0607
   68MOL   H14225736   6.005   1.423   2.946  1.3184  0.5421 -0.7662
   68MOL   H14325737   6.018   1.373   3.113 -1.6047 -0.3900  0.0673
   68MOL   H14425738   5.857   1.543   3.127  0.2843  0.2527 -1.1225
   68MOL   H14525739   6.055   1.748   3.016  0.8388 -2.9202  1.6826
   68MOL   H14625740   5.933   1.667   2.916 -0.2688 -1.9732  0.5998
   68MOL   H14725741   5.877   1.907   3.009 -1.6676 -2.1306 -2.7204
   68MOL   H14825742   5.905   1.840   3.166  1.7077 -0.7386 -0.2568
   68MOL   H14925743   5.665   1.873   3.121 -0.2504  1.2563 -1.1238
   68MOL   H15025744   5.697   1.706   3.170 -0.6431  0.4955  0.8679
   68MOL   H15125745   5.682   1.634   2.940 -3.1607 -2.2484  1.0595
   68MOL   H15225746   5.535   1.707   2.980  0.4497 -1.2467 -2.9275
   68MOL   H15325747   5.648   1.805   2.881 -0.2781  1.8549  2.0399
   68MOL   C15425748   5.992   1.526   3.337 -0.4197  0.5072 -0.2928
   68MOL   C15525749   5.850   1.522   3.402  0.6012  0.7755 -0.2275
   68MOL   C15625750   5.799   1.664   3.449  0.8146  0.1623  0.8318
   68MOL   C15725751   5.863   1.729   3.571  0.1269 -0.1645 -0.0047
   68MOL   C15825752   5.797   1.856   3.619 -0.5256  0.0577  0.2361
   68MOL   C15925753   5.764   1.963   3.511 -0.0528 -0.4494  0.1083
   68MOL   O16025754   5.754   1.469   3.316 -0.2217 -0.0041 -0.4843
   68MOL   H16125755   6.062   1.550   3.417  1.2012  1.0250 -1.8244
   68MOL   H16225756   6.026   1.429   3.300 -3.8074 -1.2020  0.8468
   68MOL   H16325757   5.856   1.459   3.491  1.3032  0.7997 -0.2562
   68MOL   H16425758   5.693   1.658   3.470  0.1196 -0.3994 -2.5237
   68MOL   H16525759   5.812   1.726   3.360  0.0212  1.5597  1.6828
   68MOL   H16625760   5.969   1.741   3.551  0.4358 -0.5983  1.3403
   68MOL   H16725761   5.849   1.658   3.652  0.5894  0.8588  0.9758
   68MOL   H16825762   5.703   1.831   3.668  0.0233 -1.2393  0.6339
   68MOL   H16925763   5.863   1.905   3.690 -0.7411  1.1231 -0.2859
   68MOL   H17025764   5.852   1.992   3.455 -0.5998 -0.4031 -0.7366
   68MOL   H17125765   5.719   2.049   3.562  0.5694  0.1310 -0.3203
   68MOL   H17225766   5.689   1.919   3.445 -0.6141 -0.9252  1.0519
   68MOL   C17325767   5.734   1.328   3.339  0.9066  0.6156 -0.2665
   68MOL   C17425768   5.631   1.271   3.240 -0.0715 -0.3134  0.4361
   68MOL   C17525769   5.597   1.123   3.277 -0.5141  0.1560 -0.4814
   68MOL   C17625770   5.452   1.073   3.233 -0.1871  0.1612  0.0883
   68MOL   C17725771   5.415   0.935   3.278  0.0299 -0.6266 -0.1631
   68MOL   C17825772   5.267   0.893   3.231  0.8322  0.0458  0.1757
   68MOL   O17925773   5.513   1.336   3.247 -0.7117 -0.3828 -0.3143
   68MOL   H18025774   5.685   1.312   3.435  0.7584 -0.8097 -0.5629
   68MOL   H18125775   5.826   1.271   3.347  0.4038  0.0286  1.6509
   68MOL   H18225776   5.676   1.270   3.141  0.2099 -1.5675  0.5655
   68MOL   H18325777   5.671   1.052   3.240 -0.9575 -1.8925  2.3498
   68MOL   H18425778   5.615   1.098   3.382 -0.0711 -0.5607 -0.7238
   68MOL   H18525779   5.385   1.146   3.280  0.2405 -0.3141  1.4522
   68MOL   H18625780   5.444   1.078   3.124  0.4665 -0.7859 -0.0001
   68MOL   H18725781   5.487   0.868   3.233 -0.6792 -1.0993 -0.6176
   68MOL   H18825782   5.402   0.926   3.386  1.4391 -2.4377 -0.1411
   68MOL   H18925783   5.188   0.937   3.292 -0.5004 -0.1843 -1.3730
   68MOL   H19025784   5.250   0.786   3.231  1.2148 -0.0400  2.1066
   68MOL   H19125785   5.243   0.918   3.128 -1.1581 -2.1725  0.0738
   68MOL   C19225786   5.485   1.422   3.141 -0.1406 -0.3545  0.2707
   68MOL   C19325787   5.354   1.490   3.169 -0.5546  0.8140  0.3365
   68MOL   C19425788   5.296   1.536   3.035  0.4505 -0.5516 -0.2730
   68MOL   C19525789   5.148   1.570   3.034  0.0864 -0.7110  0.5739
   68MOL   C19625790   5.082   1.563   2.888  0.4342 -0.6858  0.3102
   68MOL   C19725791   5.149   1.655   2.774 -0.0810 -0.2890 -0.6321
   68MOL   O19825792   5.385   1.612   3.241  0.1937 -0.1750  0.0975
   68MOL   H19925793   5.554   1.506   3.134 -0.8314  0.0992 -1.2994
   68MOL   H20025794   5.484   1.372   3.044  3.1569 -1.6781  0.8431
   68MOL   H20125795   5.296   1.411   3.218  2.2360  0.2955  2.9800
   68MOL   H20225796   5.345   1.630   3.009  1.5883 -0.0607  3.3092
   68MOL   H20325797   5.318   1.459   2.961 -3.2571 -0.8422 -1.1342
   68MOL   H20425798   5.135   1.670   3.074  0.4625 -0.8458  1.0368
   68MOL   H20525799   5.099   1.498   3.099  0.3783 -0.3118  1.2336
   68MOL   H20625800   5.082   1.458   2.857 -1.3806 -0.7836  0.5732
   68MOL   H20725801   4.975   1.582   2.889  0.9383  2.5926 -0.8878
   68MOL   H20825802   5.099   1.639   2.679 -1.0016 -0.9614 -0.0375
   68MOL   H20925803   5.143   1.761   2.799  2.7743 -0.3892  0.6618
   68MOL   H21025804   5.256   1.633   2.767 -0.2927 -1.7162  0.2205
   68MOL   C21125805   5.335   1.635   3.373 -0.0256 -0.5637 -0.2523
   68MOL   C21225806   5.389   1.772   3.407 -1.0078 -0.4820  0.1048
   68MOL   C21325807   5.370   1.785   3.555  0.6847 -1.3869 -0.1619
   68MOL   C21425808   5.402   1.922   3.613 -0.3613  0.0742 -0.3635
   68MOL   C21525809   5.379   1.930   3.766  0.1837 -0.3893  0.9475
   68MOL   C21625810   5.434   2.067   3.811  0.2562 -0.4304  0.2771
   68MOL   O21725811   5.316   1.878   3.338 -0.1026  0.5490  0.2082
   68MOL   H21825812   5.382   1.564   3.441 -0.2267  0.4782  0.9931
   68MOL   H21925813   5.227   1.621   3.370 -0.2468  0.8860  0.6096
   68MOL   H22025814   5.496   1.787   3.390 -1.7301 -0.8704 -5.7987
   68MOL   H22125815   5.267   1.757   3.579  0.8735 -1.1209  0.9567
   68MOL   H22225816   5.436   1.716   3.607  0.5281 -0.0665  1.8314
   68MOL   H22325817   5.510   1.928   3.601  0.0330 -0.4643  2.4107
   68MOL   H22425818   5.352   2.003   3.559  2.8707  1.6514 -1.0848
   68MOL   H22525819   5.271   1.921   3.770  0.0162  1.3415  0.5338
   68MOL   H22625820   5.421   1.848   3.824 -0.5570 -0.7740  0.9423
   68MOL   H22725821   5.538   2.072   3.776  0.5539 -0.4343  1.1497
   68MOL   H22825822   5.443   2.073   3.919 -0.6931  0.2406  0.3158
   68MOL   H22925823   5.371   2.146   3.771  0.3039  0.3327  1.6918
   68MOL   C23025824   5.335   1.888   3.199  0.3268  0.0247 -0.2267
   68MOL   C23125825   5.300   2.035   3.147 -0.0373  0.4462 -0.2792
   68MOL   C23225826   5.257   2.031   3.001 -0.0688 -0.3592  0.6617
   68MOL   C23325827   5.362   1.993   2.898 -1.0776 -0.1743 -0.0152
   68MOL   C23425828   5.315   2.010   2.750 -0.3179 -0.4758 -0.4843
   68MOL   C23525829   5.296   2.159   2.712 -0.1272 -0.0185 -1.1728
   68MOL   O23625830   5.419   2.122   3.162 -0.1878  0.6825  0.2162
   68MOL   H23725831   5.441   1.867   3.180  0.3813 -0.2063  0.3309
   68MOL   H23825832   5.273   1.814   3.149 -1.5212  1.1889  0.2875
   68MOL   H23925833   5.212   2.053   3.209 -0.9355 -1.8086 -0.8473
   68MOL   H24025834   5.232   2.135   2.981  2.8431  0.0872 -0.8963
   68MOL   H24125835   5.167   1.970   2.989 -0.2694  0.3532 -1.7218
   68MOL   H24225836   5.391   1.889   2.912 -0.7203 -0.0932 -0.1643
   68MOL   H24325837   5.455   2.046   2.913 -1.7882  1.3285 -0.8208
   68MOL   H24425838   5.380   1.957   2.680 -1.1330  0.0738 -1.6580
   68MOL   H24525839   5.219   1.959   2.743 -1.3775  1.6970 -2.3720
   68MOL   H24625840   5.394   2.207   2.715 -1.5916  3.0907 -1.1834
   68MOL   H24725841   5.222   2.196   2.782  1.5599 -0.9516  1.1935
   68MOL   H24825842   5.255   2.181   2.614 -1.2758  2.3127 -0.2064
   68MOL   C24925843   5.474   2.139   3.285  0.0090 -0.4195  0.3395
   68MOL   C25025844   5.557   2.275   3.287 -0.6901  0.5523 -0.2354
   68MOL   C25125845   5.695   2.254   3.232 -0.3440 -0.0532 -0.2355
   68MOL   C25225846   5.710   2.240   3.083  0.1244  0.3768 -0.4866
   68MOL   C25325847   5.650   2.351   2.994  0.0153 -0.5093  0.3552
   68MOL   C25425848   5.701   2.333   2.849  0.6108  0.4950 -0.4241
   68MOL   O25525849   5.573   2.309   3.423 -0.7018  0.3004  0.1915
   68MOL   H25625850   5.400   2.137   3.365  0.1686  0.3043  0.5153
   68MOL   H25725851   5.544   2.055   3.286  0.7049  0.1262 -1.2229
   68MOL   H25825852   5.513   2.353   3.224 -1.4625  0.0856 -0.2779
   68MOL   H25925853   5.751   2.344   3.259 -0.1479 -0.1430 -0.3485
   68MOL   H26025854   5.746   2.170   3.277 -1.9847 -1.9164 -1.7636
   68MOL   H26125855   5.814   2.232   3.051  0.3497  1.1678  0.0421
   68MOL   H26225856   5.662   2.146   3.054  2.1819 -1.2537  1.2677
   68MOL   H26325857   5.542   2.356   2.990 -0.0070  1.7841  2.1751
   68MOL   H26425858   5.693   2.445   3.030  0.5003 -0.3950 -0.5075
   68MOL   H26525859   5.800   2.287   2.843  0.0654 -0.7548 -0.1266
   68MOL   H26625860   5.698   2.418   2.780  1.2641 -1.8408 -3.4719
   68MOL   H26725861   5.641   2.251   2.808  0.9480 -0.9777  1.9589
   68MOL   C26825862   5.482   2.408   3.457  0.5203 -0.2614 -0.1434
   68MOL   C26925863   5.466   2.414   3.606 -0.1724  0.3485  0.0325
   68MOL   C27025864   5.340   2.489   3.657 -0.1141  0.2346 -0.1847
   68MOL   C27125865   5.321   2.476   3.814 -0.0834  0.1984  0.3882
   68MOL   C27225866   5.170   2.479   3.848  0.2864  0.0314  1.2214
   68MOL   C27325867   5.165   2.491   4.008 -0.0291 -0.0347 -0.8788
   68MOL   O27425868   5.577   2.484   3.662 -0.2107 -0.1655 -0.5831
   68MOL   H27525869   5.383   2.371   3.432  0.0550 -0.6876  2.1859
   68MOL   H27625870   5.511   2.499   3.405  1.4536 -0.3351  0.2299
   68MOL   H27725871   5.450   2.310   3.634 -1.2455 -0.5179 -3.4548
   68MOL   H27825872   5.349   2.595   3.636 -2.4647 -0.0517 -2.9897
   68MOL   H27925873   5.257   2.453   3.597  1.3133  1.1621 -2.7761
   68MOL   H28025874   5.347   2.378   3.854 -0.8140 -0.7080 -1.3291
   68MOL   H28125875   5.383   2.548   3.868 -1.9949  2.4790 -0.4026
   68MOL   H28225876   5.129   2.570   3.803 -1.1995  0.0547  2.5327
   68MOL   H28325877   5.133   2.389   3.800 -1.6323  0.9731  0.8690
   68MOL   H28425878   5.060   2.491   4.034  0.0816 -1.8610 -0.3654
   68MOL   H28525879   5.215   2.406   4.054  0.7576 -0.0636 -1.7605
   68MOL   H28625880   5.206   2.586   4.044 -0.8099  0.5183 -1.4385
   68MOL   C28725881   5.680   2.395   3.711  0.7516 -0.2808  0.1342
   68MOL   C28825882   5.807   2.477   3.756 -0.6552 -0.3227  0.3064
   68MOL   C28925883   5.781   2.597   3.844 -0.6747 -0.0131 -0.1397
   68MOL   C29025884   5.909   2.675   3.871 -0.3744 -0.4553 -0.3061
   68MOL   C29125885   5.889   2.781   3.980  0.5491 -0.4612 -0.1011
   68MOL   C29225886   5.856   2.921   3.917  0.0112  0.2395  0.5501
   68MOL   O29325887   5.877   2.534   3.643  0.1036  0.3407 -0.0515
   68MOL   H29425888   5.714   2.318   3.642  2.2295  0.6229 -0.1894
   68MOL   H29525889   5.641   2.345   3.799 -1.3306 -0.2056 -0.7224
   68MOL   H29625890   5.874   2.418   3.820 -0.1193  0.8254  0.8172
   68MOL   H29725891   5.716   2.679   3.813  1.0627  1.6910  0.6183
   68MOL   H29825892   5.739   2.558   3.937 -1.7581 -0.2000 -0.6987
   68MOL   H29925893   5.974   2.603   3.921  1.3063  1.8655  0.9952
   68MOL   H30025894   5.954   2.706   3.777 -1.1813  1.8111  0.0275
   68MOL   H30125895   5.977   2.792   4.044 -0.7874  0.4025  1.6526
   68MOL   H30225896   5.812   2.749   4.051  0.6305  0.3496  0.3729
   68MOL   H30325897   5.918   2.937   3.829  1.1055  1.7454  1.5673
   68MOL   H30425898   5.758   2.936   3.873  0.9152  1.6460 -1.0660
   68MOL   H30525899   5.876   3.006   3.982  1.1702  1.1919 -1.0153
   68MOL   C30625900   5.970   2.445   3.586 -0.0134  0.3937 -0.1847
   68MOL   C30725901   5.981   2.449   3.434  0.6737 -0.2657 -0.4502
   68MOL   C30825902   6.044   2.321   3.377 -0.0520  0.4427  0.4933
   68MOL   C30925903   6.075   2.322   3.225  0.2253 -0.0289 -0.6493
   68MOL   C31025904   6.123   2.185   3.183 -0.2863 -0.4669  0.5058
   68MOL   C31125905   6.158   2.182   3.036  0.4056  0.0562  0.2681
   68MOL   O31225906   6.056   2.561   3.389 -0.1913 -0.1934  0.0963
   68MOL   H31325907   6.069   2.453   3.632 -0.3864 -0.7287  0.8371
   68MOL   H31425908   5.932   2.345   3.603 -2.0411  1.0589 -0.6985
   68MOL   H31525909   5.876   2.454   3.404  0.1110  1.3710  1.6393
   68MOL   H31625910   5.983   2.239   3.414  1.7654 -1.5126 -0.7603
   68MOL   H31725911   6.137   2.301   3.431  2.3222  2.7321 -2.5457
   68MOL   H31825912   5.980   2.342   3.175 -0.1782  0.8165  0.4527
   68MOL   H31925913   6.141   2.402   3.194  0.5892 -0.2125 -0.3522
   68MOL   H32025914   6.044   2.112   3.203 -0.0981 -1.2054 -1.3269
   68MOL   H32125915   6.214   2.151   3.232  0.6791 -1.7707 -2.0958
   68MOL   H32225916   6.215   2.273   3.017  0.2377  0.0117 -0.4349
   68MOL   H32325917   6.209   2.090   3.008  0.7653  0.2819  0.1733
   68MOL   H32425918   6.063   2.181   2.982  2.0672 -3.8271 -2.8611
   68MOL   C32525919   5.996   2.690   3.401  0.0662 -0.1141  0.1956
   68MOL   C32625920   6.079   2.774   3.310  0.3541  0.0267 -0.1823
   68MOL   C32725921   6.085   2.918   3.365 -0.3510  0.0910  0.2153
   68MOL   C32825922   6.176   3.002   3.271  0.3242 -0.2134 -0.0236
   68MOL   C32925923   6.203   3.138   3.327  0.1915  0.5751 -0.0175
   68MOL   C33025924   6.250   3.237   3.222 -0.3212  0.2985 -0.7561
   68MOL   O33125925   6.029   2.800   3.188  0.0047  0.0468  0.2506
   68MOL   H33225926   6.000   2.719   3.506 -1.2777  0.1733  0.1791
   68MOL   H33325927   5.893   2.687   3.365 -0.2745 -1.4399  1.2074
   68MOL   H33425928   6.179   2.732   3.307 -0.6519 -2.3969 -1.7892
   68MOL   H33525929   5.986   2.961   3.380 -0.3593 -0.3457  1.4456
   68MOL   H33625930   6.126   2.912   3.466 -0.8484 -0.9041  0.3625
   68MOL   H33725931   6.273   2.957   3.250  0.9108  0.9196  0.1975
   68MOL   H33825932   6.121   3.022   3.179  0.3074  0.0660  0.0456
   68MOL   H33925933   6.124   3.175   3.392 -0.3719 -2.2534  0.9813
   68MOL   H34025934   6.277   3.112   3.403 -1.4149 -1.3909  0.9079
   68MOL   H34125935   6.258   3.332   3.275 -0.4020  0.6224 -1.3205
   68MOL   H34225936   6.349   3.219   3.181 -0.2716 -0.9507 -0.1174
   68MOL   H34325937   6.185   3.260   3.138  0.7592  0.3902 -1.5705
   68MOL   C34425938   6.044   2.694   3.100 -1.0620  0.3048 -0.2331
   68MOL   C34525939   5.948   2.708   2.980 -0.0657 -0.1728 -0.0274
   68MOL   C34625940   5.981   2.617   2.861 -0.5198  0.2995  0.6914
   68MOL   C34725941   5.887   2.628   2.739 -0.8089  0.3519  0.7299
   68MOL   C34825942   5.930   2.563   2.612 -0.5296 -0.2583 -0.1332
   68MOL   C34925943   6.046   2.635   2.539  0.4435 -0.4310  0.1191
   68MOL   O35025944   5.814   2.677   3.023  0.3839 -0.3104  0.2849
   68MOL   H35125945   6.020   2.600   3.150 -0.6357  0.9797  1.2747
   68MOL   H35225946   6.148   2.698   3.066 -0.9860  0.1872 -0.0246
   68MOL   H35325947   5.958   2.812   2.948 -3.0196  1.0282  2.5679
   68MOL   H35425948   5.977   2.515   2.898  1.5309 -0.0011  0.1317
   68MOL   H35525949   6.076   2.650   2.818  1.0503 -1.8817  2.3440
   68MOL   H35625950   5.888   2.734   2.713 -1.2137 -0.0148 -0.8299
   68MOL   H35725951   5.789   2.587   2.761 -0.5726 -0.9917 -0.6321
   68MOL   H35825952   5.849   2.563   2.539 -1.9167  0.8344  1.3509
   68MOL   H35925953   5.949   2.460   2.641  1.3425 -0.3679 -1.6906
   68MOL   H36025954   6.139   2.639   2.597  0.0956 -2.6503  0.8870
   68MOL   H36125955   6.014   2.732   2.503 -0.4382 -1.9177 -3.3681
   68MOL   H36225956   6.087   2.579   2.454 -1.5726 -0.5250 -0.8189
   68MOL   C36325957   5.745   2.784   3.094  0.2576 -0.2007  0.1302
   68MOL   C36425958   5.604   2.733   3.126  0.0794 -0.6455  0.4211
   68MOL   C36525959   5.516   2.841   3.193 -0.9364 -0.1742 -0.1967
   68MOL   C36625960   5.371   2.805   3.235 -0.0441 -0.0785  0.1363
   68MOL   C36725961   5.264   2.802   3.120 -0.7459 -0.1393  0.4438
   68MOL   C36825962   5.123   2.780   3.171  0.2937  0.5918 -0.7095
   68MOL   O36925963   5.541   2.686   3.008 -0.1730  0.1946 -0.6683
   68MOL   H37025964   5.733   2.871   3.030 -0.7359  0.3209  1.0088
   68MOL   H37125965   5.794   2.816   3.186  0.1500  1.7012 -0.4578
   68MOL   H37225966   5.615   2.641   3.184  1.1499 -1.3650 -0.8804
   68MOL   H37325967   5.576   2.872   3.278 -1.8746 -0.4631  0.5693
   68MOL   H37425968   5.508   2.932   3.133 -0.6248 -0.6294 -0.9506
   68MOL   H37525969   5.366   2.710   3.290 -0.7014  0.0093  0.2277
   68MOL   H37625970   5.336   2.884   3.301 -0.0767 -0.8719  1.0887
   68MOL   H37725971   5.273   2.899   3.071 -0.5019 -0.2644  0.2401
   68MOL   H37825972   5.292   2.723   3.051 -4.1621 -1.9697  1.0443
   68MOL   H37925973   5.092   2.863   3.234 -0.7051  1.8524 -2.8230
   68MOL   H38025974   5.062   2.765   3.082  1.6454  2.0572 -1.9174
   68MOL   H38125975   5.120   2.685   3.224  0.5985  1.1426  0.3132
   68MOL   H38225976   5.598   2.617   2.977 -0.2312 -0.7951  1.3286
   69MOL     C125977   6.664   4.424   5.368  0.3713 -0.1418 -0.4828
   69MOL     C225978   6.799   4.419   5.286  0.1028 -0.6088 -0.1635
   69MOL     C325979   6.818   4.302   5.187  0.1047 -0.0944  0.0606
   69MOL     C425980   6.709   4.282   5.086 -0.5199  0.4668  0.1508
   69MOL     C525981   6.741   4.181   4.974 -0.3247  0.5614  0.4476
   69MOL     C625982   6.642   4.192   4.856  0.6578 -0.2913  0.3141
   69MOL     O725983   6.811   4.535   5.213 -0.1394  0.0982 -0.0196
   69MOL     H825984   6.633   4.331   5.415 -3.8881  1.1834 -0.4223
   69MOL     H925985   6.583   4.469   5.310 -1.5213 -0.0256  2.1487
   69MOL    H1025986   6.881   4.404   5.355  0.3449 -1.7216 -0.6834
   69MOL    H1125987   6.918   4.325   5.150  0.1375  0.1950  0.3333
   69MOL    H1225988   6.825   4.214   5.250 -1.2499 -0.1379  0.1791
   69MOL    H1325989   6.620   4.239   5.131 -0.5855 -1.2390 -1.5400
   69MOL    H1425990   6.688   4.382   5.050  2.6785  1.8189  1.8361
   69MOL    H1525991   6.842   4.198   4.937 -0.2174  2.7836  1.6836
   69MOL    H1625992   6.730   4.083   5.020  2.1650  0.0028 -0.0791
   69MOL    H1725993   6.632   4.291   4.812  0.4560 -0.4249  0.0535
   69MOL    H1825994   6.669   4.122   4.777 -2.8158 -1.7229  0.3080
   69MOL    H1925995   6.541   4.165   4.886  0.4632 -0.7504 -0.7304
   69MOL    H2025996   6.670   4.491   5.454 -0.8566 -0.3241 -0.2390
   69MOL    C2125997   6.817   4.657   5.295 -0.0197  0.0932  0.2330
   69MOL    C2225998   6.851   4.766   5.196 -0.2303  0.6294 -1.1296
   69MOL    C2325999   6.829   4.900   5.268  0.2689  0.2873 -0.3102
   69MOL    C2426000   6.840   5.021   5.171 -0.3336 -0.0423 -0.0505
   69MOL    C2526001   6.850   5.155   5.241  0.1149 -0.1080 -0.5230
   69MOL    C2626002   6.870   5.269   5.138  0.5931 -0.2866  0.9485
   69MOL    O2726003   6.991   4.777   5.164 -0.1913  0.7965  0.1452
   69MOL    H2826004   6.716   4.678   5.330  0.1694  0.6954  0.4087
   69MOL    H2926005   6.880   4.651   5.383  0.5208  0.3820 -0.1297
   69MOL    H3026006   6.774   4.777   5.119 -2.3850 -1.7042  0.6319
   69MOL    H3126007   6.898   4.907   5.352 -0.0950 -1.3000  0.1463
   69MOL    H3226008   6.731   4.898   5.315  0.6346 -1.8641  0.4213
   69MOL    H3326009   6.750   5.021   5.109 -0.8266  0.8339  0.6584
   69MOL    H3426010   6.925   5.010   5.104  0.2912  3.7725  0.0422
   69MOL    H3526011   6.785   5.178   5.326  0.6476  1.6860 -0.5680
   69MOL    H3626012   6.950   5.146   5.284 -0.6388 -4.2061  0.5644
   69MOL    H3726013   6.897   5.365   5.181 -2.2572 -0.1060  2.4479
   69MOL    H3826014   6.781   5.283   5.077  1.3652 -1.2196 -0.4350
   69MOL    H3926015   6.946   5.236   5.066  0.2689 -2.2695  1.4862
   69MOL    C4026016   7.051   4.671   5.088  0.6950  0.6472  0.0363
   69MOL    C4126017   7.198   4.711   5.051 -0.0790  0.1732  0.1163
   69MOL    C4226018   7.236   4.652   4.912  0.2945  0.4506 -0.1318
   69MOL    C4326019   7.378   4.686   4.867  0.1764 -0.2622  0.4072
   69MOL    C4426020   7.414   4.628   4.732  0.4208  0.5307 -0.2835
   69MOL    C4526021   7.562   4.636   4.701  0.1830  0.4420 -0.0596
   69MOL    O4626022   7.294   4.657   5.137 -0.0228 -0.6910 -0.3464
   69MOL    H4726023   6.996   4.648   4.997 -1.6712  2.9766  0.8032
   69MOL    H4826024   7.059   4.577   5.141  0.2437  0.1477 -0.7700
   69MOL    H4926025   7.207   4.819   5.040 -0.8718  0.2935  0.5141
   69MOL    H5026026   7.223   4.544   4.904 -1.6184  0.3392  3.4660
   69MOL    H5126027   7.177   4.706   4.839 -1.3670 -1.1352 -0.0011
   69MOL    H5226028   7.441   4.646   4.946 -0.1467 -1.0138  0.2914
   69MOL    H5326029   7.388   4.794   4.874  0.5164 -0.1106 -1.8347
   69MOL    H5426030   7.377   4.527   4.717 -0.9120  0.8208  0.9625
   69MOL    H5526031   7.360   4.686   4.656 -0.4234 -0.7905 -0.6997
   69MOL    H5626032   7.590   4.586   4.608 -2.8039  2.1786 -1.9861
   69MOL    H5726033   7.595   4.738   4.683  0.4483  0.2612 -0.6198
   69MOL    H5826034   7.624   4.597   4.782  2.1517  1.4477 -1.0419
   69MOL    C5926035   7.294   4.717   5.262  0.2803  0.2905  0.5249
   69MOL    C6026036   7.368   4.850   5.261 -0.3109  0.3454 -0.6593
   69MOL    C6126037   7.341   4.935   5.390 -0.0546  0.6314  0.1276
   69MOL    C6226038   7.190   4.976   5.425 -0.3691 -0.2091  0.3704
   69MOL    C6326039   7.167   5.064   5.550 -0.0914  0.4050 -0.0945
   69MOL    C6426040   7.162   5.203   5.504 -0.3120 -0.4794 -0.8470
   69MOL    O6526041   7.508   4.831   5.252 -0.1145 -0.6972 -0.1532
   69MOL    H6626042   7.348   4.652   5.332  0.2360  1.7877  1.9779
   69MOL    H6726043   7.191   4.725   5.295 -0.2265 -1.9007 -0.4899
   69MOL    H6826044   7.323   4.911   5.183 -1.8822 -0.4711 -0.4269
   69MOL    H6926045   7.389   5.032   5.378  2.2494 -0.0142  3.4721
   69MOL    H7026046   7.390   4.890   5.477 -1.1663  0.8183  0.8702
   69MOL    H7126047   7.125   4.889   5.422  0.4735 -0.8353  0.3729
   69MOL    H7226048   7.146   5.025   5.338  0.4458 -2.8263 -1.5576
   69MOL    H7326049   7.235   5.041   5.632  0.9110  0.2877 -0.9451
   69MOL    H7426050   7.070   5.047   5.598  0.6280  2.2154  2.0667
   69MOL    H7526051   7.205   5.268   5.580  0.5788 -1.5706 -0.4050
   69MOL    H7626052   7.230   5.217   5.419  2.3903  1.5634  1.5445
   69MOL    H7726053   7.058   5.230   5.487 -0.5294 -0.2128  0.8175
   69MOL    C7826054   7.570   4.873   5.139 -0.0862 -0.2692  0.0909
   69MOL    C7926055   7.720   4.869   5.154 -0.7249  0.0349 -0.5891
   69MOL    C8026056   7.765   4.973   5.264  0.7012 -0.2890 -0.2552
   69MOL    C8126057   0.132   4.983   5.275  0.0109 -0.3778 -0.3302
   69MOL    C8226058   0.169   5.055   5.406 -0.4466 -0.3127 -0.9665
   69MOL    C8326059   0.179   4.970   5.529  0.1316  0.0595  0.2847
   69MOL    O8426060   7.777   4.916   5.031  0.3056  0.3359 -0.0405
   69MOL    H8526061   7.547   4.976   5.109  0.6817 -0.1007  0.0622
   69MOL    H8626062   7.528   4.818   5.055  1.1475 -1.1996  0.0818
   69MOL    H8726063   7.760   4.774   5.190 -0.8806  0.8133  1.7381
   69MOL    H8826064   7.717   5.069   5.247  1.2270  0.2829  1.4357
   69MOL    H8926065   7.727   4.934   5.358  0.9962  0.4162  0.1535
   69MOL    H9026066   0.181   5.029   5.189 -2.9220  0.9078 -1.3669
   69MOL    H9126067   0.166   4.880   5.288  1.6009  0.1874  0.1141
   69MOL    H9226068   0.259   5.113   5.385 -0.7699  1.0215  1.2370
   69MOL    H9326069   0.093   5.127   5.435 -1.5495 -2.3296  1.3880
   69MOL    H9426070   0.255   4.892   5.516  2.4033  2.1574  0.6460
   69MOL    H9526071   0.083   4.924   5.554  1.2192 -2.7741 -0.5423
   69MOL    H9626072   0.213   5.026   5.616 -1.1553  0.8066  0.3164
   69MOL    C9726073   0.019   4.809   4.936  0.2543 -0.1993  0.0446
   69MOL    C9826074   0.092   4.854   4.800  0.3275 -0.2324 -0.2324
   69MOL    C9926075   0.141   4.729   4.729 -0.0481 -0.0187  0.3234
   69MOL   C10026076   0.248   4.761   4.620  0.4223  0.8298  0.3707
   69MOL   C10126077   0.300   4.638   4.556 -0.0069  0.1382 -0.1288
   69MOL   C10226078   0.195   4.539   4.499 -0.2064 -0.1294  0.0352
   69MOL   O10326079   0.002   4.924   4.711  0.4294  0.5283 -0.0689
   69MOL   H10426080   7.711   4.760   4.910  0.9858 -1.6587  0.1291
   69MOL   H10526081   0.084   4.739   4.989 -1.4001 -2.8231 -1.3133
   69MOL   H10626082   0.181   4.913   4.822 -0.5198  1.2263 -0.6177
   69MOL   H10726083   0.059   4.668   4.692 -2.2464  2.2171  1.3284
   69MOL   H10826084   0.177   4.670   4.813  1.6369  1.3089  0.5502
   69MOL   H10926085   0.337   4.808   4.663  1.2029  0.4875 -0.8317
   69MOL   H11026086   0.213   4.828   4.542  1.2330 -0.3805 -1.0743
   69MOL   H11126087   0.370   4.586   4.620  3.0143  0.7803 -2.7479
   69MOL   H11226088   0.360   4.690   4.481  1.5155  0.3689  1.2289
   69MOL   H11326089   0.130   4.586   4.425  0.7410  1.6527  0.3177
   69MOL   H11426090   0.241   4.457   4.444  2.6814  0.5416  1.3552
   69MOL   H11526091   0.126   4.491   4.570 -0.5631  0.7081  0.2583
   69MOL   C11626092   7.758   5.065   4.752 -0.1626  0.1169  0.7833
   69MOL   C11726093   7.653   5.137   4.663  0.1215  0.8006  0.1883
   69MOL   C11826094   7.548   5.044   4.608  0.2181 -0.5416  0.9945
   69MOL   C11926095   7.434   5.121   4.532  0.4505  0.9821 -0.7448
   69MOL   C12026096   7.326   5.027   4.476 -0.3009 -0.9346  0.6936
   69MOL   C12126097   7.373   4.958   4.343 -0.0734  0.5189  0.0917
   69MOL   O12226098   7.719   5.207   4.554 -0.3491  0.0055 -0.0156
   69MOL   H12326099   7.716   5.062   4.852  2.4860 -2.5568  1.8787
   69MOL   H12426100   0.064   5.123   4.759 -2.0001  3.0111  1.9822
   69MOL   H12526101   7.609   5.221   4.717 -1.6241 -1.2936  2.1056
   69MOL   H12626102   7.596   4.984   4.531 -1.3850  0.2152 -0.6411
   69MOL   H12726103   7.514   4.988   4.694 -0.2634 -0.0144  1.1504
   69MOL   H12826104   7.486   5.170   4.449  0.6886 -1.7521 -2.2788
   69MOL   H12926105   7.386   5.196   4.594  2.0127  1.5096 -0.1423
   69MOL   H13026106   7.296   4.952   4.549 -2.7461  1.2572  2.0123
   69MOL   H13126107   7.234   5.085   4.463  0.7821  1.3031  2.6622
   69MOL   H13226108   7.441   4.879   4.374  0.3443  1.2515  1.0605
   69MOL   H13326109   7.290   4.915   4.287  1.0019 -1.8355  0.2205
   69MOL   H13426110   7.427   5.017   4.270 -1.9426  0.8882 -1.0264
   69MOL   C13526111   0.053   5.163   4.491  0.1924  0.0428  0.2577
   69MOL   C13626112   0.062   5.234   4.349  0.0583  0.3054  0.2670
   69MOL   C13726113   0.142   5.153   4.240  0.0363 -1.1263  0.0764
   69MOL   C13826114   0.077   5.022   4.214  0.4137 -0.2504 -0.3747
   69MOL   C13926115   7.711   5.005   4.203  0.3156 -0.0223 -0.2252
   69MOL   C14026116   7.676   4.859   4.220 -0.1077  0.0499  0.9376
   69MOL   O14126117   0.144   5.346   4.365 -0.0666  0.7700 -0.0798
   69MOL   H14226118   0.148   5.175   4.543  1.3994 -3.7493 -0.8878
   69MOL   H14326119   0.047   5.054   4.486  2.0302 -0.1073  0.9641
   69MOL   H14426120   7.752   5.268   4.312  0.3043  1.3432  0.5843
   69MOL   H14526121   0.148   5.200   4.142  1.7218  0.2984  0.8261
   69MOL   H14626122   0.245   5.146   4.274 -0.7626 -1.6066  2.4956
   69MOL   H14726123   0.112   4.949   4.288 -0.3492  0.2701  0.5045
   69MOL   H14826124   0.112   4.973   4.123 -1.4508  0.4990 -1.5200
   69MOL   H14926125   7.684   5.054   4.109  1.0329  0.6321 -0.0970
   69MOL   H15026126   7.666   5.062   4.284  0.4160 -0.7689  0.3608
   69MOL   H15126127   7.579   4.843   4.173 -0.3691 -0.6497  1.6968
   69MOL   H15226128   7.746   4.799   4.162  1.1745  1.3887  1.0716
   69MOL   H15326129   7.668   4.828   4.324  1.8078  0.1903  1.1423
   69MOL   C15426130   0.082   5.466   4.412 -0.0759 -0.1858 -0.0519
   69MOL   C15526131   0.183   5.560   4.488  0.2747 -0.4623  0.6939
   69MOL   C15626132   0.333   5.550   4.442  0.1286  0.9225  0.5284
   69MOL   C15726133   0.433   5.633   4.528  0.8074  0.0539 -0.4754
   69MOL   C15826134   0.578   5.577   4.530 -0.2480 -0.4555  0.6445
   69MOL   C15926135   0.675   5.679   4.585  0.3204  0.8459  0.6863
   69MOL   O16026136   0.160   5.700   4.475 -0.3406  0.1124 -0.5885
   69MOL   H16126137   0.001   5.450   4.482 -2.4772  0.2707 -2.6152
   69MOL   H16226138   0.041   5.524   4.329 -0.2826  2.1120  1.5982
   69MOL   H16326139   0.187   5.531   4.593 -1.2457  0.6519  1.0824
   69MOL   H16426140   0.339   5.586   4.340  0.3974 -0.9610 -0.1382
   69MOL   H16526141   0.373   5.449   4.445 -0.8368  0.5562  2.0993
   69MOL   H16626142   0.398   5.637   4.631 -0.0213 -0.7132 -0.7268
   69MOL   H16726143   0.432   5.737   4.494 -1.7569  1.2407  2.8634
   69MOL   H16826144   0.590   5.477   4.572 -0.1258 -0.0089  1.7011
   69MOL   H16926145   0.597   5.549   4.427  0.0917  0.4649  0.4517
   69MOL   H17026146   0.676   5.770   4.526 -1.3094 -0.2403 -1.0946
   69MOL   H17126147   0.774   5.633   4.583 -1.0123 -2.1217 -0.2484
   69MOL   H17226148   0.658   5.691   4.692  1.3511 -0.6866  1.0378
   69MOL   C17326149   0.047   5.750   4.548 -0.4046  0.4166  0.3904
   69MOL   C17426150   0.063   5.750   4.701 -0.0260  0.4523  0.1292
   69MOL   C17526151   7.758   5.857   4.771  0.0262  0.2900  0.0302
   69MOL   C17626152   0.022   6.002   4.746 -0.2979  0.4628  0.1103
   69MOL   C17726153   7.733   6.093   4.851 -0.4487  0.1406 -0.0051
   69MOL   C17826154   0.046   6.189   4.923  0.0595  0.8202 -0.9530
   69MOL   O17926155   0.046   5.621   4.756  0.7121  0.0797  0.1691
   69MOL   H18026156   7.744   5.695   4.516 -0.3506  0.0869  0.8009
   69MOL   H18126157   0.019   5.847   4.508  0.0627  1.7159  3.0838
   69MOL   H18226158   0.169   5.768   4.723  0.0800  0.9928 -0.7746
   69MOL   H18326159   7.655   5.857   4.735  0.5581  0.3503 -1.5105
   69MOL   H18426160   7.755   5.848   4.880 -2.5852  2.9211  0.2486
   69MOL   H18526161   0.130   6.015   4.744 -0.4046  1.6246 -5.5038
   69MOL   H18626162   7.779   6.037   4.647  1.1794  2.7560  0.4433
   69MOL   H18726163   7.646   6.137   4.801 -0.8934  0.4265  1.0051
   69MOL   H18826164   7.695   6.032   4.933  0.2395 -0.0968  0.1373
   69MOL   H18926165   0.123   6.230   4.858  1.9567  1.4071  1.5700
   69MOL   H19026166   0.097   6.140   5.006  0.0775 -0.5530 -1.7704
   69MOL   H19126167   7.783   6.273   4.972  1.8674  1.1898  0.2657
   69MOL   C19226168   0.097   5.595   4.884 -0.0375  0.4718 -0.5445
   69MOL   C19326169   0.061   5.453   4.931 -0.2987 -0.1468 -0.1175
   69MOL   C19426170   7.709   5.441   4.993  0.3202  0.8265  0.5449
   69MOL   C19526171   7.688   5.305   5.067  0.3134 -0.9281  0.7110
   69MOL   C19626172   7.542   5.279   5.101 -0.3166 -0.7186  0.3823
   69MOL   C19726173   7.450   5.273   4.984  0.3054  0.2696 -0.4671
   69MOL   O19826174   0.161   5.400   5.014 -0.4815  0.1223  0.2185
   69MOL   H19926175   0.206   5.591   4.879 -0.1199 -1.2839 -1.3540
   69MOL   H20026176   0.059   5.673   4.949  2.5826  1.1579  0.2227
   69MOL   H20126177   0.059   5.395   4.838  3.5008 -0.2226 -0.2225
   69MOL   H20226178   7.683   5.522   5.062  2.1815  1.4221  0.5716
   69MOL   H20326179   7.635   5.451   4.914  1.1790  0.2594 -0.3442
   69MOL   H20426180   7.752   5.296   5.154 -2.2955 -1.6930  2.6107
   69MOL   H20526181   7.725   5.231   4.996 -2.8568  0.0394 -2.1143
   69MOL   H20626182   7.524   5.185   5.153 -0.4902 -1.0143 -0.2187
   69MOL   H20726183   7.502   5.364   5.157 -1.1377 -1.0907  0.3688
   69MOL   H20826184   7.473   5.179   4.934 -1.3281 -1.1149  1.3250
   69MOL   H20926185   7.349   5.263   5.023  1.0372  1.3365  1.7497
   69MOL   H21026186   7.455   5.359   4.916  1.2671  0.0739 -0.6470
   69MOL   C21126187   0.231   5.283   4.967 -0.4726 -0.4698 -0.5061
   69MOL   C21226188   0.337   5.319   4.856 -0.2303 -0.6989  0.0871
   69MOL   C21326189   0.379   5.195   4.772 -0.5006  0.4727  0.4678
   69MOL   C21426190   0.483   5.241   4.667  0.2844 -0.0067  0.6186
   69MOL   C21526191   0.530   5.125   4.583 -0.2580 -0.0442  0.0585
   69MOL   C21626192   0.424   5.053   4.504 -0.2062 -0.2595  0.2762
   69MOL   O21726193   0.447   5.340   4.934 -0.2767 -0.1601  0.4701
   69MOL   H21826194   0.153   5.213   4.936 -0.0134 -0.7515 -1.0326
   69MOL   H21926195   0.272   5.241   5.059  0.5612 -2.0676 -1.6669
   69MOL   H22026196   0.301   5.392   4.783 -0.5051 -0.6174  0.3075
   69MOL   H22126197   0.428   5.116   4.829  0.1709 -0.4559 -1.3579
   69MOL   H22226198   0.293   5.147   4.726  0.5817  0.8607 -2.0574
   69MOL   H22326199   0.429   5.311   4.604 -0.7128 -0.9948  0.3441
   69MOL   H22426200   0.568   5.286   4.718  1.2763 -1.0157 -0.0951
   69MOL   H22526201   0.601   5.169   4.513  1.3998  1.4433  2.5882
   69MOL   H22626202   0.573   5.059   4.659 -0.6239  2.4135  2.4735
   69MOL   H22726203   0.351   5.014   4.575 -0.4829 -0.5903 -0.1896
   69MOL   H22826204   0.466   4.967   4.453 -0.1090 -1.1143  1.7669
   69MOL   H22926205   0.377   5.117   4.429 -1.2923 -2.2197 -0.7504
   69MOL   C23026206   0.477   5.480   4.946 -0.7520 -0.1524 -0.6063
   69MOL   C23126207   0.604   5.497   5.039 -0.3032 -0.5595  0.5538
   69MOL   C23226208   0.742   5.466   4.963 -0.1221  0.7397 -0.0752
   69MOL   C23326209   0.865   5.532   5.044  0.0761 -0.1596  0.2940
   69MOL   C23426210   0.895   5.667   4.984 -0.1930 -0.0317 -0.2972
   69MOL   C23526211   1.005   5.736   5.068  0.2363  0.9359 -0.5262
   69MOL   O23626212   0.610   5.420   5.154  0.3941 -0.6243  0.0213
   69MOL   H23726213   0.487   5.531   4.850  1.5143 -2.8969 -1.9008
   69MOL   H23826214   0.392   5.539   4.984  0.1467  0.3848  0.6030
   69MOL   H23926215   0.609   5.601   5.073  0.1058  0.8051 -3.3844
   69MOL   H24026216   0.736   5.492   4.857 -3.0439 -1.4823 -0.5449
   69MOL   H24126217   0.744   5.357   4.955 -1.1780  0.6323  0.9369
   69MOL   H24226218   0.955   5.472   5.025 -0.2228 -0.7043  0.5847
   69MOL   H24326219   0.865   5.538   5.153  3.1873  1.0734  0.2917
   69MOL   H24426220   0.914   5.669   4.877  1.4303  0.4529 -0.0115
   69MOL   H24526221   0.802   5.725   4.978  0.1381  0.4538 -0.7572
   69MOL   H24626222   0.971   5.758   5.169 -0.2567 -0.0569 -0.4688
   69MOL   H24726223   1.051   5.829   5.034  0.0573  0.5310 -1.9055
   69MOL   H24826224   1.086   5.663   5.078 -0.4714  0.4283  1.6151
   69MOL   C24926225   0.524   5.461   5.256  0.1362  0.3129  0.3921
   69MOL   C25026226   0.538   5.378   5.384 -0.1444 -0.3826  0.1997
   69MOL   C25126227   0.414   5.388   5.482  0.7227  0.5381 -0.4408
   69MOL   C25226228   0.430   5.297   5.605 -0.2623 -0.2060  0.1086
   69MOL   C25326229   0.316   5.312   5.710  0.2964  0.9392  0.0634
   69MOL   C25426230   0.353   5.249   5.834  0.2501 -0.3761 -0.1904
   69MOL   O25526231   0.650   5.433   5.446 -0.5726  0.4114  0.1218
   69MOL   H25626232   0.543   5.561   5.293  0.3875 -0.1902  1.6453
   69MOL   H25726233   0.427   5.455   5.207  1.6523  0.6964 -2.7894
   69MOL   H25826234   0.543   5.271   5.362  1.4305 -0.2158 -0.3253
   69MOL   H25926235   0.399   5.490   5.517 -0.3405 -0.3760  1.8456
   69MOL   H26026236   0.322   5.361   5.431  2.0679  0.6785 -3.0332
   69MOL   H26126237   0.447   5.194   5.574  0.7059 -0.9103  2.7623
   69MOL   H26226238   0.520   5.335   5.653 -0.0255 -1.5284  0.7517
   69MOL   H26326239   0.303   5.419   5.730  0.0044  1.6747 -3.6279
   69MOL   H26426240   0.227   5.260   5.677  1.1165  0.1506 -0.9642
   69MOL   H26526241   0.457   5.268   5.861  0.8184 -3.3313 -0.1017
   69MOL   H26626242   0.353   5.141   5.818 -1.6714 -1.2971  5.0787
   69MOL   H26726243   0.284   5.271   5.915  0.8970  2.9262 -0.4932
   69MOL   C26826244   0.771   5.358   5.411 -0.0365  0.6426  0.0910
   69MOL   C26926245   0.891   5.441   5.469  0.0702 -0.2182  0.8095
   69MOL   C27026246   1.021   5.407   5.389  0.0376 -0.8117  0.3132
   69MOL   C27126247   1.150   5.420   5.471 -0.0912 -0.7343  0.0819
   69MOL   C27226248   1.267   5.392   5.386 -0.3500  0.6546  0.0355
   69MOL   C27326249   1.404   5.431   5.438 -0.1598 -0.4815 -0.3502
   69MOL   O27426250   0.911   5.394   5.603  0.4187 -0.2778 -0.4676
   69MOL   H27526251   0.785   5.343   5.304 -2.8022 -0.5511 -0.1628
   69MOL   H27626252   0.793   5.261   5.455 -0.6696  0.3466 -0.2356
   69MOL   H27726253   0.874   5.548   5.455  1.2526 -0.1392 -0.1180
   69MOL   H27826254   1.015   5.304   5.354  1.5818 -1.5399  2.1063
   69MOL   H27926255   1.027   5.475   5.304 -0.4121  0.9822  1.6921
   69MOL   H28026256   1.152   5.520   5.517  0.3355 -1.0292  0.7085
   69MOL   H28126257   1.147   5.350   5.554  0.6691 -1.0612 -0.1692
   69MOL   H28226258   1.278   5.291   5.347  0.6557  0.4022  0.9278
   69MOL   H28326259   1.252   5.445   5.292 -0.2382 -1.4711 -1.1968
   69MOL   H28426260   1.475   5.419   5.356 -0.4590  1.4271 -0.8995
   69MOL   H28526261   1.414   5.532   5.477  0.7326 -0.7174  0.0373
   69MOL   H28626262   1.429   5.364   5.520  3.1136  2.3069  1.0490
   69MOL   C28726263   0.821   5.462   5.695  0.3316 -0.1841 -0.4990
   69MOL   C28826264   0.845   5.391   5.834  0.3414 -0.7153  0.5414
   69MOL   C28926265   0.726   5.420   5.928  0.3551 -0.1662 -0.4141
   69MOL   C29026266   0.735   5.351   6.060 -0.5871  0.1254  0.0403
   69MOL   C29126267   0.633   5.406   6.152  0.4471  0.2146 -0.3954
   69MOL   C29226268   0.641   5.342   6.293 -0.1392  0.0754 -0.4569
   69MOL   O29326269   0.960   5.442   5.905 -0.4307 -0.2143 -0.3811
   69MOL   H29426270   0.717   5.464   5.661  0.3303 -0.3695 -0.5072
   69MOL   H29526271   0.867   5.560   5.703  0.3209 -0.1414 -0.9623
   69MOL   H29626272   0.855   5.283   5.825 -2.1451 -0.6875 -3.7197
   69MOL   H29726273   0.737   5.525   5.955  0.5077 -0.6971  1.7005
   69MOL   H29826274   0.636   5.392   5.874 -0.4192 -0.1337  0.8331
   69MOL   H29926275   0.726   5.243   6.049  3.3164 -0.2757  0.4082
   69MOL   H30026276   0.832   5.374   6.102 -0.5842  0.9347 -0.3901
   69MOL   H30126277   0.534   5.422   6.111 -0.9267  0.5799  2.8701
   69MOL   H30226278   0.653   5.511   6.176 -1.7211  0.9275 -1.5499
   69MOL   H30326279   0.655   5.235   6.284 -0.0889  0.0141  0.3985
   69MOL   H30426280   0.733   5.364   6.346 -0.6050  4.1033 -1.1587
   69MOL   H30526281   0.559   5.357   6.364  0.1425  1.1115 -0.3470
   69MOL   C30626282   1.083   5.397   5.842  0.0786  0.2166 -0.3753
   69MOL   C30726283   1.210   5.441   5.921 -0.0379 -0.3675  1.0404
   69MOL   C30826284   1.327   5.387   5.847  0.1580 -0.1222  0.3596
   69MOL   C30926285   1.465   5.406   5.916 -0.6268  0.3283 -0.1281
   69MOL   C31026286   1.585   5.378   5.829  0.5513  0.1024  0.3311
   69MOL   C31126287   1.723   5.370   5.893  0.3640 -0.1901 -0.4978
   69MOL   O31226288   1.229   5.380   6.048 -0.2267  0.0143  0.0772
   69MOL   H31326289   1.083   5.288   5.839  1.3392  0.0295  3.7700
   69MOL   H31426290   1.082   5.418   5.735  1.1521 -1.0579 -0.6496
   69MOL   H31526291   1.222   5.549   5.926  0.9663 -0.4349  0.2267
   69MOL   H31626292   1.336   5.449   5.757  0.6976  1.0223  1.1808
   69MOL   H31726293   1.307   5.283   5.821 -2.3335  0.2486  0.6821
   69MOL   H31826294   1.471   5.509   5.951 -2.0441  1.4882 -3.1979
   69MOL   H31926295   1.464   5.355   6.013 -1.7760  1.5891  0.5344
   69MOL   H32026296   1.584   5.460   5.757 -1.3900  0.5107  0.7869
   69MOL   H32126297   1.574   5.290   5.766  0.9238  0.1199  0.2413
   69MOL   H32226298   1.749   5.269   5.926  2.9668  0.9819  1.2278
   69MOL   H32326299   1.802   5.410   5.830  0.0060 -1.0327 -1.4890
   69MOL   H32426300   1.705   5.414   5.991 -1.9075 -1.3172 -0.3701
   69MOL   C32526301   1.144   5.434   6.147  0.3191  0.0144 -0.0091
   69MOL   C32626302   1.157   5.344   6.273  0.0520 -0.2897 -1.1539
   69MOL   C32726303   1.044   5.385   6.368 -0.2974 -0.3987 -0.5110
   69MOL   C32826304   1.060   5.333   6.513  0.1697  0.0732 -0.2809
   69MOL   C32926305   0.931   5.378   6.605 -0.8558  0.2648  0.0977
   69MOL   C33026306   0.921   5.319   6.741  0.0199 -0.0957 -0.2292
   69MOL   O33126307   1.279   5.377   6.332  0.3211  0.5520  0.4365
   69MOL   H33226308   1.040   5.436   6.116  0.9275 -2.4109 -2.3978
   69MOL   H33326309   1.179   5.535   6.168  0.1227 -0.3626  2.3574
   69MOL   H33426310   1.156   5.237   6.250  1.9338 -0.4264 -0.6881
   69MOL   H33526311   1.043   5.494   6.365 -0.8280 -0.4275 -1.8162
   69MOL   H33626312   0.946   5.358   6.328  0.0104 -0.4513 -1.2444
   69MOL   H33726313   1.050   5.225   6.523  0.2220  0.1472  0.6423
   69MOL   H33826314   1.158   5.346   6.559  1.1846  0.6701 -2.5465
   69MOL   H33926315   0.927   5.487   6.606  0.0042  0.3055 -0.1389
   69MOL   H34026316   0.841   5.347   6.552 -1.5138 -1.6284  2.2861
   69MOL   H34126317   0.839   5.367   6.793  1.1656  0.6510  0.9197
   69MOL   H34226318   0.906   5.211   6.736 -0.0629 -0.0836 -0.2207
   69MOL   H34326319   1.008   5.349   6.799  1.3971 -1.5384 -1.4955
   69MOL   C34426320   1.373   5.271   6.340 -0.7426  0.0373 -0.6804
   69MOL   C34526321   1.503   5.308   6.406 -0.5359  0.1735  0.6452
   69MOL   C34626322   1.490   5.320   6.556  0.1629  0.0643 -0.8642
   69MOL   C34726323   1.620   5.375   6.629  0.5341  0.5530  0.0138
   69MOL   C34826324   1.585   5.440   6.760 -0.5564  0.1943  0.7215
   69MOL   C34926325   1.712   5.496   6.818 -0.2364 -0.3892  0.6590
   69MOL   O35026326   1.600   5.215   6.374 -0.1634 -0.0282  0.2298
   69MOL   H35126327   1.388   5.240   6.236 -1.9948  1.2582 -1.2365
   69MOL   H35226328   1.332   5.178   6.380 -2.4688  1.2028  0.3343
   69MOL   H35326329   1.537   5.405   6.371 -0.5285 -0.5987 -1.5570
   69MOL   H35426330   1.451   5.229   6.601 -0.4821  0.2352 -1.0822
   69MOL   H35526331   1.411   5.392   6.576  0.2181 -0.6803  2.3282
   69MOL   H35626332   1.658   5.455   6.567  0.0493  1.5560  0.9925
   69MOL   H35726333   1.705   5.306   6.631  0.4521  0.4600  0.3240
   69MOL   H35826334   1.542   5.356   6.813 -1.6610  0.4757  0.2923
   69MOL   H35926335   1.504   5.512   6.752  0.1442  1.1797  2.2616
   69MOL   H36026336   1.741   5.581   6.757 -1.7526 -1.2025 -1.2692
   69MOL   H36126337   1.799   5.431   6.813  0.9525  1.2440 -0.4435
   69MOL   H36226338   1.693   5.530   6.920 -0.4445 -0.3442  0.6057
   69MOL   C36326339   1.644   5.190   6.239  0.2110  0.3751 -0.7871
   69MOL   C36426340   1.728   5.063   6.250  0.1207  0.2450  0.3815
   69MOL   C36526341   1.641   4.938   6.250 -0.3956  0.0652 -0.0505
   69MOL   C36626342   1.732   4.827   6.315  0.5991  0.0266  0.2427
   69MOL   C36726343   1.667   4.692   6.349 -0.1733  0.1848 -0.6288
   69MOL   C36826344   1.563   4.713   6.452  0.4030  1.1561 -0.4554
   69MOL   O36926345   1.805   5.051   6.133 -0.3800  0.6391  0.2027
   69MOL   H37026346   1.703   5.274   6.204  2.2486  0.0488  1.6870
   69MOL   H37126347   1.565   5.175   6.166 -0.4726  0.9593 -0.1834
   69MOL   H37226348   1.784   5.064   6.343 -0.0705  0.0723  0.4995
   69MOL   H37326349   1.549   4.938   6.307 -0.8015  1.5823 -0.6775
   69MOL   H37426350   1.618   4.925   6.144 -2.0939 -1.1550  0.4487
   69MOL   H37526351   1.813   4.819   6.242 -1.2778  0.5767 -1.9587
   69MOL   H37626352   1.777   4.866   6.405  0.1929  2.7958 -0.7227
   69MOL   H37726353   1.623   4.632   6.270  1.1750 -2.3492  0.5046
   69MOL   H37826354   1.746   4.631   6.394  0.8939  1.4989 -0.6763
   69MOL   H37926355   1.604   4.767   6.538 -0.6866  0.6218  0.4071
   69MOL   H38026356   1.478   4.773   6.419 -1.8674 -1.2459  0.8178
   69MOL   H38126357   1.519   4.625   6.498  0.1273  1.8044  0.5468
   69MOL   H38226358   1.856   5.127   6.111  0.3907 -0.3627 -1.5135
   70MOL     C126359   6.631   7.126   4.473  0.4505 -0.0177  0.5828
   70MOL     C226360   6.617   7.009   4.577  0.5031  0.2523 -0.2439
   70MOL     C326361   6.638   6.876   4.504  0.8526 -0.8955  0.5247
   70MOL     C426362   6.613   6.758   4.588 -0.5697  0.1920 -0.1758
   70MOL     C526363   6.630   6.624   4.511  0.4820  0.1416  0.2826
   70MOL     C626364   6.577   6.510   4.592 -0.6450 -0.0079 -0.0714
   70MOL     O726365   6.721   7.026   4.665 -0.5516  0.7141 -0.3912
   70MOL     H826366   6.612   7.229   4.500 -0.0505 -0.1159  0.6038
   70MOL     H926367   6.562   7.114   4.390  2.4805  0.6937 -1.2308
   70MOL    H1026368   6.518   7.004   4.624 -0.4396  2.4544 -1.8886
   70MOL    H1126369   6.554   6.881   4.434  1.7810 -2.0748 -0.7144
   70MOL    H1226370   6.730   6.858   4.449 -0.2823  1.4651 -2.3225
   70MOL    H1326371   6.669   6.759   4.682  0.0567  0.7731 -0.5540
   70MOL    H1426372   6.507   6.767   4.610 -0.9774 -0.3937 -1.7892
   70MOL    H1526373   6.587   6.640   4.412 -1.0506 -0.5089  0.8343
   70MOL    H1626374   6.734   6.594   4.498  0.4498 -0.5178  1.5296
   70MOL    H1726375   6.469   6.518   4.592 -0.6092  0.5602 -0.3863
   70MOL    H1826376   6.602   6.418   4.538  2.0679  1.7692 -1.9885
   70MOL    H1926377   6.614   6.506   4.694 -1.3024 -0.3596  0.1509
   70MOL    H2026378   6.732   7.137   4.434 -1.3230  2.4239 -3.5875
   70MOL    C2126379   6.705   7.124   4.770 -0.2715  0.1864 -0.1437
   70MOL    C2226380   6.815   7.117   4.886 -0.2759 -0.1156  0.0551
   70MOL    C2326381   6.905   6.995   4.886  0.0208 -0.1638 -0.7782
   70MOL    C2426382   6.834   6.870   4.945  0.0855 -0.1756 -0.6525
   70MOL    C2526383   6.907   6.729   4.985  0.4738 -0.4173  0.3118
   70MOL    C2626384   6.995   6.693   4.875 -0.0834  0.1324  0.2995
   70MOL    O2726385   6.902   7.233   4.890  0.4892 -0.5626 -0.0637
   70MOL    H2826386   6.684   7.220   4.722 -1.3648 -0.9785 -2.0800
   70MOL    H2926387   6.611   7.098   4.820 -0.2887 -1.1286 -0.8297
   70MOL    H3026388   6.763   7.118   4.982 -1.1506 -0.4746 -0.4105
   70MOL    H3126389   6.994   7.017   4.945 -0.3389 -3.5716  1.1838
   70MOL    H3226390   6.948   6.971   4.789  0.8107 -0.9801 -0.2384
   70MOL    H3326391   6.746   6.850   4.884 -0.4748 -1.6624  0.6246
   70MOL    H3426392   6.787   6.901   5.039  0.6597  0.0201 -0.4273
   70MOL    H3526393   6.966   6.738   5.076  0.8305  0.6063 -0.0039
   70MOL    H3626394   6.829   6.655   5.000 -0.4081  0.3321 -0.4253
   70MOL    H3726395   7.083   6.755   4.857  0.0189 -0.1767 -0.3152
   70MOL    H3826396   6.942   6.678   4.780  0.2436 -1.5064  0.3635
   70MOL    H3926397   7.035   6.596   4.903 -2.8378 -0.5490  1.9214
   70MOL    C4026398   6.988   7.260   4.780 -0.0087 -0.1636 -0.0609
   70MOL    C4126399   7.052   7.397   4.790  0.0557  0.5138 -0.2926
   70MOL    C4226400   7.131   7.430   4.670  0.5319  0.4958  0.3489
   70MOL    C4326401   7.210   7.566   4.668 -1.0399 -0.3636  0.2000
   70MOL    C4426402   7.256   7.603   4.526  0.0824 -0.2105  0.6688
   70MOL    C4526403   7.336   7.734   4.527 -0.4865  0.2342 -0.5677
   70MOL    O4626404   7.161   7.391   4.877  0.2150 -0.4784  0.3895
   70MOL    H4726405   6.929   7.248   4.688 -0.3727 -0.0411  0.1560
   70MOL    H4826406   7.060   7.181   4.761 -0.2173 -0.2637 -0.4565
   70MOL    H4926407   6.978   7.472   4.819 -1.5044 -1.3243  0.6351
   70MOL    H5026408   7.190   7.339   4.659  1.3058  0.3726  4.6060
   70MOL    H5126409   7.063   7.430   4.585 -2.1019  0.5269  2.4345
   70MOL    H5226410   7.299   7.558   4.730 -0.7970  3.5161  0.5000
   70MOL    H5326411   7.150   7.644   4.715 -0.6293  0.1295 -0.0767
   70MOL    H5426412   7.327   7.523   4.504  1.6762  0.9379  1.5495
   70MOL    H5526413   7.175   7.597   4.454  0.0785 -2.1333  0.7902
   70MOL    H5626414   7.417   7.746   4.455 -0.2395  2.4691  0.0554
   70MOL    H5726415   7.273   0.033   4.501 -0.4723 -0.0132 -1.4198
   70MOL    H5826416   7.366   7.771   4.624 -1.5819  0.3163 -0.2547
   70MOL    C5926417   7.126   7.431   5.005 -0.2457 -0.4941  0.0699
   70MOL    C6026418   7.249   7.419   5.101  0.3631  0.4759 -0.0813
   70MOL    C6126419   7.224   7.490   5.238  0.6014  0.1430  0.7845
   70MOL    C6226420   7.358   7.492   5.318  0.1720 -0.3242  0.6733
   70MOL    C6326421   7.357   7.604   5.431  0.1351 -0.2345  0.1222
   70MOL    C6426422   7.486   7.639   5.497 -0.3452 -0.3340 -0.1084
   70MOL    O6526423   7.270   7.286   5.143  0.2029 -0.2933  0.1930
   70MOL    H6626424   7.048   7.366   5.044 -1.7420  1.2261  0.0211
   70MOL    H6726425   7.085   7.532   5.004 -0.3162 -0.5213 -0.6110
   70MOL    H6826426   7.330   7.471   5.050 -0.6858  2.1159 -0.1219
   70MOL    H6926427   7.143   7.445   5.296  0.4803 -2.0856 -1.0848
   70MOL    H7026428   7.191   7.594   5.227  0.8082  0.1031 -0.2662
   70MOL    H7126429   7.442   7.514   5.253  1.7006 -1.3953  2.2359
   70MOL    H7226430   7.380   7.403   5.378 -2.2932 -0.9075  0.7692
   70MOL    H7326431   7.289   7.573   5.510 -0.8958  0.9226 -0.2944
   70MOL    H7426432   7.308   7.687   5.379 -0.9365  0.5395  2.3017
   70MOL    H7526433   7.480   7.738   5.542  1.5906 -0.4747  0.4743
   70MOL    H7626434   7.518   7.567   5.572  3.1159 -0.0761 -1.2797
   70MOL    H7726435   7.559   7.653   5.418 -0.7638  1.0419 -0.2660
   70MOL    C7826436   7.330   7.216   5.037  0.1810  0.5365 -0.8396
   70MOL    C7926437   7.414   7.102   5.099  0.3918  0.3649 -0.4934
   70MOL    C8026438   7.553   7.167   5.152 -0.3559  0.5911  0.0869
   70MOL    C8126439   7.614   7.089   5.269 -0.0966  0.5258 -0.2429
   70MOL    C8226440   7.767   7.120   5.302 -0.0841 -0.1998  0.4196
   70MOL    C8326441   7.780   7.264   5.359  0.1258  0.1827 -0.3538
   70MOL    O8426442   7.445   7.012   4.998  0.1868  0.0189  0.1043
   70MOL    H8526443   7.406   7.276   4.986 -1.3363  2.5269 -0.8254
   70MOL    H8626444   7.253   7.183   4.966 -1.1025  0.3065  0.6330
   70MOL    H8726445   7.368   7.052   5.184  0.0007  0.4445 -0.6580
   70MOL    H8826446   7.616   7.162   5.063 -0.9625 -0.8660 -0.2678
   70MOL    H8926447   7.526   7.270   5.179 -3.7904 -0.3996  0.7396
   70MOL    H9026448   7.612   6.983   5.245 -0.3406  0.6553 -0.7998
   70MOL    H9126449   7.559   7.100   5.362 -0.2431  1.0561 -0.3918
   70MOL    H9226450   0.033   7.050   5.367  0.6106  1.8072  2.0863
   70MOL    H9326451   0.030   7.125   5.205  0.0332  1.7947  0.5490
   70MOL    H9426452   0.098   7.287   5.387  0.9023 -1.5557 -1.6772
   70MOL    H9526453   7.714   7.289   5.441  0.8417  0.9050  0.0109
   70MOL    H9626454   7.769   7.338   5.280 -2.7736  0.2933  0.1189
   70MOL    C9726455   7.350   6.905   4.988  0.1104 -0.1291 -0.3128
   70MOL    C9826456   7.440   6.795   4.916  0.1953 -0.0384  0.0603
   70MOL    C9926457   7.404   6.650   4.952 -1.0921  0.6262  0.8020
   70MOL   C10026458   7.512   6.560   4.894 -0.1833  0.2513  0.4226
   70MOL   C10126459   7.492   6.416   4.941 -0.2965 -0.1809  0.2834
   70MOL   C10226460   7.371   6.347   4.896 -0.0796  0.1644 -0.9242
   70MOL   O10326461   7.426   6.801   4.776 -0.1016 -0.4302  0.2166
   70MOL   H10426462   7.257   6.921   4.932  0.2716 -2.2330 -1.2308
   70MOL   H10526463   7.323   6.861   5.084 -0.6187 -1.7319 -1.2323
   70MOL   H10626464   7.543   6.824   4.936 -0.0826  0.3655  0.9637
   70MOL   H10726465   7.299   6.636   4.926 -1.3386 -0.8576  2.5193
   70MOL   H10826466   7.414   6.641   5.060  0.0700 -0.8955  0.5901
   70MOL   H10926467   7.616   6.585   4.916 -0.4343 -0.4532  2.4738
   70MOL   H11026468   7.498   6.554   4.786  0.8978 -1.3323  0.3371
   70MOL   H11126469   7.507   6.422   5.049  0.8553  2.3735  0.0217
   70MOL   H11226470   7.579   6.361   4.906 -0.4395 -1.4024  1.7770
   70MOL   H11326471   7.393   6.300   4.800  0.3023 -0.7659 -0.3888
   70MOL   H11426472   7.348   6.259   4.956  1.2294 -1.0383 -2.1148
   70MOL   H11526473   7.293   6.422   4.903 -1.0789 -0.6100 -3.2587
   70MOL   C11626474   7.494   6.916   4.705 -0.1061  0.3385  0.2514
   70MOL   C11726475   7.390   7.009   4.667  0.2120  0.2777 -0.2794
   70MOL   C11826476   7.289   6.955   4.555 -0.4737  0.4952 -0.7826
   70MOL   C11926477   7.199   7.065   4.500  0.8721 -0.2087  0.2275
   70MOL   C12026478   7.144   7.034   4.358  0.7913 -0.4725  0.4218
   70MOL   C12126479   7.044   7.137   4.316  0.0016 -0.1964  0.2412
   70MOL   O12226480   7.454   7.114   4.596  0.8305 -0.1678  0.2089
   70MOL   H12326481   7.572   6.946   4.775 -0.1701  0.1869  0.3891
   70MOL   H12426482   7.545   6.876   4.618  1.7762  3.0243  0.0397
   70MOL   H12526483   7.336   7.049   4.752 -1.1368 -2.1181  0.0428
   70MOL   H12626484   7.347   6.915   4.471 -0.4411 -1.4001  0.1156
   70MOL   H12726485   7.234   6.873   4.599 -0.3009  0.2724 -0.9769
   70MOL   H12826486   7.255   7.159   4.504  0.2137  0.1123  3.7336
   70MOL   H12926487   7.114   7.078   4.568  0.2055  3.0417 -1.1051
   70MOL   H13026488   7.216   7.016   4.279 -1.1938  1.9474 -2.0584
   70MOL   H13126489   7.094   6.938   4.367  2.2445 -1.3890 -1.1644
   70MOL   H13226490   7.000   7.119   4.218 -1.5455  1.0993  0.6881
   70MOL   H13326491   6.967   7.168   4.386 -0.5857  0.7481 -0.8059
   70MOL   H13426492   7.099   7.230   4.304 -1.1348  0.6075  1.1672
   70MOL   C13526493   7.496   7.223   4.678  0.0508  0.3521 -0.1535
   70MOL   C13626494   7.592   7.319   4.609  0.3347  0.2356  1.0603
   70MOL   C13726495   7.619   7.437   4.709 -0.7752 -0.3920 -0.2206
   70MOL   C13826496   7.727   7.408   4.815 -0.9352  0.6172  0.1243
   70MOL   C13926497   7.759   7.535   4.893 -0.5996  0.8123  0.0004
   70MOL   C14026498   0.047   7.519   5.023 -0.3707 -0.8574 -0.3018
   70MOL   O14126499   7.525   7.376   4.494  0.1413  0.4250 -0.0004
   70MOL   H14226500   7.405   7.277   4.704  0.5815  0.8849  0.6384
   70MOL   H14326501   7.544   7.198   4.773 -1.9952 -2.6566  0.1669
   70MOL   H14426502   7.684   7.270   4.576 -0.8763 -0.2582 -1.7231
   70MOL   H14526503   7.646   7.526   4.652  0.9935 -1.4688 -1.1218
   70MOL   H14626504   7.530   7.465   4.765 -0.0184  2.8433 -0.5524
   70MOL   H14726505   0.031   7.386   4.758 -1.3614  0.2827 -0.4274
   70MOL   H14826506   7.708   7.314   4.866  0.5799 -0.3076 -0.9788
   70MOL   H14926507   7.662   7.584   4.899 -1.0435  0.3199 -2.4063
   70MOL   H15026508   0.026   7.600   4.822 -0.4204 -2.1877 -2.7663
   70MOL   H15126509   7.781   7.449   5.087 -1.4776 -0.3540 -0.6294
   70MOL   H15226510   0.152   7.491   5.012 -0.2818 -0.3935 -0.6652
   70MOL   H15326511   0.050   7.619   5.066  0.1190  0.0906 -2.4429
   70MOL   C15426512   7.606   7.427   4.390 -0.2800 -0.5126  0.4495
   70MOL   C15526513   7.522   7.479   4.276 -0.1081  0.5362  0.3918
   70MOL   C15626514   7.580   7.598   4.199  0.1438 -0.1031 -0.6065
   70MOL   C15726515   7.490   7.677   4.106 -0.4477 -0.2898 -0.4556
   70MOL   C15826516   7.543   0.002   4.020 -0.0681  0.4711  0.1836
   70MOL   C15926517   7.600   7.736   3.888  0.6102 -0.7678 -0.8893
   70MOL   O16026518   7.510   7.375   4.189 -0.0070  0.4018  0.7686
   70MOL   H16126519   7.675   7.350   4.357 -2.5736 -2.0568 -0.8741
   70MOL   H16226520   7.664   7.510   4.429 -0.3975 -0.9388  1.5581
   70MOL   H16326521   7.420   7.508   4.302 -0.6342 -0.7298 -0.2550
   70MOL   H16426522   7.668   7.563   4.145  0.7951  1.4288 -0.5870
   70MOL   H16526523   7.616   7.668   4.275 -1.2904 -0.9546  0.8941
   70MOL   H16626524   7.417   7.718   4.176  0.7181  0.2702  0.4475
   70MOL   H16726525   7.438   7.595   4.056  0.3726 -0.1897 -1.4896
   70MOL   H16826526   7.460   0.064   3.987 -1.9046 -1.4134  1.1278
   70MOL   H16926527   7.622   0.063   4.062 -0.0181 -0.0882  0.9216
   70MOL   H17026528   7.627   0.035   3.825 -0.8078 -0.8735 -1.6619
   70MOL   H17126529   7.523   7.673   3.842 -0.3554 -0.2351 -0.0289
   70MOL   H17226530   7.681   7.663   3.887 -0.4707 -1.9837 -0.6781
   70MOL   C17326531   7.390   7.291   4.206 -0.0358 -0.2486 -0.4124
   70MOL   C17426532   7.394   7.184   4.099 -0.2371 -0.1891  0.7690
   70MOL   C17526533   7.461   7.222   3.962  0.3432  0.5893 -0.2553
   70MOL   C17626534   7.402   7.146   3.847  0.4028 -0.1893 -0.9197
   70MOL   C17726535   7.452   7.176   3.698 -0.0352  0.3451 -0.4177
   70MOL   C17826536   7.565   7.083   3.652  0.1572  0.0001  0.4284
   70MOL   O17926537   7.448   7.056   4.142 -0.5638  0.0254  0.1359
   70MOL   H18026538   7.305   7.358   4.188  1.2958  1.8587  0.8291
   70MOL   H18126539   7.381   7.260   4.311  1.0803  0.3958 -0.1097
   70MOL   H18226540   7.287   7.166   4.085 -0.0138 -0.5892 -0.4579
   70MOL   H18326541   7.438   7.327   3.946  0.4475  0.9058  1.6014
   70MOL   H18426542   7.569   7.208   3.964  0.2432 -0.1705  0.0734
   70MOL   H18526543   7.399   7.037   3.852 -3.1793 -0.1275  0.2821
   70MOL   H18626544   7.298   7.178   3.859  1.0355  2.0958 -1.2627
   70MOL   H18726545   7.372   7.157   3.627  1.3626 -1.8648 -1.4470
   70MOL   H18826546   7.474   7.282   3.686 -0.4339  0.3348 -1.2330
   70MOL   H18926547   7.583   7.096   3.545  1.8374 -1.6958  0.4823
   70MOL   H19026548   7.547   6.980   3.682  0.6344  0.3517  1.9637
   70MOL   H19126549   7.655   7.115   3.705  1.4430 -2.1320 -0.4278
   70MOL   C19226550   7.576   7.068   4.201 -0.2982 -0.4497 -0.3158
   70MOL   C19326551   7.619   6.938   4.258 -0.0120 -0.0433 -0.1128
   70MOL   C19426552   7.732   6.944   4.357  0.0104 -0.6626  0.0072
   70MOL   C19526553   7.769   6.807   4.409  0.2172 -0.3405  0.6903
   70MOL   C19626554   0.049   6.799   4.551  0.5804  0.1728  0.3776
   70MOL   C19726555   0.064   6.649   4.597 -0.0457 -0.1329 -0.2828
   70MOL   O19826556   7.666   6.843   4.159  0.0168  0.4994 -0.2421
   70MOL   H19926557   7.648   7.092   4.123  0.1168 -1.7588 -0.3365
   70MOL   H20026558   7.569   7.143   4.281 -4.0730 -1.8976  0.8247
   70MOL   H20126559   7.535   6.903   4.318  0.4751 -0.3063  0.4312
   70MOL   H20226560   0.036   6.984   4.309  0.1869 -0.6485  0.3472
   70MOL   H20326561   7.705   7.011   4.438  0.0364  1.0982 -1.4265
   70MOL   H20426562   0.043   6.747   4.339 -0.0671 -0.1689  0.3012
   70MOL   H20526563   7.681   6.744   4.420 -0.3552  0.9482  3.8974
   70MOL   H20626564   0.146   6.848   4.555  0.5826  0.2809 -0.9579
   70MOL   H20726565   7.771   6.856   4.619  1.5820  1.3958  0.3073
   70MOL   H20826566   7.751   6.610   4.623  0.2112 -0.9944 -0.5739
   70MOL   H20926567   0.127   6.589   4.532  1.5645  0.8996  0.2909
   70MOL   H21026568   0.120   6.639   4.690  0.5152 -1.1590 -0.7213
   70MOL   C21126569   7.558   6.763   4.105  0.9223 -0.3017  0.1500
   70MOL   C21226570   7.609   6.627   4.057  0.1012  0.5343  0.4572
   70MOL   C21326571   7.518   6.553   3.963  0.1560  1.2643 -0.4121
   70MOL   C21426572   7.373   6.526   4.015  0.1250 -0.2560 -0.8456
   70MOL   C21526573   7.302   6.426   3.922  0.6058 -0.5157 -0.5222
   70MOL   C21626574   7.153   6.409   3.959  0.6049 -0.5229 -0.3951
   70MOL   O21726575   7.637   6.551   4.174 -0.3619  0.5847  0.2101
   70MOL   H21826576   7.505   6.819   4.028 -1.5680 -3.7597 -0.7746
   70MOL   H21926577   7.479   6.736   4.175  1.5027  0.5028  1.1375
   70MOL   H22026578   7.699   6.652   4.001 -1.0938 -0.1318 -1.8215
   70MOL   H22126579   7.506   6.618   3.877  2.7023  2.2485 -0.0871
   70MOL   H22226580   7.574   6.460   3.946  0.3598  1.2692  0.1846
   70MOL   H22326581   7.373   6.495   4.119  0.7961  0.7193 -0.5408
   70MOL   H22426582   7.312   6.616   4.023  1.0062  0.3266 -0.5062
   70MOL   H22526583   7.307   6.462   3.819  0.3956 -1.4396 -0.8685
   70MOL   H22626584   7.349   6.329   3.939 -0.3819 -1.0420 -0.7602
   70MOL   H22726585   7.103   6.335   3.896 -1.6170 -0.2715  1.0101
   70MOL   H22826586   7.100   6.505   3.954  0.6210 -0.5186 -0.4621
   70MOL   H22926587   7.138   6.370   4.060 -0.0271  0.6028 -0.0406
   70MOL   C23026588   7.736   6.447   4.160 -0.1707  0.0169 -0.3824
   70MOL   C23126589   7.773   6.394   4.295  0.1881 -0.2918 -0.0724
   70MOL   C23226590   0.099   6.288   4.264  0.3785 -0.4459 -0.4583
   70MOL   C23326591   0.167   6.233   4.389 -0.0203 -0.7021  0.0477
   70MOL   C23426592   0.269   6.119   4.342  0.1721 -0.0542 -0.0993
   70MOL   C23526593   0.311   6.040   4.469 -0.0084  0.0132 -0.5132
   70MOL   O23626594   7.665   6.331   4.364  0.2583  0.0604  0.0377
   70MOL   H23726595   7.683   6.369   4.104 -1.6963 -0.7642  2.0453
   70MOL   H23826596   0.037   6.481   4.104  0.3308 -1.1249 -0.3198
   70MOL   H23926597   0.031   6.475   4.354  0.1903 -0.3545  0.0107
   70MOL   H24026598   0.175   6.332   4.200 -0.7430 -0.7502 -2.0455
   70MOL   H24126599   0.051   6.217   4.197  0.4968  0.9653 -2.0860
   70MOL   H24226600   0.089   6.196   4.455  2.0192 -0.6081  2.5636
   70MOL   H24326601   0.225   6.308   4.442 -0.9000 -0.2665  0.4028
   70MOL   H24426602   0.227   6.053   4.266 -1.6918  0.3244  0.5735
   70MOL   H24526603   0.360   6.156   4.295  0.1209 -0.7285 -0.7352
   70MOL   H24626604   0.397   5.983   4.434  0.9229 -0.2531  2.0852
   70MOL   H24726605   0.232   5.975   4.506 -1.1497  1.9495  0.5372
   70MOL   H24826606   0.350   6.109   4.545 -1.2238 -0.8884  0.9455
   70MOL   C24926607   7.576   6.414   4.439 -0.5259  1.0015  0.3446
   70MOL   C25026608   7.431   6.360   4.450 -0.3123  0.3646  0.8005
   70MOL   C25126609   7.328   6.471   4.487  0.3680  0.4040  0.5899
   70MOL   C25226610   7.180   6.425   4.460 -0.5094 -0.7322 -0.1987
   70MOL   C25326611   7.086   6.537   4.502  0.4453 -0.0282 -0.0865
   70MOL   C25426612   7.081   6.642   4.393  1.0701 -0.4658  0.1909
   70MOL   O25526613   7.428   6.256   4.550 -0.2501  0.0658 -0.0236
   70MOL   H25626614   7.629   6.429   4.533  0.2763  1.2674 -0.1473
   70MOL   H25726615   7.562   6.506   4.383 -0.7245  1.0544  0.4807
   70MOL   H25826616   7.410   6.343   4.345 -0.0068 -1.9962  1.0875
   70MOL   H25926617   7.348   6.494   4.592 -1.7873 -0.1270  1.1443
   70MOL   H26026618   7.354   6.556   4.424  0.1418  0.0535  0.0199
   70MOL   H26126619   7.170   6.399   4.355 -0.2576  1.8462 -0.8829
   70MOL   H26226620   7.162   6.333   4.517 -1.2137 -0.9282 -0.7309
   70MOL   H26326621   6.987   6.497   4.524  0.7349 -0.0649  1.2126
   70MOL   H26426622   7.131   6.572   4.595  3.4999  0.3158 -1.6432
   70MOL   H26526623   7.027   6.609   4.304 -0.1791  1.9097  0.0392
   70MOL   H26626624   7.181   6.674   4.364  1.6882 -1.5407  1.1051
   70MOL   H26726625   7.030   6.732   4.427  0.3096 -0.3671 -1.1959
   70MOL   C26826626   7.410   6.134   4.483 -0.7642 -0.2418 -0.4628
   70MOL   C26926627   7.379   6.026   4.584 -0.5150  0.1659  0.0290
   70MOL   C27026628   7.424   5.893   4.514 -0.0713 -0.0586 -0.3345
   70MOL   C27126629   7.380   5.762   4.584 -0.8065 -0.2090 -0.4501
   70MOL   C27226630   7.467   5.636   4.547 -0.4008 -0.6501 -0.4933
   70MOL   C27326631   7.415   5.510   4.602 -0.1620 -0.1185  0.2553
   70MOL   O27426632   7.243   6.021   4.612 -0.2712 -0.3025  0.0108
   70MOL   H27526633   7.495   6.108   4.420  0.6277 -1.6052  1.9020
   70MOL   H27626634   7.330   6.143   4.409 -1.7331  0.9065  0.7029
   70MOL   H27726635   7.435   6.035   4.677 -2.2034 -0.7573  1.1645
   70MOL   H27826636   7.387   5.887   4.412  1.6065 -0.7733 -0.9219
   70MOL   H27926637   7.533   5.889   4.507  0.0264 -0.4507  1.1327
   70MOL   H28026638   7.381   5.773   4.692 -1.1106  2.7350 -0.7117
   70MOL   H28126639   7.277   5.744   4.553 -0.2502 -1.0204 -1.8735
   70MOL   H28226640   7.483   5.638   4.439 -2.4301 -0.3791 -0.7951
   70MOL   H28326641   7.557   5.661   4.604  0.9925 -2.3946 -1.8744
   70MOL   H28426642   7.319   5.481   4.560 -2.2092  1.9765  3.2888
   70MOL   H28526643   7.470   5.421   4.571 -0.3194 -0.2958  0.4821
   70MOL   H28626644   7.424   5.499   4.710  1.9789  1.0579  0.2309
   70MOL   C28726645   7.202   6.101   4.719 -0.6492  0.2647 -0.3363
   70MOL   C28826646   7.055   6.091   4.745  0.6302 -0.0586  0.0293
   70MOL   C28926647   7.009   6.211   4.837 -0.4085  1.0903  0.4598
   70MOL   C29026648   6.858   6.223   4.848 -0.3497 -0.2131 -0.2161
   70MOL   C29126649   6.822   6.347   4.940  0.1351 -0.2924 -0.7508
   70MOL   C29226650   6.665   6.343   4.964 -0.2076 -0.2828  0.4005
   70MOL   O29326651   7.001   5.974   4.807 -0.7975  0.5441  0.2709
   70MOL   H29426652   7.226   6.206   4.700  0.7348 -0.2887 -1.7060
   70MOL   H29526653   7.262   6.080   4.807 -0.9002 -1.7357 -0.6271
   70MOL   H29626654   7.002   6.106   4.651 -0.7554  0.6220  0.9214
   70MOL   H29726655   7.064   6.202   4.931 -2.5096 -1.2103  1.5252
   70MOL   H29826656   7.059   6.300   4.798  1.4346 -0.0002  0.2842
   70MOL   H29926657   6.812   6.230   4.749  1.4508 -0.5114 -1.0882
   70MOL   H30026658   6.817   6.132   4.892  3.0756 -1.1451  1.1636
   70MOL   H30126659   6.854   6.438   4.888  0.8261 -1.1956 -1.9342
   70MOL   H30226660   6.885   6.335   5.028 -0.0360 -1.8707 -0.8357
   70MOL   H30326661   6.608   6.330   4.871  0.3459  0.9116 -0.1205
   70MOL   H30426662   6.639   6.262   5.032 -0.6513 -0.3681  0.1337
   70MOL   H30526663   6.628   6.435   5.009 -0.8473 -0.2856 -0.1040
   70MOL   C30626664   7.044   5.852   4.751 -0.2544  0.1569 -0.1059
   70MOL   C30726665   6.982   5.724   4.822  0.2890 -0.7414  0.4271
   70MOL   C30826666   7.059   5.601   4.757  1.0581  0.3996  0.8556
   70MOL   C30926667   7.040   5.476   4.837 -0.0278  0.1266  0.6476
   70MOL   C31026668   7.076   5.354   4.772 -0.6887 -0.6021 -0.0621
   70MOL   C31126669   6.983   5.315   4.656 -0.7251  0.4830 -0.0169
   70MOL   O31226670   6.841   5.694   4.789 -0.2802  0.0648  0.0256
   70MOL   H31326671   7.003   5.853   4.649 -0.6200 -0.4098  0.0319
   70MOL   H31426672   7.153   5.848   4.750 -0.1754  2.0021 -0.9329
   70MOL   H31526673   6.997   5.725   4.930 -3.1088  0.3022  0.9576
   70MOL   H31626674   7.167   5.619   4.756  0.9847  0.8479  0.6619
   70MOL   H31726675   7.046   5.584   4.650 -1.0037  2.1164  0.7896
   70MOL   H31826676   7.112   5.475   4.918  0.3035 -0.3836  0.3507
   70MOL   H31926677   6.941   5.468   4.880 -0.7660 -1.0626 -1.1913
   70MOL   H32026678   7.071   5.280   4.852  2.2445  0.3966  1.1017
   70MOL   H32126679   7.182   5.361   4.747 -0.9554  0.1569 -1.0231
   70MOL   H32226680   7.011   5.379   4.573 -1.8907 -0.4331 -1.1258
   70MOL   H32326681   6.985   5.209   4.631 -0.0036  0.8791 -1.6971
   70MOL   H32426682   6.881   5.347   4.675 -0.4160  0.4634  1.8365
   70MOL   C32526683   6.757   5.785   4.850 -0.2339 -0.1885  0.6144
   70MOL   C32626684   6.606   5.759   4.822 -1.3038 -0.2044  0.0420
   70MOL   C32726685   6.539   5.893   4.811  0.1493  0.3958  0.4345
   70MOL   C32826686   6.390   5.894   4.787 -0.0307 -0.8796 -0.1824
   70MOL   C32926687   6.330   6.039   4.797 -0.4205 -0.1003 -0.2123
   70MOL   C33026688   6.179   6.057   4.748 -0.3663  0.5774 -0.5177
   70MOL   O33126689   6.555   5.687   4.931 -0.0666  0.4784  0.1436
   70MOL   H33226690   6.793   5.884   4.821 -2.0970  0.2316 -0.3116
   70MOL   H33326691   6.776   5.780   4.957 -2.8815  0.9216  1.1633
   70MOL   H33426692   6.598   5.706   4.727 -0.4387 -2.4836  1.1932
   70MOL   H33526693   6.558   5.948   4.903 -0.9504  3.4680 -1.1282
   70MOL   H33626694   6.581   5.953   4.730  1.4428  0.9151  1.4780
   70MOL   H33726695   6.365   5.852   4.690  1.1618 -1.3518 -0.2932
   70MOL   H33826696   6.338   5.850   4.872  0.4868 -0.3361  0.4258
   70MOL   H33926697   6.340   6.094   4.891  2.3328  0.6793 -0.8941
   70MOL   H34026698   6.386   6.106   4.730  0.3585  1.6609  2.1336
   70MOL   H34126699   6.130   5.994   4.822  0.0503  1.2465  0.3438
   70MOL   H34226700   6.143   6.160   4.752  2.0338  1.3884  3.5823
   70MOL   H34326701   6.167   6.022   4.645  0.1698  0.2103 -0.4608
   70MOL   C34426702   6.573   5.548   4.920 -0.2495  0.5784 -0.4791
   70MOL   C34526703   6.530   5.480   5.056 -0.3519 -0.3359  1.1243
   70MOL   C34626704   6.503   5.331   5.044  0.0040 -0.4426 -0.0166
   70MOL   C34726705   6.471   5.250   5.174  0.8990  0.8758  0.2842
   70MOL   C34826706   6.440   5.101   5.141 -0.5619 -0.8583 -0.2753
   70MOL   C34926707   6.417   5.031   5.276  0.4482  0.1096 -0.1435
   70MOL   O35026708   6.626   5.497   5.158 -0.2570 -0.0868 -0.4067
   70MOL   H35126709   6.678   5.525   4.897 -0.1479  0.4807  0.0798
   70MOL   H35226710   6.505   5.510   4.843  0.5540  1.7494 -1.8036
   70MOL   H35326711   6.437   5.528   5.085 -0.4286 -1.0735  2.1489
   70MOL   H35426712   6.589   5.277   5.005  0.9318  1.4435 -0.6388
   70MOL   H35526713   6.427   5.311   4.968 -0.3490 -0.4585  0.3372
   70MOL   H35626714   6.377   5.286   5.216 -0.6976 -1.5545 -1.0580
   70MOL   H35726715   6.540   5.262   5.257  1.1618 -0.2283  0.2329
   70MOL   H35826716   6.526   5.052   5.095 -0.3896 -0.3889 -0.4521
   70MOL   H35926717   6.362   5.086   5.067 -1.3627  0.5593  0.2728
   70MOL   H36026718   6.385   4.930   5.250  0.2185 -0.2393  1.4713
   70MOL   H36126719   6.327   5.056   5.331  1.0297 -2.0310  1.8490
   70MOL   H36226720   6.502   5.026   5.344  0.1159 -0.7123  0.2154
   70MOL   C36326721   6.624   5.630   5.219  0.5896 -0.3821 -0.7389
   70MOL   C36426722   6.757   5.647   5.294 -0.3825  0.3342  0.0475
   70MOL   C36526723   6.782   5.535   5.388 -0.3538  0.0265 -0.2356
   70MOL   C36626724   6.911   5.550   5.467 -0.3155  0.4649  0.6085
   70MOL   C36726725   6.943   5.683   5.534 -1.2075 -0.0428 -0.0567
   70MOL   C36826726   7.063   5.673   5.633 -0.2651  0.1835  0.1858
   70MOL   O36926727   6.860   5.656   5.196  0.1262  0.7684  0.2328
   70MOL   H37026728   6.548   5.638   5.296  1.5824 -1.0325  0.3275
   70MOL   H37126729   6.607   5.716   5.155 -1.4934 -0.0794  0.1720
   70MOL   H37226730   6.756   5.735   5.358 -3.7213  0.5273 -0.1645
   70MOL   H37326731   6.700   5.543   5.459 -1.8557 -1.5184 -1.7459
   70MOL   H37426732   6.787   5.440   5.335  2.9654 -0.2073  0.3562
   70MOL   H37526733   6.912   5.466   5.537 -1.5121  0.7547  0.9868
   70MOL   H37626734   6.982   5.526   5.388 -2.5932 -3.4547 -0.4239
   70MOL   H37726735   6.960   5.767   5.466 -2.7825  0.0395 -0.3710
   70MOL   H37826736   6.862   5.716   5.598 -1.2283  2.4674 -1.3159
   70MOL   H37926737   7.074   5.576   5.681 -0.8598  0.8245  1.6337
   70MOL   H38026738   7.159   5.687   5.583 -0.7520  2.2551 -0.2221
   70MOL   H38126739   7.049   5.753   5.706  2.0955  0.7813  0.0197
   70MOL   H38226740   6.826   5.613   5.119  0.5917  1.2084 -0.2236
   71MOL     C126741   6.649   0.678   4.453  0.4981 -0.1025  0.6474
   71MOL     C226742   6.504   0.729   4.476  1.0568 -0.5876  0.6428
   71MOL     C326743   6.507   0.888   4.485  0.0040 -0.1451  0.1063
   71MOL     C426744   6.375   0.953   4.518  0.0870  0.2969 -0.1003
   71MOL     C526745   6.405   1.107   4.555 -0.5095  0.7819 -0.1675
   71MOL     C626746   6.279   1.177   4.608  0.1226  0.2277  0.1924
   71MOL     O726747   6.422   0.693   4.365 -0.4481 -0.4180 -0.0301
   71MOL     H826748   6.662   0.569   4.449  1.1318  0.0403 -1.6653
   71MOL     H926749   6.725   0.725   4.516  2.5675  0.0264 -1.8439
   71MOL    H1026750   6.461   0.683   4.565  0.7011  1.3383  1.4965
   71MOL    H1126751   6.584   0.919   4.555 -0.6430  0.6766  0.4531
   71MOL    H1226752   6.543   0.926   4.390 -2.3112  2.1258  0.0969
   71MOL    H1326753   6.303   0.937   4.438 -1.9505 -1.6769  2.0241
   71MOL    H1426754   6.333   0.904   4.606  2.0362 -0.0406  0.6670
   71MOL    H1526755   6.483   1.126   4.629  0.9587  0.7098 -1.6717
   71MOL    H1626756   6.442   1.156   4.465 -1.7169 -1.1621 -1.7643
   71MOL    H1726757   6.289   1.285   4.615  0.2667  0.1243  1.6748
   71MOL    H1826758   6.191   1.153   4.547  0.9308 -2.6085  0.0511
   71MOL    H1926759   6.263   1.141   4.710  1.5521  0.9402  0.6827
   71MOL    H2026760   6.669   0.711   4.352 -0.6843 -1.2791  0.0106
   71MOL    C2126761   6.349   0.566   4.385 -0.5607 -0.1556 -0.3949
   71MOL    C2226762   6.248   0.546   4.276  0.4627 -0.8410 -0.0664
   71MOL    C2326763   6.207   0.398   4.263 -1.0993  0.3229  0.1170
   71MOL    C2426764   6.146   0.375   4.120 -0.3981 -0.1542 -0.2713
   71MOL    C2526765   6.054   0.255   4.095 -0.2115 -0.3837  0.3264
   71MOL    C2626766   6.021   0.234   3.955 -0.7986  0.2377 -0.5639
   71MOL    O2726767   6.122   0.611   4.284 -0.3692 -0.2128 -0.2123
   71MOL    H2826768   6.431   0.493   4.383 -0.1190  0.3241 -0.0286
   71MOL    H2926769   6.307   0.564   4.485  1.9041  0.3452  0.6914
   71MOL    H3026770   6.299   0.574   4.184  0.7218 -0.1787  0.2786
   71MOL    H3126771   6.141   0.380   4.348 -2.2142 -0.9683 -0.9884
   71MOL    H3226772   6.293   0.333   4.276  0.9637  2.9410 -0.2027
   71MOL    H3326773   6.219   0.387   4.041 -1.1685  0.9213 -0.8392
   71MOL    H3426774   6.082   0.459   4.094 -2.0629 -1.0655  0.7924
   71MOL    H3526775   6.104   0.166   4.134 -1.2932 -0.6899  1.0458
   71MOL    H3626776   5.971   0.277   4.162  0.8526 -0.3111  1.6428
   71MOL    H3726777   5.961   0.312   3.908 -0.4738  0.7031 -0.2095
   71MOL    H3826778   5.949   0.152   3.947 -1.0048  0.3644 -0.0507
   71MOL    H3926779   6.113   0.216   3.900  0.2540 -0.6763  1.4270
   71MOL    C4026780   6.124   0.749   4.313 -0.4945 -0.3794 -0.6125
   71MOL    C4126781   6.004   0.822   4.246  0.1213  0.0280  0.5009
   71MOL    C4226782   6.030   0.972   4.238 -0.1022  0.2592 -0.4749
   71MOL    C4326783   5.903   1.051   4.197  0.4627  0.0009  0.6598
   71MOL    C4426784   5.937   1.197   4.156  0.3307  0.2475 -0.1838
   71MOL    C4526785   5.806   1.276   4.128  0.6846  0.0812 -0.2524
   71MOL    O4626786   5.874   0.795   4.309  0.0858 -0.1572  0.8089
   71MOL    H4726787   6.218   0.789   4.275 -0.3934  0.1764  0.2066
   71MOL    H4826788   6.122   0.765   4.421 -2.8878 -0.1245 -0.6641
   71MOL    H4926789   6.000   0.786   4.143  1.9835 -0.3510  0.5517
   71MOL    H5026790   6.075   1.006   4.331  0.7453 -1.6732 -0.1579
   71MOL    H5126791   6.117   0.980   4.174  1.2961 -3.0074  0.8706
   71MOL    H5226792   5.829   1.048   4.276  1.0857 -2.0306  1.2210
   71MOL    H5326793   5.856   1.000   4.113  1.2868  1.9753 -1.0483
   71MOL    H5426794   5.995   1.237   4.240  0.7711 -1.0579  0.1481
   71MOL    H5526795   6.012   1.194   4.077  0.3220  1.4934 -0.2505
   71MOL    H5626796   5.733   1.268   4.208  1.6658 -0.2828  0.6081
   71MOL    H5726797   5.833   1.380   4.107  1.4974 -0.0167  0.2935
   71MOL    H5826798   5.764   1.242   4.033  1.0430  0.3090 -0.4928
   71MOL    C5926799   5.826   0.663   4.292  0.6556 -0.0232 -0.3887
   71MOL    C6026800   5.687   0.646   4.345  0.7304  0.1072 -0.2270
   71MOL    C6126801   5.675   0.680   4.497  0.3143 -0.4937 -0.3211
   71MOL    C6226802   5.537   0.650   4.562  0.4951 -0.4437 -0.2600
   71MOL    C6326803   5.520   0.657   4.717 -0.3796 -0.3629  0.0441
   71MOL    C6426804   5.384   0.601   4.770 -0.2809 -0.3676 -0.5006
   71MOL    O6526805   5.593   0.705   4.259  0.7394  0.1355 -0.6917
   71MOL    H6626806   5.891   0.583   4.327  0.2939 -0.1047  0.1023
   71MOL    H6726807   5.821   0.647   4.184 -1.8131  1.3651 -0.5188
   71MOL    H6826808   5.665   0.540   4.351  0.6465  0.1887  1.1414
   71MOL    H6926809   5.692   0.786   4.514 -0.3928 -0.6347  1.2886
   71MOL    H7026810   5.754   0.626   4.550  0.1966  1.3252  1.7468
   71MOL    H7126811   5.500   0.552   4.534  1.6844 -0.7522 -0.7486
   71MOL    H7226812   5.465   0.721   4.521 -1.2587 -1.0640  1.6109
   71MOL    H7326813   5.534   0.763   4.741  0.4221 -0.3398 -0.5140
   71MOL    H7426814   5.604   0.610   4.768 -1.1274 -0.9317  0.7627
   71MOL    H7526815   5.365   0.504   4.725 -1.0532  0.2171 -1.4346
   71MOL    H7626816   5.397   0.599   4.878  1.8695 -0.7386 -0.7353
   71MOL    H7726817   5.301   0.667   4.748  0.5674  1.7263  2.1979
   71MOL    C7826818   5.581   0.844   4.251 -0.0159  0.4660  0.1958
   71MOL    C7926819   5.458   0.898   4.167 -0.1268 -0.2657 -0.0275
   71MOL    C8026820   5.447   0.839   4.027 -0.0392 -0.5008  0.0652
   71MOL    C8126821   5.536   0.911   3.920  0.5667  0.3862 -0.0756
   71MOL    C8226822   5.544   0.820   3.793 -0.7528 -0.0981  0.5576
   71MOL    C8326823   5.607   0.891   3.669 -0.1203  0.1725 -0.1754
   71MOL    O8426824   5.457   1.042   4.158  0.0796 -0.4676  0.0609
   71MOL    H8526825   5.668   0.899   4.215  1.0784 -2.2049 -1.3312
   71MOL    H8626826   5.553   0.880   4.351 -0.5273 -0.7112  0.4861
   71MOL    H8726827   5.366   0.859   4.210 -0.0079 -2.8921 -2.0377
   71MOL    H8826828   5.464   0.731   4.038  0.7477 -0.4074 -0.2560
   71MOL    H8926829   5.347   0.854   3.987  0.6232  2.0112 -0.7060
   71MOL    H9026830   5.635   0.942   3.954  1.5444 -3.1646  0.5751
   71MOL    H9126831   5.495   1.007   3.888  3.1602  1.8071  0.7566
   71MOL    H9226832   5.609   0.736   3.818 -0.5282 -0.2519 -0.4820
   71MOL    H9326833   5.448   0.779   3.762  0.2502 -1.2898 -1.0730
   71MOL    H9426834   5.681   0.968   3.694 -0.8275  0.3177  1.5081
   71MOL    H9526835   5.528   0.930   3.605 -0.8392  2.4268  2.0076
   71MOL    H9626836   5.654   0.814   3.607  1.6364  2.6221 -1.9862
   71MOL    C9726837   5.326   1.105   4.146 -0.4331  0.3145  0.2896
   71MOL    C9826838   5.352   1.248   4.178 -0.0413 -0.1327  0.7647
   71MOL    C9926839   5.252   1.342   4.114 -0.6031  0.4103 -0.1229
   71MOL   C10026840   5.273   1.482   4.165 -0.6271 -0.6682 -0.2916
   71MOL   C10126841   5.208   1.585   4.063  0.3087  0.2607 -0.2462
   71MOL   C10226842   5.219   1.729   4.119 -0.4715  0.2547  0.3220
   71MOL   O10326843   5.353   1.268   4.319 -0.0249 -0.1950 -0.0200
   71MOL   H10426844   5.245   1.061   4.204 -0.8214 -0.4102 -0.7753
   71MOL   H10526845   5.287   1.099   4.044 -0.2092 -1.6054  0.2958
   71MOL   H10626846   5.447   1.282   4.137  0.2981 -2.0228 -0.0398
   71MOL   H10726847   5.152   1.334   4.158 -0.3881  0.9313  0.4806
   71MOL   H10826848   5.249   1.328   4.006 -2.7242 -0.5529  0.0355
   71MOL   H10926849   5.382   1.489   4.164 -0.6620  0.0216  0.0676
   71MOL   H11026850   5.240   1.502   4.267 -1.8811 -1.4249 -0.5380
   71MOL   H11126851   5.102   1.560   4.061  0.0958  1.0984  0.0471
   71MOL   H11226852   5.241   1.587   3.959  0.2637  0.4856 -0.2559
   71MOL   H11326853   5.213   1.808   4.044 -1.4338 -0.5155 -0.4377
   71MOL   H11426854   5.146   1.748   4.198 -1.2635  0.7353 -0.5163
   71MOL   H11526855   5.307   1.746   4.180  0.2391  0.3944 -0.7340
   71MOL   C11626856   5.480   1.243   4.389 -0.5408 -0.7715 -0.6739
   71MOL   C11726857   5.453   1.238   4.541 -0.7414 -0.3707  0.5810
   71MOL   C11826858   5.582   1.226   4.627 -0.3955  0.1717  0.1752
   71MOL   C11926859   5.690   1.121   4.575 -0.4292 -0.1043  0.2088
   71MOL   C12026860   5.811   1.095   4.673  0.6716 -0.4154 -0.7266
   71MOL   C12126861   5.893   0.968   4.634 -0.6189  0.3473  0.3794
   71MOL   O12226862   5.373   1.125   4.583  0.5423 -0.2460 -0.8370
   71MOL   H12326863   5.526   1.148   4.361  1.4504  0.4713 -1.6906
   71MOL   H12426864   5.557   1.313   4.359  0.4063 -2.1670 -1.5325
   71MOL   H12526865   5.391   1.324   4.567 -0.1822  0.6953 -1.4688
   71MOL   H12626866   5.634   1.321   4.637 -3.0669  1.8533 -1.3278
   71MOL   H12726867   5.551   1.191   4.725 -0.0027  1.0919  0.6272
   71MOL   H12826868   5.723   1.138   4.472 -0.0034  0.6766  0.4677
   71MOL   H12926869   5.622   1.037   4.566 -0.1595 -0.4016  0.9428
   71MOL   H13026870   5.877   1.180   4.689  0.4834 -0.4967  0.5225
   71MOL   H13126871   5.775   1.079   4.775 -1.1989  2.2368 -0.9284
   71MOL   H13226872   5.916   0.951   4.528  0.7580 -1.6843  0.9844
   71MOL   H13326873   5.991   0.968   4.682 -1.1831  2.6962  1.6316
   71MOL   H13426874   5.853   0.878   4.679  0.5019 -1.1706 -1.5653
   71MOL   C13526875   5.236   1.136   4.554 -0.2854 -0.2718 -0.1045
   71MOL   C13626876   5.144   1.024   4.607  0.1102 -0.4774 -0.3235
   71MOL   C13726877   5.017   1.014   4.523 -0.2032 -0.5236 -0.1328
   71MOL   C13826878   4.912   0.918   4.583 -0.1951  1.0886  0.6672
   71MOL   C13926879   4.827   0.844   4.476  0.4044  0.0290 -0.2742
   71MOL   C14026880   4.730   0.740   4.534  0.7533 -0.1336 -0.1324
   71MOL   O14126881   5.118   1.052   4.743  0.1023  0.4207 -0.6099
   71MOL   H14226882   5.186   1.233   4.551  0.0471 -0.1286 -1.2065
   71MOL   H14326883   5.248   1.106   4.450  0.8738  0.0127 -0.0591
   71MOL   H14426884   5.199   0.931   4.598  0.3278 -0.4906  1.1137
   71MOL   H14526885   4.962   1.108   4.525 -2.9341 -2.0697  3.2987
   71MOL   H14626886   5.037   0.996   4.418  0.4395  0.0755 -0.1121
   71MOL   H14726887   4.854   0.970   4.660 -0.4123  0.9443  0.5998
   71MOL   H14826888   4.963   0.838   4.638 -1.2660 -0.9711 -1.2975
   71MOL   H14926889   4.900   0.793   4.414  0.8849  2.5855 -1.8958
   71MOL   H15026890   4.776   0.918   4.413 -1.6488 -0.7159  0.4710
   71MOL   H15126891   4.700   0.665   4.461 -0.2932  1.5319 -1.4482
   71MOL   H15226892   4.779   0.689   4.616  0.0262 -1.7226 -0.6500
   71MOL   H15326893   4.637   0.786   4.566  0.0861  0.4359 -2.7226
   71MOL   C15426894   5.209   1.005   4.844 -0.1247 -0.1015 -0.2792
   71MOL   C15526895   5.140   1.014   4.983 -0.3825 -0.3679 -0.1385
   71MOL   C15626896   5.104   1.159   5.032 -0.9178  0.1822 -0.3790
   71MOL   C15726897   5.058   1.166   5.181  0.4271 -0.0237 -0.1926
   71MOL   C15826898   5.016   1.311   5.215 -0.2219 -0.0601  0.2435
   71MOL   C15926899   4.942   1.301   5.352  0.1368  0.3249 -0.1822
   71MOL   O16026900   5.025   0.937   4.997  0.4444 -0.1544 -0.2244
   71MOL   H16126901   5.299   1.066   4.845 -1.2020  1.5171  0.3211
   71MOL   H16226902   5.244   0.904   4.823  1.5558  0.8565 -2.2147
   71MOL   H16326903   5.205   0.975   5.060  0.8841  2.5094  0.3243
   71MOL   H16426904   5.029   1.199   4.963  1.1245  0.6691 -2.3789
   71MOL   H16526905   5.190   1.223   5.013 -1.5264  0.5917 -1.8016
   71MOL   H16626906   5.122   1.119   5.255  0.2262  0.7431  0.4725
   71MOL   H16726907   4.968   1.106   5.189  1.1015 -0.9514  0.4499
   71MOL   H16826908   5.099   1.381   5.215 -0.6226  0.4202 -0.8887
   71MOL   H16926909   4.943   1.341   5.140 -0.5847 -2.2200 -0.3146
   71MOL   H17026910   4.867   1.223   5.337 -0.8974  0.9988  1.3883
   71MOL   H17126911   4.891   1.394   5.377  1.7846  0.9753  0.7983
   71MOL   H17226912   5.007   1.270   5.433 -0.8600 -0.6757  0.2526
   71MOL   C17326913   5.043   0.798   4.963  0.6618 -0.5108  0.2726
   71MOL   C17426914   4.923   0.719   5.027  0.2337  0.6795 -0.6161
   71MOL   C17526915   4.789   0.777   4.985  0.1928  0.1608 -0.5655
   71MOL   C17626916   4.684   0.726   5.079 -0.5767 -0.2490  0.1412
   71MOL   C17726917   4.545   0.787   5.046 -0.2422 -0.4098 -0.0267
   71MOL   C17826918   4.454   0.759   5.160 -0.4552 -0.7750  0.0575
   71MOL   O17926919   4.918   0.587   4.983  0.5379 -0.1564 -0.0543
   71MOL   H18026920   5.141   0.764   4.996  1.3983  0.0135 -1.3327
   71MOL   H18126921   5.037   0.790   4.855  1.1113  0.9153  0.1407
   71MOL   H18226922   4.943   0.725   5.134  1.4091  0.1567 -0.7983
   71MOL   H18326923   4.792   0.885   4.997  0.7321  0.2808 -1.7015
   71MOL   H18426924   4.767   0.767   4.879  0.4454  2.1881 -0.8328
   71MOL   H18526925   4.671   0.619   5.065 -0.7196  0.1454 -3.0883
   71MOL   H18626926   4.712   0.742   5.183  0.3370 -1.6083  0.1086
   71MOL   H18726927   4.569   0.891   5.025 -2.7713  0.2767  0.3490
   71MOL   H18826928   4.513   0.739   4.954 -0.0035 -0.2415 -0.1970
   71MOL   H18926929   4.441   0.650   5.159  1.2601 -0.9890  0.0257
   71MOL   H19026930   4.364   0.818   5.142  0.7284  0.6984 -1.1450
   71MOL   H19126931   4.486   0.793   5.258  0.3619 -1.5163  0.0544
   71MOL   C19226932   5.022   0.499   5.032 -0.9062  0.1354  0.6858
   71MOL   C19326933   4.988   0.364   4.964 -0.0093  0.4438 -0.0444
   71MOL   C19426934   5.036   0.244   5.051 -0.3927  0.0352  0.4086
   71MOL   C19526935   5.006   0.109   4.990 -0.5323  0.0358  0.2911
   71MOL   C19626936   5.020   7.776   5.083  0.1435  0.3397 -0.6168
   71MOL   C19726937   4.975   7.649   5.008  0.1914  0.2982 -0.7990
   71MOL   O19826938   5.053   0.350   4.834 -0.6183 -0.4161 -0.4249
   71MOL   H19926939   5.119   0.539   5.003  0.4718 -3.0705  0.6060
   71MOL   H20026940   5.005   0.494   5.140 -2.6979 -1.2070  0.3603
   71MOL   H20126941   4.882   0.349   4.945  0.0379 -0.5333  0.4268
   71MOL   H20226942   5.144   0.252   5.060 -0.3593 -1.4995  1.5932
   71MOL   H20326943   4.986   0.255   5.147  0.9067  2.4883  0.8613
   71MOL   H20426944   5.075   0.099   4.906 -1.0849 -3.8956  0.2061
   71MOL   H20526945   4.911   0.114   4.938  0.4736 -3.1448 -2.0088
   71MOL   H20626946   5.123   7.750   5.107 -0.1736 -0.4218 -0.0640
   71MOL   H20726947   4.967   0.016   5.175 -0.2500 -1.2001 -0.3941
   71MOL   H20826948   4.871   7.655   4.977 -0.1475 -0.7124  0.1262
   71MOL   H20926949   5.043   7.628   4.925  1.5164  1.8175 -0.1450
   71MOL   H21026950   4.991   7.560   5.068 -1.4713  0.3792 -0.2217
   71MOL   C21126951   4.986   0.437   4.744  0.3836 -0.6270 -0.1713
   71MOL   C21226952   5.011   0.387   4.599  0.1982  0.2523  0.6461
   71MOL   C21326953   5.029   0.506   4.500 -0.4817  0.0348 -0.9205
   71MOL   C21426954   5.066   0.453   4.357 -0.4664  0.2901  0.2039
   71MOL   C21526955   5.134   0.549   4.264 -0.3899  0.3025 -0.0269
   71MOL   C21626956   5.269   0.608   4.311 -0.2877  0.3377 -0.0833
   71MOL   O21726957   4.895   0.318   4.553 -0.0967 -0.2106  0.2089
   71MOL   H21826958   5.034   0.534   4.757 -2.6862  0.6809  2.0274
   71MOL   H21926959   4.880   0.456   4.759  0.7497 -0.7431  2.8396
   71MOL   H22026960   5.095   0.318   4.598 -1.3042 -1.6163  1.4220
   71MOL   H22126961   4.935   0.559   4.488 -0.3160  0.7394  0.7543
   71MOL   H22226962   5.101   0.581   4.531 -1.4370  0.9263 -0.8226
   71MOL   H22326963   5.135   0.370   4.372 -1.2539 -0.4294 -0.1318
   71MOL   H22426964   4.977   0.402   4.320 -1.3986  1.9104  0.1310
   71MOL   H22526965   5.162   0.501   4.170 -1.3914  0.7944 -0.5812
   71MOL   H22626966   5.062   0.624   4.231 -0.8727  0.1359  0.6445
   71MOL   H22726967   5.318   0.663   4.231 -0.2892 -0.8522 -0.9137
   71MOL   H22826968   5.329   0.520   4.332 -1.2610  0.0849  1.7543
   71MOL   H22926969   5.260   0.674   4.397  0.5097 -0.8181  0.8844
   71MOL   C23026970   4.888   0.184   4.600 -0.3647  0.0560  0.7624
   71MOL   C23126971   4.763   0.110   4.570  0.2111 -0.3339 -0.4359
   71MOL   C23226972   4.745   7.783   4.670  0.4281 -0.1475  0.8570
   71MOL   C23326973   4.617   7.704   4.639  0.1622 -0.1280  0.3817
   71MOL   C23426974   4.599   7.575   4.723 -0.4331  0.6063 -0.5739
   71MOL   C23526975   4.485   7.494   4.660  0.3288 -0.5508 -0.6671
   71MOL   O23626976   4.776   0.056   4.434  0.4011  0.1981 -0.0083
   71MOL   H23726977   4.978   0.127   4.577  0.0762  1.1038 -0.1433
   71MOL   H23826978   4.898   0.193   4.709 -0.0586  0.5104  0.7009
   71MOL   H23926979   4.679   0.180   4.569 -0.0096 -0.6027 -0.7783
   71MOL   H24026980   4.725   0.044   4.767 -2.2439 -0.2719  0.4044
   71MOL   H24126981   4.835   7.723   4.675  0.7673  0.1458 -1.2151
   71MOL   H24226982   4.611   7.672   4.535  1.5288 -0.1972  0.3226
   71MOL   H24326983   4.534   7.772   4.657  0.3838  0.4241 -0.6397
   71MOL   H24426984   4.683   7.507   4.718  2.7577  4.3950 -0.9188
   71MOL   H24526985   4.572   7.599   4.826 -0.2279 -0.6454 -0.2223
   71MOL   H24626986   4.464   7.408   4.723  0.0548  0.5793  0.8117
   71MOL   H24726987   4.503   7.461   4.558 -1.3962 -1.2365 -0.7590
   71MOL   H24826988   4.403   7.566   4.652 -0.0671 -1.1253 -1.7719
   71MOL   C24926989   4.774   0.147   4.327  0.0212  0.5731 -0.2094
   71MOL   C25026990   4.751   0.065   4.200  0.0793  0.2317  0.1705
   71MOL   C25126991   4.810   0.151   4.087  0.6787 -0.3430  0.5714
   71MOL   C25226992   4.804   0.082   3.953 -0.7484  0.2550 -0.0954
   71MOL   C25326993   4.847   0.172   3.841  0.1042  0.3681 -0.3651
   71MOL   C25426994   4.735   0.265   3.792  0.5424 -0.0474  0.2131
   71MOL   O25526995   4.609   0.052   4.177 -0.4002 -0.4748  0.7552
   71MOL   H25626996   4.693   0.218   4.344  1.6992  2.1701  1.3491
   71MOL   H25726997   4.868   0.202   4.330 -0.6085  1.7454 -1.3194
   71MOL   H25826998   4.810   7.759   4.195 -0.2682  0.0273 -0.1669
   71MOL   H25926999   4.733   0.227   4.100 -0.6057 -1.6968  0.9686
   71MOL   H26027000   4.912   0.181   4.112  0.2116  0.4013  1.6045
   71MOL   H26127001   4.874   7.785   3.969 -0.8773  0.0931 -0.3563
   71MOL   H26227002   4.705   0.047   3.923 -1.1564  0.0463  1.4694
   71MOL   H26327003   4.929   0.237   3.874  1.1051 -0.4256 -1.2424
   71MOL   H26427004   4.897   0.114   3.763  1.9495 -0.2685  1.2379
   71MOL   H26527005   4.695   0.329   3.870  2.2687 -0.6377  1.6177
   71MOL   H26627006   4.649   0.218   3.745  0.3109 -0.5978  1.1650
   71MOL   H26727007   4.783   0.336   3.725  0.0375  1.1737  1.1226
   71MOL   C26827008   4.539   7.742   4.256 -0.8982  0.0086 -0.5657
   71MOL   C26927009   4.390   7.769   4.231 -0.1417  0.7222 -0.4443
   71MOL   C27027010   4.301   7.714   4.341  0.7672 -0.3493 -0.3731
   71MOL   C27127011   4.177   0.011   4.351 -0.7416 -0.3608 -0.5045
   71MOL   C27227012   4.084   7.739   4.462  0.2186 -0.3369  0.1181
   71MOL   C27327013   3.946   0.005   4.442  0.5074 -0.0729  0.0538
   71MOL   O27427014   4.357   7.720   4.101  0.1061  0.0992 -0.9600
   71MOL   H27527015   4.548   7.769   4.362 -1.5624  1.0753 -0.7713
   71MOL   H27627016   4.567   7.637   4.244  0.4187  0.3753 -0.8170
   71MOL   H27727017   4.372   0.091   4.228  1.8279  1.1297  1.4781
   71MOL   H27827018   4.278   7.608   4.324 -1.2372 -0.4243  2.4111
   71MOL   H27927019   4.352   7.719   4.437 -0.6123  1.1248  0.3238
   71MOL   H28027020   4.203   0.115   4.368  1.4620 -0.8606 -0.6376
   71MOL   H28127021   4.133   7.782   4.252 -0.3779 -1.3265 -0.5282
   71MOL   H28227022   4.092   7.631   4.449  0.2841 -0.2627 -0.4826
   71MOL   H28327023   4.116   7.766   4.563  1.9271  0.0635 -0.5017
   71MOL   H28427024   3.872   7.746   4.508  0.8649 -0.3959  0.2349
   71MOL   H28527025   3.958   0.111   4.465 -0.4429 -0.1904  1.1328
   71MOL   H28627026   3.916   0.005   4.337  0.4558  0.8567  0.0571
   71MOL   C28727027   4.372   0.010   3.982  0.1500  0.6442 -0.2935
   71MOL   C28827028   4.361   7.695   3.860 -0.0927  0.2630 -0.3413
   71MOL   C28927029   4.409   7.762   3.730 -0.3722  0.4172  0.6511
   71MOL   C29027030   4.426   7.688   3.589  0.6906  0.4948 -0.1485
   71MOL   C29127031   4.291   7.634   3.529  0.2100  0.0459 -0.1491
   71MOL   C29227032   4.312   7.569   3.392  0.0099 -0.5133 -0.4993
   71MOL   O29327033   4.224   7.657   3.825  0.1570  0.5153  0.3173
   71MOL   H29427034   4.463   0.070   3.979  0.8781 -0.4969 -2.4612
   71MOL   H29527035   4.297   0.089   3.974 -0.0489  0.6035  1.0552
   71MOL   H29627036   4.434   7.615   3.873  0.0801  0.3759 -0.6118
   71MOL   H29727037   4.329   0.049   3.715 -0.7062  0.0469  0.6399
   71MOL   H29827038   4.501   0.031   3.755 -1.9211  3.1530  0.6061
   71MOL   H29927039   4.477   7.743   3.510  0.1760  0.3911 -0.5611
   71MOL   H30027040   4.488   7.603   3.617  1.4667  0.5092 -1.7671
   71MOL   H30127041   4.228   7.719   3.502  0.2385  0.3231  0.6275
   71MOL   H30227042   4.247   7.566   3.603  0.9830  2.0476  2.2499
   71MOL   H30327043   4.329   7.647   3.318  0.5500 -0.0251  0.1323
   71MOL   H30427044   4.397   7.501   3.386  0.3295  0.0030 -2.1672
   71MOL   H30527045   4.226   7.508   3.366 -1.8893  1.8395  0.1507
   71MOL   C30627046   4.172   7.549   3.904 -0.0606 -1.2396 -0.0744
   71MOL   C30727047   4.062   7.480   3.820 -0.9039  0.8585  0.5742
   71MOL   C30827048   3.938   7.560   3.794  0.4189 -0.4066 -0.0285
   71MOL   C30927049   3.842   7.586   3.912  0.0688  0.0498  0.2439
   71MOL   C31027050   3.700   7.616   3.871  0.3481  0.4154 -0.1220
   71MOL   C31127051   3.608   7.632   3.994 -0.1944 -0.0489  0.3627
   71MOL   O31227052   4.013   7.351   3.858 -0.3683 -0.3112 -0.6472
   71MOL   H31327053   4.252   7.476   3.919  0.8235 -0.3590 -0.4289
   71MOL   H31427054   4.136   7.576   4.003 -0.5799 -1.0272 -0.3213
   71MOL   H31527055   4.114   7.471   3.725  0.5180 -0.6357  1.4482
   71MOL   H31627056   3.885   7.521   3.707  2.2374 -0.9078 -0.9455
   71MOL   H31727057   3.967   7.659   3.758  1.1165 -0.7253 -0.3722
   71MOL   H31827058   3.838   7.498   3.977 -1.2464  0.0429  0.1666
   71MOL   H31927059   3.880   7.666   3.974 -0.0031 -0.3285  0.7837
   71MOL   H32027060   3.664   7.539   3.803 -0.1996  1.1657 -0.6908
   71MOL   H32127061   3.703   7.705   3.808 -2.1360  0.0441 -0.8366
   71MOL   H32227062   3.622   7.719   4.059  0.9009 -0.0399  0.1134
   71MOL   H32327063   3.510   7.621   3.947 -0.7506  2.5880  0.8131
   71MOL   H32427064   3.631   7.547   4.058  1.2125  1.1099  1.4328
   71MOL   C32527065   4.095   7.242   3.824 -0.2112 -0.4377  0.1080
   71MOL   C32627066   4.008   7.110   3.847  0.3478 -0.1615  0.4113
   71MOL   C32727067   3.965   7.087   3.989  0.3806  0.6869 -0.8827
   71MOL   C32827068   3.827   7.017   4.000 -1.2034 -0.2261  0.0661
   71MOL   C32927069   3.711   7.083   3.927 -0.7940 -0.2643 -0.3833
   71MOL   C33027070   3.681   7.227   3.973  0.2856  1.0081 -0.0885
   71MOL   O33127071   4.076   6.988   3.800 -0.6176 -0.1480 -0.2546
   71MOL   H33227072   4.196   7.240   3.866  0.0779  1.7638 -0.4537
   71MOL   H33327073   4.107   7.241   3.716 -1.9482  0.6267 -0.1139
   71MOL   H33427074   3.915   7.123   3.791 -1.0451 -3.5339  1.7690
   71MOL   H33527075   4.035   7.025   4.045  0.2574  1.1412 -0.2280
   71MOL   H33627076   3.948   7.178   4.046 -0.5248  0.2186 -0.3800
   71MOL   H33727077   3.839   6.924   3.944 -1.2335  0.4536 -1.0907
   71MOL   H33827078   3.794   6.978   4.096 -0.5975 -0.3163  0.2387
   71MOL   H33927079   3.723   7.073   3.819 -0.4610  1.9004 -0.5760
   71MOL   H34027080   3.619   7.030   3.948  0.2902 -0.3720  4.5808
   71MOL   H34127081   3.596   7.272   3.922 -0.7276 -0.4564  0.2727
   71MOL   H34227082   3.672   7.233   4.081 -1.5302 -2.3318 -0.0050
   71MOL   H34327083   3.764   7.288   3.936  2.0122 -1.0784  0.2994
   71MOL   C34427084   4.076   6.962   3.661  0.7816 -0.1401 -0.1949
   71MOL   C34527085   4.087   6.813   3.633  0.3616 -0.5586  0.6560
   71MOL   C34627086   4.101   6.787   3.479 -0.4804  0.1695 -0.6490
   71MOL   C34727087   4.114   6.629   3.443 -0.3672 -0.5596 -0.1595
   71MOL   C34827088   4.101   6.617   3.285  0.1639 -0.4342  0.0518
   71MOL   C34927089   4.094   6.478   3.235  0.6763  0.1196  0.5725
   71MOL   O35027090   4.211   6.787   3.699  0.1272  0.4043 -0.3321
   71MOL   H35127091   4.156   7.023   3.619  1.1036 -0.6172 -0.2811
   71MOL   H35227092   3.982   6.999   3.621 -0.3666 -1.3981  1.2789
   71MOL   H35327093   4.001   6.771   3.686  1.6218 -1.7924  1.7511
   71MOL   H35427094   4.186   6.845   3.443  2.3092 -2.2368  1.7143
   71MOL   H35527095   4.011   6.821   3.429 -0.9248  2.9695  1.8892
   71MOL   H35627096   4.046   6.577   3.511  2.4316 -1.3472  2.1162
   71MOL   H35727097   4.215   6.589   3.452 -0.3875 -0.7508 -0.7865
   71MOL   H35827098   4.186   6.660   3.232 -0.2244 -1.7460 -1.6763
   71MOL   H35927099   4.016   6.677   3.254 -0.4378 -1.1212  0.3695
   71MOL   H36027100   4.181   6.415   3.253  1.0068 -0.1294 -1.7864
   71MOL   H36127101   4.083   6.476   3.127  0.6723 -4.6533  0.5618
   71MOL   H36227102   4.007   6.430   3.280 -0.0747 -0.9743 -1.9953
   71MOL   C36327103   4.212   6.677   3.788 -0.3258  0.5183  0.2378
   71MOL   C36427104   4.343   6.664   3.865 -0.3252 -0.6349  0.4444
   71MOL   C36527105   4.360   6.753   3.985  0.3766 -0.2304 -0.3873
   71MOL   C36627106   4.378   6.906   3.946 -0.0562 -0.6437  0.0215
   71MOL   C36727107   4.432   6.976   4.076  0.5994  0.2760  0.1230
   71MOL   C36827108   4.457   7.123   4.068 -0.3658 -0.3230 -0.0373
   71MOL   O36927109   4.367   6.525   3.909  0.2873  0.3094  0.5831
   71MOL   H37027110   4.190   6.595   3.721 -1.2129  0.2689  0.8171
   71MOL   H37127111   4.127   6.678   3.857 -0.6668 -3.3510 -0.0353
   71MOL   H37227112   4.418   6.691   3.791  0.6467 -1.4185  1.1326
   71MOL   H37327113   4.297   6.736   4.072  3.1868 -0.0908  1.7324
   71MOL   H37427114   4.455   6.725   4.031  0.3610 -0.7522 -0.6781
   71MOL   H37527115   4.455   6.913   3.869  1.6754 -2.8716  1.5114
   71MOL   H37627116   4.285   6.949   3.908 -0.6565 -2.1000 -0.1772
   71MOL   H37727117   4.369   6.953   4.162 -0.1635 -0.6682 -0.6744
   71MOL   H37827118   4.527   6.927   4.095  0.5955 -0.0415 -0.6852
   71MOL   H37927119   4.511   7.173   4.148 -0.5408 -2.4194  1.4029
   71MOL   H38027120   4.515   7.150   3.979 -1.7161 -0.3876 -0.9621
   71MOL   H38127121   4.364   7.176   4.043  0.4504  0.5354 -1.3409
   71MOL   H38227122   4.285   6.480   3.924 -0.0820  1.2446  1.4080
   72MOL     C127123   2.182   1.182   0.174 -0.6485 -0.0989  0.1261
   72MOL     C227124   2.121   1.135   0.043  0.2205  0.2899  0.0489
   72MOL     C327125   2.100   0.982   0.050 -0.0848  0.3416 -0.9699
   72MOL     C427126   2.064   0.926   7.699  0.8761  0.3894  1.0666
   72MOL     C527127   2.059   0.773   7.697  0.0414 -0.6002  0.1616
   72MOL     C627128   1.938   0.719   7.769 -0.2877 -0.0723 -0.6702
   72MOL     O727129   1.998   1.212   0.031  0.3318  0.1697 -0.4315
   72MOL     H827130   2.202   1.289   0.181  1.1112 -0.2900 -1.4039
   72MOL     H927131   2.270   1.121   0.197 -0.4684  0.2093  0.2623
   72MOL    H1027132   2.193   1.154   7.749  0.2958 -1.1937 -0.2426
   72MOL    H1127133   2.198   0.943   0.081  0.1725  1.6117 -0.1364
   72MOL    H1227134   2.027   0.966   0.129  0.1654 -0.5004 -0.9041
   72MOL    H1327135   1.974   0.970   7.655 -0.1822 -1.6107  1.1953
   72MOL    H1427136   2.141   0.948   7.625 -0.0016 -2.8556 -0.9280
   72MOL    H1527137   2.066   0.739   7.594  1.2655  0.0362  0.0244
   72MOL    H1627138   2.146   0.730   7.745 -0.5744 -0.2197  1.6326
   72MOL    H1727139   1.845   0.760   7.730 -0.6393  1.2479  1.4637
   72MOL    H1827140   1.933   0.613   7.743  0.1019 -0.3687  0.4249
   72MOL    H1927141   1.936   0.735   0.092  1.6531 -1.8611 -0.3408
   72MOL    H2027142   2.113   1.166   0.257  1.9250  1.3501  2.6480
   72MOL    C2127143   2.000   1.289   7.698 -0.1370  0.2876  0.2068
   72MOL    C2227144   1.881   1.385   7.680  0.4376  0.2449 -0.5036
   72MOL    C2327145   1.756   1.317   7.738 -0.4295  0.0310  0.0745
   72MOL    C2427146   1.616   1.384   7.711 -0.1376 -0.6022 -0.0605
   72MOL    C2527147   1.511   1.341   0.025 -0.8036  0.1310 -0.0911
   72MOL    C2627148   1.375   1.411   0.006 -0.7122  0.1823 -0.3329
   72MOL    O2727149   1.890   1.507   7.745  0.2760 -0.0448 -0.2899
   72MOL    H2827150   2.093   1.346   7.708  0.4564 -0.9282  1.6848
   72MOL    H2927151   2.012   1.222   7.613 -1.0693 -0.2871  0.5237
   72MOL    H3027152   1.876   1.400   7.572  0.0951  0.9764 -0.3956
   72MOL    H3127153   1.775   1.306   0.059 -0.0087 -0.7602 -0.0805
   72MOL    H3227154   1.753   1.216   7.698 -0.0941 -0.0325  0.2110
   72MOL    H3327155   1.596   1.363   7.606  1.4460 -0.9590 -0.3038
   72MOL    H3427156   1.624   1.493   7.705  2.1489 -0.7505 -0.3531
   72MOL    H3527157   1.500   1.233   0.030 -1.9280  0.2956  1.1484
   72MOL    H3627158   1.533   1.370   0.128  0.3154  1.4480 -0.6740
   72MOL    H3727159   1.313   1.376   0.088 -1.7185  0.7871 -0.8369
   72MOL    H3827160   1.328   1.396   7.694  1.3600 -1.9206 -1.0583
   72MOL    H3927161   1.385   1.518   0.024  0.8870 -0.0226  0.1394
   72MOL    C4027162   1.973   1.603   7.679  0.2945 -0.2533  0.1728
   72MOL    C4127163   1.944   1.745   7.746 -1.0016 -0.3823  0.7814
   72MOL    C4227164   1.996   1.855   7.648 -0.3087 -0.2469 -0.0641
   72MOL    C4327165   1.936   1.991   7.682 -0.1558  0.3064  0.9025
   72MOL    C4427166   1.950   2.088   7.563 -0.0719 -0.1464  0.9703
   72MOL    C4527167   1.891   2.234   7.606  0.2387  0.1347 -0.5467
   72MOL    O4627168   2.016   1.762   0.082 -0.0368  0.0749  0.3716
   72MOL    H4727169   1.950   1.608   7.573 -0.6687  3.5507  0.5173
   72MOL    H4827170   2.077   1.575   7.699 -0.2589 -1.6067  1.3034
   72MOL    H4927171   1.839   1.750   7.774 -0.8683  0.0235  1.2050
   72MOL    H5027172   2.104   1.862   7.654 -0.0191 -1.2362 -3.1003
   72MOL    H5127173   1.965   1.831   7.546 -1.7180 -0.7511  0.4736
   72MOL    H5227174   1.972   2.026   7.779  0.6863 -0.3510  0.8270
   72MOL    H5327175   1.831   1.973   7.705  0.0997 -2.6500 -0.0341
   72MOL    H5427176   2.056   2.097   7.539 -0.4818  4.8622  0.2923
   72MOL    H5527177   1.911   2.043   7.472 -1.2359 -0.9626  1.8626
   72MOL    H5627178   1.963   2.276   7.675  1.9203  0.1556 -2.2542
   72MOL    H5727179   1.876   2.308   7.527 -0.2962  1.3999  0.7305
   72MOL    H5827180   1.797   2.228   7.660 -0.6432  1.4955 -1.8804
   72MOL    C5927181   1.975   1.683   0.195  0.0730  0.5042 -0.4572
   72MOL    C6027182   2.072   1.709   0.317  0.0485 -0.8038 -0.2607
   72MOL    C6127183   2.217   1.678   0.272  0.5445  0.4276  0.1229
   72MOL    C6227184   2.316   1.665   0.391 -0.0895  0.3330 -0.2535
   72MOL    C6327185   2.472   1.651   0.372  0.5911 -0.4528  0.0375
   72MOL    C6427186   2.537   1.743   0.260 -0.7037 -0.0448 -0.0211
   72MOL    O6527187   2.041   1.842   0.376 -0.4683  0.3698 -0.1647
   72MOL    H6627188   1.987   1.579   0.166 -0.0771  0.4239 -0.2304
   72MOL    H6727189   1.873   1.712   0.219 -0.0382  0.7915 -1.2632
   72MOL    H6827190   2.025   1.646   0.393  0.8204  2.0843  2.7256
   72MOL    H6927191   2.257   1.758   0.210  3.0257  1.3097  2.7286
   72MOL    H7027192   2.229   1.589   0.209  1.2883 -1.2029  2.4879
   72MOL    H7127193   2.274   1.594   0.462  1.0450  0.1077  0.2109
   72MOL    H7227194   2.308   1.765   0.435 -0.5681  0.2161 -0.0801
   72MOL    H7327195   2.479   1.548   0.338 -0.0091 -1.0533  1.6807
   72MOL    H7427196   2.532   1.657   0.463 -0.1111 -0.6862  0.5152
   72MOL    H7527197   2.470   1.753   0.174 -2.3720  1.6853  1.4320
   72MOL    H7627198   2.560   1.848   0.277 -0.4118 -0.0163 -0.5759
   72MOL    H7727199   2.636   1.711   0.228 -0.8007  1.0002 -1.4187
   72MOL    C7827200   2.063   1.959   0.289  0.1824  0.2177  0.5108
   72MOL    C7927201   2.045   2.092   0.372 -0.1923  1.1027 -0.7534
   72MOL    C8027202   2.000   2.216   0.284 -0.5935  0.1176 -0.8870
   72MOL    C8127203   1.979   2.340   0.367 -0.1464 -0.2860  0.2317
   72MOL    C8227204   1.929   2.463   0.285 -0.1385  0.7490  0.5420
   72MOL    C8327205   1.912   2.588   0.367  0.1146 -0.5031 -0.1946
   72MOL    O8427206   2.171   2.129   0.428 -0.9879 -0.1443  0.0172
   72MOL    H8527207   1.995   1.958   0.204  0.2975 -1.5568  0.4207
   72MOL    H8627208   2.162   1.967   0.244 -0.8464 -0.0560 -1.8330
   72MOL    H8727209   1.973   2.075   0.452  0.4111 -1.7380 -0.7656
   72MOL    H8827210   2.075   2.239   0.208  0.8304 -0.5469  0.2698
   72MOL    H8927211   1.903   2.196   0.240 -1.2349 -0.7958  0.8613
   72MOL    H9027212   2.081   2.360   0.399 -0.3111 -0.5155  0.9096
   72MOL    H9127213   1.926   2.334   0.462  0.6308  0.2177  0.7027
   72MOL    H9227214   1.997   2.477   0.201 -0.7763  0.9743  0.0604
   72MOL    H9327215   1.833   2.441   0.237  0.8172 -2.2806 -0.0395
   72MOL    H9427216   2.004   2.629   0.408  0.0674  0.7502 -1.2876
   72MOL    H9527217   1.838   2.570   0.445  1.2630 -2.1666  0.5239
   72MOL    H9627218   1.873   2.669   0.305  1.8594 -0.3897 -1.1821
   72MOL    C9727219   2.198   2.085   0.555  0.2894  0.2950  0.1580
   72MOL    C9827220   2.316   2.167   0.616  0.2782  0.3112 -0.3948
   72MOL    C9927221   2.445   2.157   0.530  0.5741  0.8370  0.3531
   72MOL   C10027222   2.564   2.232   0.590 -0.3427  0.5141  0.0526
   72MOL   C10127223   2.692   2.221   0.524 -0.1828  0.1761 -0.2273
   72MOL   C10227224   2.800   2.271   0.612 -0.5997 -0.7069 -0.1584
   72MOL   O10327225   2.292   2.309   0.635 -0.5636  0.1986  0.4631
   72MOL   H10427226   2.230   1.982   0.567  3.4201  1.2041  0.0419
   72MOL   H10527227   2.113   2.100   0.621  1.7301  2.2109  1.6522
   72MOL   H10627228   2.335   2.118   0.711  0.9080 -0.3231 -0.8362
   72MOL   H10727229   2.423   2.185   0.427  0.6490 -0.6743 -0.0775
   72MOL   H10827230   2.479   2.054   0.529  0.3436  0.7628 -0.1892
   72MOL   H10927231   2.571   2.212   0.697 -0.0258  1.6345  0.2512
   72MOL   H11027232   2.538   2.336   0.571 -1.1425  0.0855 -1.2376
   72MOL   H11127233   2.687   2.278   0.431  0.9711  0.3948 -0.1661
   72MOL   H11227234   2.718   2.117   0.504  1.1507 -0.2333  3.2904
   72MOL   H11327235   2.897   2.269   0.564 -0.4277 -0.4254  0.1770
   72MOL   H11427236   2.789   2.365   0.666 -1.9751 -0.5013 -0.7800
   72MOL   H11527237   2.808   2.200   0.694 -1.6273 -0.6575 -0.0089
   72MOL   C11627238   2.176   2.344   0.706 -0.2977 -0.0472 -0.4005
   72MOL   C11727239   2.191   2.486   0.759 -0.2744 -0.0122 -0.0228
   72MOL   C11827240   2.053   2.534   0.806 -0.2725  0.1625 -0.0468
   72MOL   C11927241   2.046   2.666   0.887 -0.0326  0.1176 -1.0623
   72MOL   C12027242   1.915   2.700   0.957  0.1459 -0.9141 -0.1656
   72MOL   C12127243   1.908   2.826   1.041 -0.0653 -0.4216  0.6717
   72MOL   O12227244   2.232   2.573   0.655  0.4125  0.2549 -0.2018
   72MOL   H12327245   2.086   2.343   0.644  0.7441 -0.8480 -1.8986
   72MOL   H12427246   2.164   2.277   0.791 -0.9597  1.0105  0.3527
   72MOL   H12527247   2.265   2.476   0.838 -0.5394 -1.3127  0.0561
   72MOL   H12627248   1.991   2.563   0.721 -0.9542  2.1665  1.0949
   72MOL   H12727249   1.997   2.454   0.854  1.2206 -1.3650 -0.8161
   72MOL   H12827250   2.066   2.751   0.821  2.5379  0.0436 -0.4283
   72MOL   H12927251   2.128   2.683   0.957  0.6192 -1.0688 -1.5263
   72MOL   H13027252   1.845   2.707   0.874  0.7173 -0.5494 -0.6310
   72MOL   H13127253   1.874   2.626   1.025 -0.4565 -0.6942 -0.2926
   72MOL   H13227254   1.984   2.825   1.119  1.6192 -0.8844 -0.9286
   72MOL   H13327255   1.928   2.915   0.981 -2.3130  0.5814  1.3385
   72MOL   H13427256   1.815   2.838   1.097  0.9745 -0.4000  2.4274
   72MOL   C13527257   2.363   2.636   0.679  0.6004  0.2646  0.2519
   72MOL   C13627258   2.407   2.725   0.563  0.3340 -0.0850  0.1812
   72MOL   C13727259   2.290   2.818   0.519 -0.1588 -0.0545  0.1172
   72MOL   C13827260   2.339   2.952   0.446 -0.2289  1.3289 -0.1595
   72MOL   C13927261   2.229   3.026   0.363 -0.5222  0.2634 -0.0683
   72MOL   C14027262   2.285   3.161   0.308  0.1239 -0.6017 -0.2290
   72MOL   O14127263   2.461   2.672   0.446  0.5104 -0.0575 -0.2527
   72MOL   H14227264   2.354   2.684   0.776 -1.9968  1.3642 -0.5082
   72MOL   H14327265   2.433   2.554   0.695  0.6125  0.6108  2.1294
   72MOL   H14427266   2.484   2.794   0.598  1.9643 -0.3459 -2.7485
   72MOL   H14527267   2.213   2.767   0.460  0.1835  1.2630 -1.5182
   72MOL   H14627268   2.237   2.846   0.610  0.2490 -1.0649  0.6743
   72MOL   H14727269   2.415   2.924   0.374  0.6866  1.5117  0.7341
   72MOL   H14827270   2.391   3.015   0.518  0.4193  0.6679 -0.0369
   72MOL   H14927271   2.140   3.040   0.425 -0.8025 -2.7054  0.2820
   72MOL   H15027272   2.202   2.956   0.285  0.3048  1.2691 -1.2706
   72MOL   H15127273   2.326   3.222   0.388  2.8898 -1.4694 -0.9217
   72MOL   H15227274   2.359   3.148   0.229 -0.2824 -0.6143 -0.6069
   72MOL   H15327275   2.202   3.219   0.269 -0.9175 -0.1867  2.5072
   72MOL   C15427276   2.382   2.575   0.379 -0.6183  0.3882 -0.1855
   72MOL   C15527277   2.461   2.487   0.287  0.5039  0.0355 -0.4257
   72MOL   C15627278   2.358   2.389   0.220  0.0826  0.4455 -0.6211
   72MOL   C15727279   2.439   2.284   0.136 -0.3834 -0.4361  0.3250
   72MOL   C15827280   2.355   2.169   0.075  0.1809  0.6798 -0.2007
   72MOL   C15927281   2.254   2.214   7.760 -0.5372  0.1301  0.0596
   72MOL   O16027282   2.522   2.568   0.186  0.3687  0.0737  0.3310
   72MOL   H16127283   2.305   2.630   0.325 -0.7498 -0.2031 -0.6062
   72MOL   H16227284   2.328   2.510   0.448 -0.3321 -1.1057 -1.3440
   72MOL   H16327285   2.537   2.431   0.342 -0.6561 -1.1528 -0.0159
   72MOL   H16427286   2.292   2.444   0.153 -1.9566 -1.4696 -0.2320
   72MOL   H16527287   2.293   2.342   0.294 -2.0953  2.5229 -1.1403
   72MOL   H16627288   2.518   2.236   0.192 -1.6201 -0.3020  2.2159
   72MOL   H16727289   2.493   2.335   0.056 -1.0655  0.5223  0.4535
   72MOL   H16827290   2.428   2.098   0.035 -0.6942  0.6150 -1.7384
   72MOL   H16927291   2.311   2.116   0.160 -0.3331 -2.4187 -2.2999
   72MOL   H17027292   2.192   2.301   7.779 -1.2722 -0.1027 -1.1717
   72MOL   H17127293   2.171   2.149   7.731  0.7268 -1.0136 -1.0767
   72MOL   H17227294   2.295   2.234   7.661  2.4231 -0.4102  1.1238
   72MOL   C17327295   2.654   2.613   0.215  0.1750  0.5423 -0.3481
   72MOL   C17427296   2.734   2.595   0.080 -0.6216 -0.3718  0.2533
   72MOL   C17527297   2.675   2.691   7.755  0.0398  0.2601 -0.2012
   72MOL   C17627298   2.737   2.667   7.623  0.6938 -0.2029  0.4255
   72MOL   C17727299   2.697   2.774   7.521 -0.2775 -0.0682  0.3231
   72MOL   C17827300   2.773   2.756   7.390 -0.2287 -0.1856  0.4034
   72MOL   O17927301   2.875   2.623   0.099 -0.2376 -0.7768  0.4437
   72MOL   H18027302   2.695   2.550   0.295  2.8440  2.3424 -0.2655
   72MOL   H18127303   2.653   2.715   0.252 -1.7946  0.6268 -0.5505
   72MOL   H18227304   2.729   2.491   0.048  0.6644  0.1402 -1.6939
   72MOL   H18327305   2.567   2.680   7.755 -0.1681  2.1983 -0.0572
   72MOL   H18427306   2.692   2.796   7.781 -1.8587 -0.0294  2.4677
   72MOL   H18527307   2.844   2.676   7.640  0.7538  0.7690 -0.4068
   72MOL   H18627308   2.698   2.571   7.590 -1.2432 -0.4500  3.2088
   72MOL   H18727309   2.590   2.772   7.497  0.0285  1.3190 -1.3016
   72MOL   H18827310   2.721   2.874   7.558  2.9094 -1.2104  1.4132
   72MOL   H18927311   2.879   2.776   7.406 -0.4587  1.8116 -0.4283
   72MOL   H19027312   2.745   2.826   7.312 -0.9205 -0.4127  0.4492
   72MOL   H19127313   2.751   2.657   7.350  0.4755  0.3052 -1.2184
   72MOL   C19227314   2.955   2.512   0.139  0.2238 -0.2298  0.5302
   72MOL   C19327315   3.102   2.554   0.168  0.0039 -0.6770  0.5950
   72MOL   C19427316   3.192   2.433   0.141 -0.5981 -0.3163  0.1910
   72MOL   C19527317   3.334   2.435   0.199  0.2666 -0.3453  0.6027
   72MOL   C19627318   3.417   2.308   0.175 -0.1754 -0.5621 -0.3294
   72MOL   C19727319   3.557   2.307   0.260  0.4108  0.2674  0.1343
   72MOL   O19827320   3.099   2.589   0.307 -0.5700 -0.1712  0.9373
   72MOL   H19927321   2.922   2.474   0.235 -0.7492  0.3286  0.4247
   72MOL   H20027322   2.945   2.430   0.069  1.6026  0.0200  0.0125
   72MOL   H20127323   3.130   2.631   0.097  0.0701 -2.1436 -0.9967
   72MOL   H20227324   3.140   2.350   0.188  0.2770 -1.4502 -0.8353
   72MOL   H20327325   3.191   2.422   0.033 -1.9735  0.5793  0.1014
   72MOL   H20427326   3.328   2.443   0.307  4.4775 -3.3796  1.1945
   72MOL   H20527327   3.384   2.530   0.177  0.8364 -0.6334  0.6513
   72MOL   H20627328   3.359   2.221   0.206  2.1809 -1.9264  0.4193
   72MOL   H20727329   3.454   2.293   0.074 -0.6047 -2.8087 -0.1914
   72MOL   H20827330   3.622   2.225   0.229 -0.2733 -1.0211  2.0302
   72MOL   H20927331   3.623   2.393   0.250  0.7626  0.1211  1.1408
   72MOL   H21027332   3.533   2.304   0.366 -1.7993 -3.0868 -0.3846
   72MOL   C21127333   3.046   2.717   0.339 -0.1261  0.1865  0.1974
   72MOL   C21227334   3.077   2.727   0.484  0.0193 -0.7275 -0.4962
   72MOL   C21327335   3.030   2.854   0.551  0.6138 -0.6488 -0.0838
   72MOL   C21427336   2.874   2.868   0.572  0.0390  0.8820 -0.0314
   72MOL   C21527337   2.830   3.014   0.623 -0.3216  0.0153  0.2495
   72MOL   C21627338   2.679   3.034   0.638 -0.2411  0.1927 -0.2514
   72MOL   O21727339   3.215   2.731   0.522  0.5315  0.2945 -0.1755
   72MOL   H21827340   2.938   2.711   0.331 -0.1933 -2.1903  2.1541
   72MOL   H21927341   3.080   2.794   0.270 -0.3582  0.8123  0.7756
   72MOL   H22027342   3.035   2.646   0.544 -0.4767  0.0183  0.1756
   72MOL   H22127343   3.087   2.867   0.643  3.5872 -0.3551 -1.8783
   72MOL   H22227344   3.059   2.937   0.487 -0.1333 -2.1475 -2.4191
   72MOL   H22327345   2.811   2.844   0.487 -1.8457 -1.6821  2.0075
   72MOL   H22427346   2.834   2.795   0.643 -0.5110  1.6995  0.5043
   72MOL   H22527347   2.888   3.013   0.716 -0.3029 -0.8730  0.2403
   72MOL   H22627348   2.873   3.095   0.565  1.6531 -2.2601 -1.6116
   72MOL   H22727349   2.673   3.121   0.703 -1.1647 -0.9190  1.2093
   72MOL   H22827350   2.631   2.946   0.682 -0.7172 -0.5606 -2.2063
   72MOL   H22927351   2.620   3.056   0.549  0.3593  2.0315 -0.2068
   72MOL   C23027352   3.269   2.609   0.576 -0.0473  0.1061  0.1544
   72MOL   C23127353   3.410   2.632   0.638 -0.3432 -0.8482 -0.1219
   72MOL   C23227354   3.525   2.589   0.551  0.2016 -0.1483 -0.1797
   72MOL   C23327355   3.667   2.655   0.588  0.5424 -0.2744  0.1472
   72MOL   C23427356   3.682   2.800   0.566  0.6671 -0.5267 -0.0794
   72MOL   C23527357   3.821   2.857   0.581 -0.4272  1.0687 -0.3747
   72MOL   O23627358   3.418   2.565   0.765 -0.2202 -0.0343 -0.4198
   72MOL   H23727359   3.205   2.554   0.645 -1.0785  1.0220 -0.0631
   72MOL   H23827360   3.281   2.545   0.488  1.6768  0.4313  0.1258
   72MOL   H23927361   3.415   2.740   0.651 -2.2359 -0.7175 -0.2857
   72MOL   H24027362   3.511   2.614   0.446  2.4238  0.2167 -0.4300
   72MOL   H24127363   3.537   2.480   0.554 -1.0067 -0.2631  0.5720
   72MOL   H24227364   3.736   2.612   0.516 -0.0381  0.0146 -0.5874
   72MOL   H24327365   3.700   2.618   0.685  3.7316  0.3544 -0.6375
   72MOL   H24427366   3.632   2.835   0.476  0.7191 -0.3080 -0.0250
   72MOL   H24527367   3.630   2.843   0.651  0.6718  0.7872 -0.7309
   72MOL   H24627368   3.826   2.966   0.586  0.9016  1.0554 -1.0978
   72MOL   H24727369   3.872   2.831   0.488 -1.0195  0.6709 -0.5942
   72MOL   H24827370   3.877   2.814   0.664 -1.1815  2.6504  0.9793
   72MOL   C24927371   3.455   2.652   0.873  0.6906 -0.3755  0.4841
   72MOL   C25027372   3.494   2.571   1.000 -0.1650  0.2534 -0.4608
   72MOL   C25127373   3.458   2.659   1.121  0.0932 -0.1152 -0.0729
   72MOL   C25227374   3.490   2.574   1.252  0.0786 -0.0311  0.6005
   72MOL   C25327375   3.451   2.646   1.377  0.6210 -0.4748 -0.4177
   72MOL   C25427376   3.503   2.586   1.509 -0.6853  0.0250  0.1657
   72MOL   O25527377   3.628   2.540   1.010 -0.4167  0.1606  0.0389
   72MOL   H25627378   3.541   2.714   0.846 -0.0568  0.7728  0.6831
   72MOL   H25727379   3.378   2.727   0.891 -1.4078 -2.3878  0.1190
   72MOL   H25827380   3.439   2.478   1.012 -1.2181  1.0605  1.1884
   72MOL   H25927381   3.507   2.756   1.128  4.7149 -2.3797  1.3619
   72MOL   H26027382   3.352   2.673   1.100 -0.0594 -0.2191  0.6140
   72MOL   H26127383   3.454   2.472   1.253 -2.1826  0.7465  2.7732
   72MOL   H26227384   3.599   2.565   1.248  0.2172 -0.2391  3.7375
   72MOL   H26327385   3.486   2.749   1.376 -2.7490  0.7232 -0.3502
   72MOL   H26427386   3.344   2.664   1.379  0.8726  1.0361  2.7425
   72MOL   H26527387   3.600   2.624   1.539 -0.2692  0.6766 -1.9302
   72MOL   H26627388   3.509   2.477   1.500 -1.5842 -0.1230  1.2321
   72MOL   H26727389   3.434   2.613   1.589  0.9750  0.7504  1.3713
   72MOL   C26827390   3.674   2.439   0.920  0.2544  0.5309 -0.2904
   72MOL   C26927391   3.828   2.414   0.944  0.0688  0.0672 -0.4603
   72MOL   C27027392   3.897   2.343   0.829  0.0590  0.2352 -0.5158
   72MOL   C27127393   4.045   2.313   0.860  0.5328  0.3311  0.9485
   72MOL   C27227394   4.157   2.357   0.765  0.1352  0.1543  0.6349
   72MOL   C27327395   4.303   2.370   0.824  0.5860  0.3297  0.8277
   72MOL   O27427396   3.840   2.326   1.053 -0.5644 -0.3598 -0.4677
   72MOL   H27527397   3.638   2.445   0.817 -1.4592 -0.7827  0.2187
   72MOL   H27627398   3.631   2.345   0.955  0.4620  0.7145  0.4548
   72MOL   H27727399   3.891   2.502   0.960  3.0875 -2.1631  0.2631
   72MOL   H27827400   3.838   2.253   0.811 -1.8472  1.5084 -0.8342
   72MOL   H27927401   3.880   2.399   0.737  0.6922 -0.5825 -1.1317
   72MOL   H28027402   4.065   2.356   0.958 -1.2978  1.1598  0.9951
   72MOL   H28127403   4.050   2.209   0.892 -1.5899 -0.4053 -0.9322
   72MOL   H28227404   4.155   2.314   0.665  0.1652  2.0443 -0.2028
   72MOL   H28327405   4.137   2.462   0.743  0.5965 -0.1962 -1.5988
   72MOL   H28427406   4.378   2.422   0.764 -0.7339  0.9042 -0.3574
   72MOL   H28527407   4.298   2.415   0.923 -0.1107  3.2053 -0.4593
   72MOL   H28627408   4.345   2.270   0.830 -0.4453 -0.1457  0.2807
   72MOL   C28727409   3.868   2.390   1.169 -0.0934 -0.2923 -0.3210
   72MOL   C28827410   3.851   2.294   1.290 -0.2821 -0.0854 -0.6030
   72MOL   C28927411   3.804   2.359   1.420 -0.1755  0.7601  0.3937
   72MOL   C29027412   3.819   2.269   1.537 -0.6208  0.2060 -0.4559
   72MOL   C29127413   3.804   2.357   1.660  0.7122  0.0170 -0.5222
   72MOL   C29227414   3.789   2.280   1.791  0.0922  0.0363 -0.2612
   72MOL   O29327415   3.982   2.232   1.321 -0.2167  0.0990 -0.0020
   72MOL   H29427416   3.809   2.481   1.187 -3.0548 -1.8030 -1.9875
   72MOL   H29527417   3.974   2.413   1.175 -0.1420 -0.4568  1.5304
   72MOL   H29627418   3.777   2.220   1.262 -0.1581 -1.1427  1.7023
   72MOL   H29727419   3.876   2.440   1.436  1.5360 -0.5298 -0.6387
   72MOL   H29827420   3.701   2.392   1.411 -0.3978  0.3466  1.3958
   72MOL   H29927421   3.742   2.191   1.541  0.2533 -0.6153  0.8545
   72MOL   H30027422   3.912   2.212   1.534 -0.2894  0.6738  0.8605
   72MOL   H30127423   3.720   2.424   1.643  1.2080  0.1994 -2.4665
   72MOL   H30227424   3.895   2.417   1.661  1.2241 -0.7554  0.3550
   72MOL   H30327425   3.857   2.195   1.792  1.0229  0.7499 -0.9650
   72MOL   H30427426   3.792   2.353   1.872  0.4543  1.0864 -1.1927
   72MOL   H30527427   3.690   2.235   1.789  0.7123 -1.3429 -0.1845
   72MOL   C30627428   4.005   2.111   1.258  0.0668 -0.6150  0.2449
   72MOL   C30727429   4.143   2.043   1.293  0.2993 -0.4796  0.4560
   72MOL   C30827430   4.145   1.981   1.431  0.6326 -0.3520 -0.4574
   72MOL   C30927431   4.272   1.891   1.458  0.2863  0.4202 -0.1074
   72MOL   C31027432   4.279   1.839   1.603 -0.1338 -0.1483 -0.7001
   72MOL   C31127433   4.405   1.744   1.632  0.0460  0.3284 -0.0725
   72MOL   O31227434   4.244   2.146   1.288  0.0172 -0.3127  0.0099
   72MOL   H31327435   3.924   2.048   1.293 -0.7917 -0.4431 -1.3960
   72MOL   H31427436   3.978   2.124   1.154 -2.8814 -2.4135  0.7276
   72MOL   H31527437   4.164   1.967   1.218 -1.4739 -1.5013  0.9787
   72MOL   H31627438   4.053   1.930   1.457  0.8279 -0.3729  0.1938
   72MOL   H31727439   4.169   2.055   1.507  3.8562 -1.5613 -0.1933
   72MOL   H31827440   4.272   1.803   1.394  0.7848  0.0951  0.3322
   72MOL   H31927441   4.367   1.933   1.425 -0.3839  0.1274 -2.4877
   72MOL   H32027442   4.180   1.796   1.618 -1.1956  1.9238 -1.6875
   72MOL   H32127443   4.277   1.913   1.683 -0.9692  3.1927 -3.6801
   72MOL   H32227444   4.385   1.699   1.729  0.3073  0.0987 -0.1253
   72MOL   H32327445   4.409   1.658   1.565  1.0996  0.4664 -0.1929
   72MOL   H32427446   4.498   1.799   1.618  1.8554 -3.5264 -4.6504
   72MOL   C32527447   4.278   2.197   1.163  0.0364  0.6081  0.6029
   72MOL   C32627448   4.413   2.269   1.169  0.5924 -0.6793 -0.3263
   72MOL   C32727449   4.531   2.177   1.212 -0.4351  0.5150 -0.4316
   72MOL   C32827450   4.658   2.250   1.198 -0.1372 -0.3804  0.6380
   72MOL   C32927451   4.778   2.162   1.186 -0.0175  0.4421 -0.3099
   72MOL   C33027452   4.909   2.221   1.162 -0.8761 -0.2329 -0.7533
   72MOL   O33127453   4.392   2.382   1.259 -0.2707  0.5961  1.1118
   72MOL   H33227454   4.200   2.269   1.138 -2.0752 -2.0013 -0.5637
   72MOL   H33327455   4.272   2.121   1.085  2.8307  0.6180  0.3403
   72MOL   H33427456   4.435   2.309   1.070 -0.5871 -0.3168 -0.4615
   72MOL   H33527457   4.519   2.143   1.315 -2.3228 -0.1959 -0.8658
   72MOL   H33627458   4.536   2.092   1.145  0.0317 -1.0151  1.5082
   72MOL   H33727459   4.663   2.322   1.116 -3.1444  0.6825  1.3111
   72MOL   H33827460   4.670   2.311   1.288  1.4802 -2.2796  1.7434
   72MOL   H33927461   4.793   2.111   1.281 -0.5875 -1.6209 -1.2987
   72MOL   H34027462   4.766   2.081   1.114 -2.9682  1.1996 -0.7634
   72MOL   H34127463   4.912   2.259   1.059  2.4992  1.1917 -0.2065
   72MOL   H34227464   4.931   2.303   1.230 -1.9969 -0.1618 -0.4673
   72MOL   H34327465   4.985   2.144   1.175 -1.5031 -0.3423  2.6453
   72MOL   C34427466   4.367   2.512   1.213  0.0065 -0.0462  0.3100
   72MOL   C34527467   4.366   2.606   1.341  0.3357 -0.2150 -0.5753
   72MOL   C34627468   4.396   2.756   1.312 -0.7974  0.5425 -0.3370
   72MOL   C34727469   4.442   2.844   1.430 -0.3473  0.1788  0.4845
   72MOL   C34827470   4.482   2.997   1.398  0.5154 -0.0008  0.0383
   72MOL   C34927471   4.504   3.084   1.525  0.0489  0.1466  0.7148
   72MOL   O35027472   4.233   2.600   1.396 -0.2055  0.0411 -0.0843
   72MOL   H35127473   4.279   2.524   1.150  1.4205 -0.4736 -1.7968
   72MOL   H35227474   4.451   2.537   1.149 -0.7575 -1.8951 -1.4419
   72MOL   H35327475   4.450   2.577   1.404 -0.5275 -0.6195  0.3939
   72MOL   H35427476   4.317   2.798   1.250 -0.8356 -0.5361 -1.0517
   72MOL   H35527477   4.482   2.747   1.244  1.3336 -0.1995  2.3631
   72MOL   H35627478   4.523   2.793   1.481 -0.1593  0.7156  0.7210
   72MOL   H35727479   4.372   2.852   1.514  0.5179 -3.4442  1.6541
   72MOL   H35827480   4.410   3.046   1.332  0.5533  0.3989  0.2966
   72MOL   H35927481   4.574   2.985   1.341  1.3173 -0.2210  1.3597
   72MOL   H36027482   4.581   3.046   1.592  0.3639 -0.4251  0.0405
   72MOL   H36127483   4.405   3.099   1.568 -0.5484 -1.8332  0.1213
   72MOL   H36227484   4.530   3.187   1.504  1.9052 -0.7752 -1.7939
   72MOL   C36327485   4.197   2.473   1.460 -0.4653  0.2820  0.0493
   72MOL   C36427486   4.288   2.429   1.579 -0.5009 -0.3377  0.1261
   72MOL   C36527487   4.198   2.397   1.698  0.4902 -0.2171 -0.3474
   72MOL   C36627488   4.276   2.358   1.825  0.6413  0.9136 -0.0829
   72MOL   C36727489   4.184   2.341   1.947  0.0139 -0.2537  0.1498
   72MOL   C36827490   4.276   2.360   2.069 -0.6515  0.3155 -0.2712
   72MOL   O36927491   4.393   2.338   1.539  0.1800 -0.1853  0.0286
   72MOL   H37027492   4.176   2.381   1.404  1.1705 -1.1258  1.6988
   72MOL   H37127493   4.097   2.495   1.498  0.1266 -0.0173  1.8221
   72MOL   H37227494   4.338   2.520   1.610  1.0234 -1.4528  1.0182
   72MOL   H37327495   4.141   2.485   1.728  0.2053 -1.0782  1.7688
   72MOL   H37427496   4.139   2.309   1.674  2.9556 -2.1571  0.4725
   72MOL   H37527497   4.336   2.273   1.794 -1.3750 -0.5953  0.1215
   72MOL   H37627498   4.352   2.433   1.850  1.4137  0.5119 -1.2090
   72MOL   H37727499   4.118   2.427   1.957  1.9013  1.1703  0.8645
   72MOL   H37827500   4.123   2.251   1.944  0.5539 -0.5865 -1.4961
   72MOL   H37927501   4.231   2.355   2.168  1.4376 -0.9001  0.6465
   72MOL   H38027502   4.359   2.290   2.061  2.3063  3.4929  0.9581
   72MOL   H38127503   4.334   2.453   2.068  0.7905 -0.5518  0.5999
   72MOL   H38227504   4.391   2.345   1.445 -2.5594 -1.2020 -0.0222
   73MOL     C127505   5.411   1.090   2.574 -0.2473 -0.2605 -0.0923
   73MOL     C227506   5.559   1.125   2.566 -0.2204  0.2629  0.6155
   73MOL     C327507   5.607   1.248   2.650  0.3435  0.4353  0.0677
   73MOL     C427508   5.571   1.238   2.805 -0.3930 -0.1085  0.0656
   73MOL     C527509   5.658   1.149   2.899  0.4592 -0.6821  0.3871
   73MOL     C627510   5.805   1.195   2.915 -0.0422  0.4878 -0.1808
   73MOL     O727511   5.648   1.019   2.607 -0.2772  0.2512 -0.3208
   73MOL     H827512   5.387   1.001   2.516 -0.0993  0.0922 -0.6950
   73MOL     H927513   5.344   1.171   2.548 -0.1846  1.0488  3.5133
   73MOL    H1027514   5.590   1.156   2.466 -0.2137 -1.7389 -0.0153
   73MOL    H1127515   5.713   1.271   2.649  0.4160  0.2768  2.5430
   73MOL    H1227516   5.557   1.338   2.613 -0.8159  0.5938  1.9279
   73MOL    H1327517   5.573   1.336   2.851 -0.8778 -0.6015  1.1728
   73MOL    H1427518   5.471   1.201   2.828 -1.4846  2.8754  0.3263
   73MOL    H1527519   5.612   1.130   2.996  2.2908 -1.3612  1.1545
   73MOL    H1627520   5.658   1.054   2.846  0.9455  0.2984 -1.4166
   73MOL    H1727521   5.844   1.179   2.814  0.5689  0.2587  0.0870
   73MOL    H1827522   5.801   1.302   2.936  1.5814  1.5233 -4.5103
   73MOL    H1927523   5.849   1.146   3.001  1.4047  0.1261 -1.1080
   73MOL    H2027524   5.385   1.078   2.679  0.2300  2.3187  0.3338
   73MOL    C2127525   5.670   0.923   2.501  0.0933  0.5661  0.0457
   73MOL    C2227526   5.795   0.831   2.524  1.0228  0.0224  0.3478
   73MOL    C2327527   5.919   0.910   2.558 -0.2458  0.0318 -0.3144
   73MOL    C2427528   6.042   0.827   2.513  0.1889  0.0879  0.2609
   73MOL    C2527529   6.178   0.861   2.558 -0.3764 -0.4336  0.7873
   73MOL    C2627530   6.223   0.998   2.499  0.4962 -0.0537 -0.2618
   73MOL    O2727531   5.782   0.745   2.636 -0.0883  0.3188 -0.0690
   73MOL    H2827532   5.584   0.861   2.474  0.2697 -0.9055  2.6947
   73MOL    H2927533   5.688   0.970   2.405 -1.3528  0.1815 -0.4362
   73MOL    H3027534   5.813   0.775   2.432 -2.3148 -1.0864  0.2998
   73MOL    H3127535   5.915   0.931   2.665  1.3241 -0.1662 -0.2048
   73MOL    H3227536   5.933   1.003   2.503  1.8344  0.1744  0.4082
   73MOL    H3327537   6.054   0.814   2.406  3.1104  1.2008  0.4008
   73MOL    H3427538   6.025   0.724   2.542 -3.7133  0.8276  0.8510
   73MOL    H3527539   6.188   0.854   2.667 -0.7614 -0.8090  0.8015
   73MOL    H3627540   6.245   0.780   2.532 -0.1900 -0.2705  0.7645
   73MOL    H3727541   6.332   1.010   2.502  0.5934 -0.5739 -1.4512
   73MOL    H3827542   6.180   1.083   2.553 -0.4403 -0.2301 -0.7217
   73MOL    H3927543   6.205   1.001   2.391 -1.8018 -0.1341  0.0983
   73MOL    C4027544   5.670   0.661   2.629 -0.3726  0.7216  0.4350
   73MOL    C4127545   5.677   0.568   2.751  0.1470 -0.1524  0.2451
   73MOL    C4227546   5.581   0.448   2.735 -0.6233  0.6651 -0.0938
   73MOL    C4327547   5.602   0.333   2.827 -0.3374  0.6967  0.0862
   73MOL    C4427548   5.525   0.207   2.788  0.3685 -0.2105  0.6026
   73MOL    C4527549   5.535   0.107   2.902 -0.0795 -0.0549 -0.4007
   73MOL    O4627550   5.645   0.618   2.879  0.4151 -0.1206  0.9594
   73MOL    H4727551   5.667   0.605   2.536 -2.6594  1.5152 -0.0003
   73MOL    H4827552   5.577   0.717   2.626 -1.1892 -0.5805  1.1388
   73MOL    H4927553   5.777   0.525   2.745 -0.3706 -1.4437  0.8025
   73MOL    H5027554   5.476   0.474   2.748 -0.5307  0.1051  2.0533
   73MOL    H5127555   5.580   0.411   2.633 -1.6701  0.1906  0.0783
   73MOL    H5227556   5.563   0.353   2.926  0.5832  4.8696 -0.3015
   73MOL    H5327557   5.706   0.303   2.836 -1.0008 -1.2815  1.4856
   73MOL    H5427558   5.418   0.226   2.782  0.3613  0.0600  1.5242
   73MOL    H5527559   5.572   0.170   2.697  0.0470 -1.3619  0.8990
   73MOL    H5627560   5.515   0.007   2.863 -2.5890 -0.3381  1.5023
   73MOL    H5727561   5.631   0.111   2.955 -0.0499  2.3469 -0.5872
   73MOL    H5827562   5.452   0.124   2.971 -1.4225 -2.9831 -1.2477
   73MOL    C5927563   5.710   0.741   2.911 -0.4895  0.7716 -0.2865
   73MOL    C6027564   5.864   0.720   2.948 -0.2673  0.2705  0.9561
   73MOL    C6127565   5.929   0.858   2.969  0.0818 -0.4802 -1.0621
   73MOL    C6227566   6.086   0.850   2.952  0.2182  0.1696  0.2120
   73MOL    C6327567   6.156   0.985   2.940 -0.5367 -0.2629 -0.1397
   73MOL    C6427568   6.310   0.985   2.945  0.3523  0.3055 -0.0138
   73MOL    O6527569   5.869   0.647   3.066  0.4281 -0.6433 -0.4343
   73MOL    H6627570   5.657   0.780   2.998 -0.5517  0.1143 -0.0242
   73MOL    H6727571   5.697   0.822   2.840  0.5702  2.0081  0.9101
   73MOL    H6827572   5.914   0.671   2.865 -2.0672 -0.7560  0.4511
   73MOL    H6927573   5.888   0.890   3.064  0.4869 -0.6314 -0.8344
   73MOL    H7027574   5.881   0.936   2.910  0.2076  2.8539  3.0480
   73MOL    H7127575   6.102   0.786   2.865  0.9165  1.7476 -0.8378
   73MOL    H7227576   6.106   0.796   3.044  1.0003  0.0938 -0.0016
   73MOL    H7327577   6.110   1.055   3.010 -0.1192  1.3314 -1.4275
   73MOL    H7427578   6.139   1.026   2.840  0.8072 -0.3859 -0.4241
   73MOL    H7527579   6.352   0.955   3.042  2.1279 -2.2649 -1.5150
   73MOL    H7627580   6.358   0.927   2.866  2.0463 -3.7541  3.7617
   73MOL    H7727581   6.346   1.086   2.927 -0.3014  0.8678  1.7016
   73MOL    C7827582   5.879   0.502   3.050 -0.9631  0.0968 -0.6538
   73MOL    C7927583   5.893   0.429   3.189 -0.0060 -0.8166 -0.8730
   73MOL    C8027584   5.966   0.295   3.154  0.2182 -0.0310  0.2938
   73MOL    C8127585   6.003   0.203   3.273  0.6928 -0.1192  0.1169
   73MOL    C8227586   6.111   0.269   3.364 -0.3481 -0.6965  0.3776
   73MOL    C8327587   6.130   0.189   3.491  0.0857 -0.2471  0.0719
   73MOL    O8427588   5.776   0.400   3.255 -0.2136 -0.4288 -0.2528
   73MOL    H8527589   5.961   0.481   2.981  0.0515  1.0737  0.2473
   73MOL    H8627590   5.792   0.463   2.996 -0.8999  0.6224 -1.1373
   73MOL    H8727591   5.959   0.500   3.239 -1.2917 -0.3104  0.1302
   73MOL    H8827592   5.911   0.240   3.078  1.8351  1.3542 -1.9537
   73MOL    H8927593   6.054   0.319   3.094  1.7278  1.2457  2.9067
   73MOL    H9027594   6.041   0.112   3.225 -1.2055 -1.2980  0.7831
   73MOL    H9127595   5.915   0.188   3.335  0.0387  2.6178 -0.0874
   73MOL    H9227596   6.207   0.284   3.316 -0.5892 -0.2191  0.0370
   73MOL    H9327597   6.080   0.371   3.385 -0.4228 -0.5410 -0.4806
   73MOL    H9427598   6.200   0.239   3.559  0.5311 -2.5086  1.3276
   73MOL    H9527599   6.189   0.098   3.483 -1.7641 -1.5578  1.0069
   73MOL    H9627600   6.037   0.175   3.545 -1.3051  3.5037 -1.1802
   73MOL    C9727601   5.704   0.511   3.297  0.2252 -0.1357 -0.1302
   73MOL    C9827602   5.578   0.463   3.369 -0.2234  0.9205 -0.3057
   73MOL    C9927603   5.495   0.579   3.420  0.1648  0.2961  0.2206
   73MOL   C10027604   5.377   0.545   3.518 -0.4780 -0.1299  0.1893
   73MOL   C10127605   5.284   0.667   3.528  0.7818 -0.1227 -0.7607
   73MOL   C10227606   5.185   0.670   3.644  0.2066 -0.2384  0.4052
   73MOL   O10327607   5.493   0.394   3.286  0.5798 -0.0611  0.6560
   73MOL   H10427608   5.681   0.570   3.208  0.8444 -0.5210 -0.5516
   73MOL   H10527609   5.763   0.573   3.365 -1.0324  2.2289 -1.1050
   73MOL   H10627610   5.615   0.400   3.449 -1.7834  0.4678  0.0752
   73MOL   H10727611   5.456   0.635   3.335  1.5390 -2.5385 -2.3673
   73MOL   H10827612   5.560   0.644   3.478  2.9050 -1.6228 -0.5861
   73MOL   H10927613   5.433   0.535   3.611  1.6544  0.2368 -1.0424
   73MOL   H11027614   5.329   0.451   3.490  0.6985 -0.2376 -1.5461
   73MOL   H11127615   5.234   0.686   3.434 -1.5483 -0.4909  0.3698
   73MOL   H11227616   5.348   0.753   3.550 -1.1041  0.9692  0.6027
   73MOL   H11327617   5.116   0.754   3.637  1.5051  0.6848 -1.7684
   73MOL   H11427618   5.122   0.581   3.642 -0.6568  0.3829 -0.8470
   73MOL   H11527619   5.235   0.687   3.740  2.5380 -3.5111 -0.1366
   73MOL   C11627620   5.520   0.258   3.260  0.8397  0.0792 -0.5688
   73MOL   C11727621   5.451   0.145   3.340 -0.0028 -0.1958  0.6827
   73MOL   C11827622   5.300   0.174   3.328 -0.1345  0.3183 -0.0692
   73MOL   C11927623   5.214   0.056   3.388  0.1929  0.9450  0.2055
   73MOL   C12027624   5.061   0.086   3.364  0.0225  0.3573 -0.6505
   73MOL   C12127625   4.999   0.207   3.445  0.2880 -0.1014 -0.0591
   73MOL   O12227626   5.491   0.134   3.482 -0.0094 -0.2839  0.2402
   73MOL   H12327627   5.484   0.259   3.157 -1.6706 -0.7164  0.2607
   73MOL   H12427628   5.624   0.245   3.229  0.3971  0.0292 -2.0875
   73MOL   H12527629   5.467   0.052   3.285 -0.3544  0.1873 -0.0762
   73MOL   H12627630   5.273   0.266   3.380  1.5503 -0.0476  1.5175
   73MOL   H12727631   5.275   0.196   3.225  0.4040 -2.1001 -0.7502
   73MOL   H12827632   5.242   0.042   3.492 -0.7923 -0.8311  0.2488
   73MOL   H12927633   5.241   7.746   3.342  0.7824  1.0512  0.3411
   73MOL   H13027634   5.036   0.091   3.258 -0.7138  0.0671 -0.4973
   73MOL   H13127635   5.001   0.002   3.400 -1.2266  1.2173 -0.6667
   73MOL   H13227636   4.892   0.189   3.456  0.1187 -0.3513 -1.9854
   73MOL   H13327637   5.059   0.244   3.528  1.2452  2.4988 -1.8714
   73MOL   H13427638   5.012   0.286   3.372 -1.6993 -1.6193 -2.1364
   73MOL   C13527639   5.629   0.106   3.500  0.3815 -0.0870 -0.6702
   73MOL   C13627640   5.663   0.080   3.647  0.2208  0.2158 -0.0910
   73MOL   C13727641   5.686   0.210   3.726  0.4939 -0.3065  0.0986
   73MOL   C13827642   5.569   0.292   3.782  0.4015  0.3827 -0.3557
   73MOL   C13927643   5.624   0.397   3.878  0.4599  0.0035  0.6782
   73MOL   C14027644   5.510   0.455   3.977 -0.4999  0.2161 -0.3459
   73MOL   O14127645   5.789   0.020   3.648 -0.4911 -0.3550 -0.1510
   73MOL   H14227646   5.646   0.016   3.441  1.8072 -0.4523  0.2540
   73MOL   H14327647   5.696   0.178   3.453 -1.2025  2.0407  0.2649
   73MOL   H14427648   5.593   0.003   3.680  0.8948 -0.7171 -0.7824
   73MOL   H14527649   5.754   0.181   3.806  0.4534 -0.1820  0.1771
   73MOL   H14627650   5.747   0.277   3.664  1.1943 -1.4159 -0.4223
   73MOL   H14727651   5.510   0.224   3.843  0.1036  0.2508 -0.7894
   73MOL   H14827652   5.497   0.332   3.710 -0.5395  2.7392  1.8197
   73MOL   H14927653   5.657   0.479   3.814 -4.1018  3.4083  2.4100
   73MOL   H15027654   5.705   0.359   3.940  2.5018 -1.1561 -2.5696
   73MOL   H15127655   5.555   0.501   4.065 -0.4316  0.5514 -0.5567
   73MOL   H15227656   5.442   0.526   3.930 -0.2837  0.8422  0.2859
   73MOL   H15327657   5.443   0.379   4.018 -1.1928  0.6765 -0.6207
   73MOL   C15427658   5.798   7.681   3.711  0.4292  0.0512 -0.4813
   73MOL   C15527659   5.939   7.625   3.667  1.4512 -0.1143 -0.4936
   73MOL   C15627660   6.049   7.694   3.750  0.7151  0.3900  0.5938
   73MOL   C15727661   6.186   7.647   3.714  0.4653 -0.1815 -0.1016
   73MOL   C15827662   6.303   7.742   3.751  0.0803 -0.5144 -0.4762
   73MOL   C15927663   6.418   7.721   3.658 -0.1908 -0.1785 -0.0491
   73MOL   O16027664   5.936   7.486   3.701 -0.3440 -0.1283  0.6290
   73MOL   H16127665   5.716   7.615   3.682  1.3597 -1.3273 -0.0223
   73MOL   H16227666   5.792   7.693   3.819 -1.4562  2.4450 -0.8234
   73MOL   H16327667   5.951   7.642   3.560  1.8669 -0.5304 -0.5166
   73MOL   H16427668   6.031   7.682   3.857 -2.0908  0.9440  0.2094
   73MOL   H16527669   6.027   0.013   3.733 -0.0773 -0.0445 -1.2007
   73MOL   H16627670   6.179   7.638   3.606 -0.6880 -0.6095  0.0041
   73MOL   H16727671   6.200   7.543   3.743 -0.2543 -0.4384 -0.6599
   73MOL   H16827672   6.261   0.057   3.744 -1.4174 -0.9729  1.3801
   73MOL   H16927673   6.341   7.726   3.851 -2.5993  0.9066  0.8319
   73MOL   H17027674   6.483   7.640   3.691 -0.5965  0.5980  2.8044
   73MOL   H17127675   6.483   0.022   3.668 -1.2945  0.6902 -0.2817
   73MOL   H17227676   6.394   7.722   3.552  2.5680  0.1352 -0.7022
   73MOL   C17327677   5.881   7.405   3.607 -0.3439 -0.6423 -0.9305
   73MOL   C17427678   5.923   7.253   3.630  0.1027 -0.7910  0.3105
   73MOL   C17527679   6.080   7.233   3.651  0.9187 -0.2336 -0.4654
   73MOL   C17627680   6.114   7.087   3.665 -0.5649 -0.1554  0.1297
   73MOL   C17727681   6.259   7.060   3.638 -0.5187 -0.5731 -0.1416
   73MOL   C17827682   6.289   6.911   3.670  0.7189 -0.2460  0.3880
   73MOL   O17927683   5.855   7.193   3.739  0.2352 -0.2514  0.3185
   73MOL   H18027684   5.905   7.430   3.504  1.8832  0.9730 -0.0637
   73MOL   H18127685   5.774   7.422   3.615  0.1422  1.7916  1.0813
   73MOL   H18227686   5.916   7.196   3.537 -0.0273 -0.3315  0.0348
   73MOL   H18327687   6.132   7.280   3.568  0.0146  1.1795 -0.2578
   73MOL   H18427688   6.122   7.289   3.734  0.0134  0.2514 -0.3257
   73MOL   H18527689   6.074   7.042   3.756 -0.8400 -0.3246 -0.0730
   73MOL   H18627690   6.066   7.042   3.577 -0.1379  1.3530 -0.8845
   73MOL   H18727691   6.281   7.087   3.534  1.7608  2.6316  1.0671
   73MOL   H18827692   6.327   7.125   3.693  0.0783 -1.7114  0.4898
   73MOL   H18927693   6.265   6.840   3.592  0.2714  0.0636  0.2423
   73MOL   H19027694   6.238   6.885   3.763  2.1439 -0.2408  1.1899
   73MOL   H19127695   6.397   6.900   3.671  0.6768 -0.9118  3.0493
   73MOL   C19227696   5.717   7.155   3.708 -0.6453 -0.1466 -0.6862
   73MOL   C19327697   5.647   7.130   3.845  0.4999  0.5539 -0.7363
   73MOL   C19427698   5.517   7.038   3.848  0.0817  0.2934 -0.3231
   73MOL   C19527699   5.550   6.886   3.833  0.0125 -0.1159 -0.2132
   73MOL   C19627700   5.421   6.792   3.829 -0.8589  0.0574  0.3770
   73MOL   C19727701   5.430   6.634   3.810 -0.9069  0.0967  0.2989
   73MOL   O19827702   5.603   7.257   3.899 -0.2709 -0.1594  0.5826
   73MOL   H19927703   5.663   7.230   3.650 -0.2075  1.0959  0.4903
   73MOL   H20027704   5.723   7.063   3.650  0.7213  0.4118 -1.4481
   73MOL   H20127705   5.722   7.089   3.912  0.9413  3.4296  0.5788
   73MOL   H20227706   5.462   7.054   3.941  1.8602  1.5801  0.5320
   73MOL   H20327707   5.449   7.063   3.767 -1.2522  2.4079  1.4009
   73MOL   H20427708   5.612   6.856   3.918  3.5657  2.1646 -1.8532
   73MOL   H20527709   5.612   6.865   3.746  1.4928  0.1801  0.7410
   73MOL   H20627710   5.363   6.813   3.919  0.2505 -1.8581  1.5823
   73MOL   H20727711   5.368   6.830   3.741 -1.3839 -0.1990  0.5817
   73MOL   H20827712   5.327   6.599   3.804 -1.1249  0.7126  0.5193
   73MOL   H20927713   5.474   6.601   3.716  1.4470  1.4361  0.8970
   73MOL   H21027714   5.491   6.590   3.889  1.0320 -0.0446 -1.2341
   73MOL   C21127715   5.706   7.312   3.987 -0.0258 -0.1675  0.3494
   73MOL   C21227716   5.657   7.440   4.050 -0.2596  0.6605  0.3420
   73MOL   C21327717   5.767   7.540   4.087  0.2655 -0.8263  0.1459
   73MOL   C21427718   5.703   7.669   4.145 -0.0493  0.3824 -0.0031
   73MOL   C21527719   5.796   0.002   4.156 -0.5094  0.1503 -0.5293
   73MOL   C21627720   5.738   0.097   4.266  0.2411  0.0234  0.2232
   73MOL   O21727721   5.606   7.405   4.179  0.1327 -0.1093  0.2131
   73MOL   H21827722   5.792   7.341   3.926  0.2089 -0.5863  0.4764
   73MOL   H21927723   5.748   7.236   4.053  0.5656 -0.9116 -0.8554
   73MOL   H22027724   5.576   7.491   3.997  1.0417  2.1943 -0.2293
   73MOL   H22127725   5.831   7.489   4.159  1.3903  0.6063  0.1845
   73MOL   H22227726   5.822   7.568   3.997  0.1599 -0.9024  0.0569
   73MOL   H22327727   5.617   7.692   4.083 -0.9589  0.6447  1.3292
   73MOL   H22427728   5.668   7.640   4.244 -2.2965 -2.5729 -1.5962
   73MOL   H22527729   5.893   7.748   4.187  0.1208  2.1251  0.0784
   73MOL   H22627730   5.806   0.052   4.060 -2.3976  1.4182 -0.1005
   73MOL   H22727731   5.801   0.186   4.267  1.1767 -0.6123 -1.3546
   73MOL   H22827732   5.744   0.054   4.366 -0.9810 -1.7465 -0.4338
   73MOL   H22927733   5.635   0.130   4.251  0.5900  1.6816  1.3520
   73MOL   C23027734   5.500   7.309   4.185 -0.0457 -0.6659 -0.1021
   73MOL   C23127735   5.439   7.306   4.325 -0.0979 -0.1397  0.0710
   73MOL   C23227736   5.379   7.172   4.352 -0.6881 -0.0091  0.7494
   73MOL   C23327737   5.322   7.156   4.495  0.5485 -0.6253  0.0761
   73MOL   C23427738   5.255   7.026   4.531 -0.0595 -0.2552 -0.1882
   73MOL   C23527739   5.134   6.992   4.454  0.3877 -0.0215  0.5869
   73MOL   O23627740   5.330   7.399   4.333 -0.1870  0.5406  0.3182
   73MOL   H23727741   5.419   7.322   4.113  2.4580  0.0660 -2.8945
   73MOL   H23827742   5.546   7.213   4.161 -1.3587 -1.5267  0.7632
   73MOL   H23927743   5.514   7.335   4.398 -4.0342  1.8477  3.4842
   73MOL   H24027744   5.456   7.094   4.351 -1.2456 -0.5548 -0.0450
   73MOL   H24127745   5.306   7.157   4.272  1.4204  0.1694 -1.2614
   73MOL   H24227746   5.256   7.241   4.511  1.3644 -0.0231  0.2596
   73MOL   H24327747   5.401   7.178   4.567 -0.1272  0.9041  0.3592
   73MOL   H24427748   5.338   6.957   4.514 -0.4897 -0.5733 -1.0445
   73MOL   H24527749   5.232   7.020   4.638 -2.7265  0.8278 -0.6677
   73MOL   H24627750   5.042   7.048   4.475  1.1965  3.1887 -3.6847
   73MOL   H24727751   5.106   6.891   4.484  2.0263 -1.3193 -2.0650
   73MOL   H24827752   5.151   6.999   4.346 -1.0577 -0.5492  0.3042
   73MOL   C24927753   5.368   7.533   4.316  0.3781 -0.3245 -0.7693
   73MOL   C25027754   5.243   7.625   4.354 -0.2602  0.1866 -0.0506
   73MOL   C25127755   5.210   7.755   4.273  0.2863  0.0915  0.4804
   73MOL   C25227756   5.258   7.759   4.125 -0.2214 -0.2596 -0.7191
   73MOL   C25327757   5.206   0.095   4.061 -0.0232 -0.1031 -0.2205
   73MOL   C25427758   5.236   0.087   3.907  0.1842 -0.5936  0.5289
   73MOL   O25527759   5.227   7.669   4.487 -0.1918 -0.5780 -0.3331
   73MOL   H25627760   5.448   7.555   4.388  2.9566 -1.5936 -3.1442
   73MOL   H25727761   5.400   7.545   4.213 -1.0363  1.6544 -1.0098
   73MOL   H25827762   5.152   7.571   4.328 -1.2921  0.6732  2.4484
   73MOL   H25927763   5.102   7.755   4.280  0.0356 -1.2237 -2.6269
   73MOL   H26027764   5.242   0.064   4.317  0.5405  0.4358 -0.4150
   73MOL   H26127765   5.367   7.763   4.134 -0.2736 -1.6987  0.6897
   73MOL   H26227766   5.233   7.664   4.077 -1.8236  0.0927 -0.5941
   73MOL   H26327767   5.101   0.111   4.083 -0.1605  0.8339 -1.5221
   73MOL   H26427768   5.251   0.178   4.116 -0.0828 -0.7377  0.8021
   73MOL   H26527769   5.324   0.026   3.884  1.4531  1.4852 -0.2723
   73MOL   H26627770   5.267   0.183   3.866  2.4946 -0.2376  2.9479
   73MOL   H26727771   5.164   0.042   3.839  0.5003 -0.0365 -0.1825
   73MOL   C26827772   5.102   7.644   4.551  0.1051  0.8058 -1.2504
   73MOL   C26927773   5.099   7.503   4.614 -0.2479  0.1137 -0.1534
   73MOL   C27027774   4.964   7.455   4.653 -0.2469 -0.1486 -0.4214
   73MOL   C27127775   4.974   7.321   4.724 -0.0418 -0.4302 -0.7105
   73MOL   C27227776   4.848   7.247   4.731  0.0785 -0.2586  0.5914
   73MOL   C27327777   4.840   7.141   4.839  0.2716 -0.6850 -0.1689
   73MOL   O27427778   5.175   7.512   4.734 -0.3667 -1.1384  0.0776
   73MOL   H27527779   5.015   7.651   4.485  0.8236  1.1792 -2.1810
   73MOL   H27627780   5.091   7.717   4.631 -3.5202 -0.0080 -0.9236
   73MOL   H27727781   5.146   7.433   4.545  1.7620  0.3404  0.9544
   73MOL   H27827782   4.917   7.523   4.725 -2.4241 -0.4076 -1.5444
   73MOL   H27927783   4.895   7.452   4.569 -1.3670 -1.4912  0.5043
   73MOL   H28027784   5.046   7.255   4.675  0.6287  0.0632 -0.3952
   73MOL   H28127785   5.010   7.347   4.824 -1.1592  0.1082 -0.4361
   73MOL   H28227786   4.759   7.309   4.744 -0.0699 -0.5778  1.0869
   73MOL   H28327787   4.838   7.192   4.637  0.7644 -0.3341  0.5633
   73MOL   H28427788   4.856   7.186   4.937  1.6687  1.8257 -1.4860
   73MOL   H28527789   4.748   7.084   4.850  1.2364 -1.8772  2.1529
   73MOL   H28627790   4.921   7.070   4.820  1.3662  0.5202 -0.1128
   73MOL   C28727791   5.308   7.484   4.719 -0.1389 -0.0344 -0.3021
   73MOL   C28827792   5.389   7.478   4.851  0.8200 -0.1573 -0.5114
   73MOL   C28927793   5.535   7.491   4.846 -0.2188  0.3084  0.1285
   73MOL   C29027794   5.594   7.476   4.990 -0.1031  0.7241  0.4730
   73MOL   C29127795   5.740   7.411   4.972  0.7274  0.0834  0.4123
   73MOL   C29227796   5.815   7.403   5.106  0.1707 -0.0967  0.5098
   73MOL   O29327797   5.359   7.355   4.907  0.1519 -0.2218  0.4288
   73MOL   H29427798   5.359   7.562   4.660 -1.3372 -1.1621 -2.8960
   73MOL   H29527799   5.316   7.390   4.664  1.3021  0.3611 -0.7965
   73MOL   H29627800   5.355   7.556   4.919  2.1341 -0.7310  0.8352
   73MOL   H29727801   5.574   7.414   4.779 -1.0609 -1.0064  1.1202
   73MOL   H29827802   5.556   7.587   4.800 -1.3878  0.1061 -0.8537
   73MOL   H29927803   5.602   7.575   5.033  0.4645  0.4404  1.0294
   73MOL   H30027804   5.539   7.414   5.060  0.3132  2.2564  2.1715
   73MOL   H30127805   5.796   7.463   4.895  0.6724 -0.0776  0.2656
   73MOL   H30227806   5.738   7.312   4.928  2.5832 -1.0417  2.7014
   73MOL   H30327807   5.752   7.380   5.192  0.7879 -1.4593  0.6071
   73MOL   H30427808   5.888   7.322   5.103 -2.2998 -2.3589 -1.0095
   73MOL   H30527809   5.871   7.493   5.132  5.0162 -2.6737 -0.5363
   73MOL   C30627810   5.256   7.363   5.001 -0.3887  0.4784  0.4626
   73MOL   C30727811   5.227   7.226   5.056 -0.2813  0.1560  0.4270
   73MOL   C30827812   5.085   7.228   5.124  0.1836 -0.2615 -0.7177
   73MOL   C30927813   5.068   7.313   5.246 -0.2052 -0.1125  0.0029
   73MOL   C31027814   4.918   7.320   5.285  0.0123 -0.2298 -0.0071
   73MOL   C31127815   4.884   7.232   5.403  0.2282  0.2667 -0.1051
   73MOL   O31227816   5.319   7.193   5.164  0.1908 -0.9313  0.1961
   73MOL   H31327817   5.288   7.425   5.085 -1.6043  0.1532  1.1603
   73MOL   H31427818   5.171   7.411   4.953 -0.5931  1.2189  1.5533
   73MOL   H31527819   5.237   7.152   4.976 -0.2543  0.1351  0.4499
   73MOL   H31627820   5.071   7.123   5.147  3.5535 -0.4478  0.8202
   73MOL   H31727821   5.013   7.258   5.048  0.2966 -0.7951 -1.0300
   73MOL   H31827822   5.126   7.288   5.335 -1.7025 -2.0717  0.4488
   73MOL   H31927823   5.090   7.414   5.212  1.1242  0.5819  2.8510
   73MOL   H32027824   4.846   7.311   5.204  0.2112 -2.3743  0.0381
   73MOL   H32127825   4.903   7.421   5.323 -1.0134 -0.9105  1.4305
   73MOL   H32227826   4.873   7.128   5.369  2.4826 -0.4795  1.3639
   73MOL   H32327827   4.961   7.222   5.479 -1.7642 -1.2553  1.8081
   73MOL   H32427828   4.786   7.259   5.442  0.7021  0.8284  0.6870
   73MOL   C32527829   5.441   7.135   5.129  0.3838  0.1976  0.8498
   73MOL   C32627830   5.528   7.111   5.258  0.3882 -0.4448 -0.8667
   73MOL   C32727831   5.671   7.063   5.234  0.0729 -0.0146 -0.0240
   73MOL   C32827832   5.761   7.049   5.367  0.2676 -0.1982  0.1021
   73MOL   C32927833   5.877   7.153   5.385  0.3792  0.3451  0.6709
   73MOL   C33027834   5.965   7.120   5.503  0.2271  0.6013  0.1033
   73MOL   O33127835   5.469   7.005   5.335 -0.4712  0.1356 -0.0670
   73MOL   H33227836   5.505   7.179   5.053 -1.2993 -1.0290 -1.3568
   73MOL   H33327837   5.427   7.034   5.090  0.0544  0.6117 -0.1322
   73MOL   H33427838   5.532   7.204   5.315  0.0860  0.5769 -2.5020
   73MOL   H33527839   5.674   6.974   5.170  1.6289 -1.6206  2.1862
   73MOL   H33627840   5.716   7.145   5.178  2.8553 -1.1029  0.4933
   73MOL   H33727841   5.693   7.066   5.450 -0.3343 -0.5001 -0.3280
   73MOL   H33827842   5.792   6.944   5.364  0.6052 -0.0792 -0.7395
   73MOL   H33927843   5.936   7.161   5.294 -0.1845 -4.2554 -0.2584
   73MOL   H34027844   5.841   7.255   5.399 -0.3335  0.1822  0.0762
   73MOL   H34127845   5.929   7.170   5.593 -1.4829  0.0398 -0.2633
   73MOL   H34227846   5.972   7.012   5.512  3.6620  0.5731 -1.9956
   73MOL   H34327847   6.070   7.150   5.496  0.6260 -0.6068  0.8317
   73MOL   C34427848   5.378   7.051   5.439  0.4804 -0.0561  0.4044
   73MOL   C34527849   5.292   6.931   5.484  0.4177 -0.3496 -0.2446
   73MOL   C34627850   5.218   6.966   5.610 -0.1862 -0.5824  0.6774
   73MOL   C34727851   5.151   6.855   5.690 -0.4567 -0.0775  0.0082
   73MOL   C34827852   5.155   6.876   5.846 -0.8283 -0.3310  0.0916
   73MOL   C34927853   5.294   6.876   5.922 -0.0901  0.2656  0.7254
   73MOL   O35027854   5.192   6.887   5.392 -0.3896 -0.6266 -0.5783
   73MOL   H35127855   5.317   7.135   5.404  0.1645 -1.3034 -2.1658
   73MOL   H35227856   5.442   7.100   5.512  1.1733 -2.1383  1.2319
   73MOL   H35327857   5.359   6.848   5.509  1.1992  0.0026 -1.1367
   73MOL   H35427858   5.162   7.059   5.600 -0.0419 -0.6045 -0.3378
   73MOL   H35527859   5.302   6.999   5.670 -0.0131 -0.4828  0.3819
   73MOL   H35627860   5.204   6.760   5.684 -0.9789 -0.3358 -0.5955
   73MOL   H35727861   5.051   6.834   5.651  0.1851 -0.8936 -1.2418
   73MOL   H35827862   5.081   6.821   5.906 -0.4689 -1.8422 -0.8183
   73MOL   H35927863   5.113   6.975   5.861  1.0471  0.5695 -0.5731
   73MOL   H36027864   5.309   6.930   6.016  2.8387 -1.1760  1.1539
   73MOL   H36127865   5.374   6.912   5.857  1.2094 -1.0164  1.5796
   73MOL   H36227866   5.321   6.773   5.944 -0.6221 -0.4677 -1.9450
   73MOL   C36327867   5.241   6.812   5.278  0.3855 -0.2922 -0.4378
   73MOL   C36427868   5.124   6.749   5.198  0.0527  0.0094  0.0473
   73MOL   C36527869   5.019   6.685   5.288 -0.1705 -0.1304 -0.1276
   73MOL   C36627870   5.064   6.570   5.378  0.3395  0.1707 -0.6784
   73MOL   C36727871   4.951   6.516   5.471  0.2859 -0.0387  0.9434
   73MOL   C36827872   4.858   6.421   5.403 -0.1736  0.4665  0.1788
   73MOL   O36927873   5.073   6.853   5.114  0.0250 -0.2904  0.1966
   73MOL   H37027874   5.314   6.737   5.308  0.9019  0.6610  0.7437
   73MOL   H37127875   5.309   6.871   5.217  0.7463  0.7421  0.9562
   73MOL   H37227876   5.167   6.668   5.140  0.7950  0.1910  0.3351
   73MOL   H37327877   4.969   6.765   5.341  0.9275  1.5949 -1.6444
   73MOL   H37427878   4.946   6.638   5.223 -0.1689  0.7656 -0.7697
   73MOL   H37527879   5.102   6.486   5.319 -0.3033 -0.4007 -0.2888
   73MOL   H37627880   5.151   6.602   5.435  0.6228  0.2786 -1.1647
   73MOL   H37727881   4.985   6.469   5.564 -0.8771 -0.3377  1.2199
   73MOL   H37827882   4.903   6.608   5.503 -0.1499 -0.2785  0.9875
   73MOL   H37927883   4.770   6.414   5.465 -1.1675  1.9691 -1.0258
   73MOL   H38027884   4.834   6.447   5.300 -1.7982  0.6551  0.5934
   73MOL   H38127885   4.898   6.319   5.404  3.6981  1.8431 -1.1902
   73MOL   H38227886   5.042   6.921   5.172  0.8438 -0.7142  1.1343
   74MOL     C127887   5.330   2.254   0.290 -0.0094  0.0810 -0.4113
   74MOL     C227888   5.374   2.275   0.142 -0.2623 -0.4269 -0.0079
   74MOL     C327889   5.325   2.164   0.056  0.1006 -0.4062 -1.2433
   74MOL     C427890   5.362   2.194   7.693 -0.0560  0.6239  0.7097
   74MOL     C527891   5.293   2.086   7.600  0.1037 -0.4511 -0.1199
   74MOL     C627892   5.326   2.094   7.446  0.2985 -0.2513  1.3708
   74MOL     O727893   5.330   2.393   0.090  0.4743 -0.2277 -0.2837
   74MOL     H827894   5.228   2.219   0.305 -0.2012  0.8584  0.1542
   74MOL     H927895   5.337   2.343   0.353  2.3871  0.0491 -0.5853
   74MOL    H1027896   5.482   2.266   0.142 -0.3508 -1.6766  1.7713
   74MOL    H1127897   5.376   2.077   0.099  0.8193  0.1457 -0.9633
   74MOL    H1227898   5.218   2.157   0.074  0.2231  1.2090  0.3504
   74MOL    H1327899   5.328   2.290   7.656 -1.5199  0.1775  0.8664
   74MOL    H1427900   5.470   2.206   7.684  0.1973 -1.3405  0.7780
   74MOL    H1527901   5.310   1.984   7.636 -0.4335  0.1849  2.0190
   74MOL    H1627902   5.185   2.102   7.603  0.2202  0.2636  0.2509
   74MOL    H1727903   5.432   2.095   7.417  0.3461  0.3393  1.5476
   74MOL    H1827904   5.275   2.020   7.385  0.6573  1.3506 -0.9725
   74MOL    H1927905   5.286   2.190   7.413  0.0083 -0.2267  1.8048
   74MOL    H2027906   5.401   2.184   0.333 -3.7115 -2.0062  2.6740
   74MOL    C2127907   5.423   2.497   0.122  0.3779  0.2160 -0.3634
   74MOL    C2227908   5.353   2.623   0.089 -0.2312  0.2245  0.0874
   74MOL    C2327909   5.441   2.754   0.097 -0.0123 -0.5084  0.5088
   74MOL    C2427910   5.505   2.777   0.237 -0.4887 -0.4597  0.1876
   74MOL    C2527911   5.583   2.908   0.256 -0.3454 -0.4057 -0.1557
   74MOL    C2627912   5.638   2.933   0.393  0.0497  0.1703  0.1122
   74MOL    O2727913   5.313   2.600   7.739  0.1171 -0.4559  0.1727
   74MOL    H2827914   5.455   2.491   0.226  1.3990 -2.2502 -0.7712
   74MOL    H2927915   5.514   2.495   0.062  1.7602  2.0432  1.5697
   74MOL    H3027916   5.266   2.646   0.151  1.6682  0.4688  2.7675
   74MOL    H3127917   5.408   2.849   0.055  0.0370 -0.5081  0.4697
   74MOL    H3227918   5.520   2.743   0.023 -0.2217  0.6056  0.1081
   74MOL    H3327919   5.576   2.695   0.234 -0.1032 -0.1591  1.0742
   74MOL    H3427920   5.440   2.753   0.321 -0.4536 -4.3318 -0.7921
   74MOL    H3527921   5.674   2.901   0.197  0.2458  1.2362  0.5377
   74MOL    H3627922   5.533   2.994   0.213 -0.4505 -1.0544 -1.3506
   74MOL    H3727923   5.694   3.026   0.404 -0.3409  0.1111  3.1274
   74MOL    H3827924   5.704   2.852   0.425  0.1673  0.2166 -0.0131
   74MOL    H3927925   5.550   2.935   0.458 -1.0832  3.3329 -1.4105
   74MOL    C4027926   5.195   2.668   7.697 -0.1369  0.1070 -0.9081
   74MOL    C4127927   5.204   2.669   7.541  0.2363  0.2296 -0.2391
   74MOL    C4227928   5.293   2.783   7.500 -0.2699 -0.5012  0.2699
   74MOL    C4327929   5.314   2.793   7.347  0.0106 -0.0820 -0.4627
   74MOL    C4427930   5.425   2.899   7.311 -0.4436 -0.5373  0.4971
   74MOL    C4527931   5.445   2.917   7.161 -0.4086 -0.1183  0.4636
   74MOL    O4627932   5.064   2.690   7.499  0.1930  0.3439  0.2260
   74MOL    H4727933   5.192   2.772   7.728 -3.4514 -0.5128  1.0375
   74MOL    H4827934   5.108   2.619   7.739  0.5234 -1.1227 -0.9592
   74MOL    H4927935   5.237   2.573   7.501 -0.2829 -1.1254  2.4867
   74MOL    H5027936   5.249   2.876   7.536 -0.0841 -0.0240 -0.7013
   74MOL    H5127937   5.394   2.784   7.541  1.2421  0.6152 -3.2596
   74MOL    H5227938   5.217   2.808   7.300 -1.0417 -1.4880  1.2003
   74MOL    H5327939   5.342   2.699   7.299 -0.5522 -0.0373 -0.8878
   74MOL    H5427940   5.396   2.997   7.350  0.5597 -0.6877  1.6591
   74MOL    H5527941   5.521   2.876   7.357  0.4402 -0.6579 -1.3663
   74MOL    H5627942   5.480   2.825   7.115  2.0235  1.3376 -0.6921
   74MOL    H5727943   5.351   2.948   7.117 -0.0438 -0.2027 -0.3775
   74MOL    H5827944   5.523   2.992   7.143 -1.8625  1.9300  2.3698
   74MOL    C5927945   4.991   2.581   7.434  0.4027 -0.4164 -0.1757
   74MOL    C6027946   4.842   2.614   7.414  0.6929  0.5040 -0.1768
   74MOL    C6127947   4.808   2.738   7.332 -0.5199 -0.0119 -0.4923
   74MOL    C6227948   4.662   2.752   7.297 -0.6513 -0.1705  0.0072
   74MOL    C6327949   4.622   2.877   7.204  0.2782  0.5548 -0.1565
   74MOL    C6427950   4.613   3.018   7.271  0.4244  0.0144 -0.8684
   74MOL    O6527951   4.777   2.500   7.361 -0.6721 -0.1718  0.3866
   74MOL    H6627952   5.004   2.483   7.480 -0.1594 -0.6353 -0.4810
   74MOL    H6727953   5.020   2.579   7.329  0.0628  0.6673 -0.2918
   74MOL    H6827954   4.798   2.627   7.513  0.7005 -1.3268  0.0761
   74MOL    H6927955   4.869   2.732   7.242  0.6202  0.7923  0.2171
   74MOL    H7027956   4.837   2.828   7.386  0.1239 -1.1064  1.0197
   74MOL    H7127957   4.607   2.745   7.391 -0.3125 -0.3271  0.1926
   74MOL    H7227958   4.638   2.658   7.247 -0.6688  0.0931 -0.4785
   74MOL    H7327959   4.526   2.848   7.161 -0.3899 -0.4572  1.9444
   74MOL    H7427960   4.683   2.888   7.115 -0.2820  1.3200 -0.4459
   74MOL    H7527961   4.586   3.089   7.193  0.1139 -1.5963 -2.2681
   74MOL    H7627962   4.546   3.010   7.356 -0.4758 -0.6260 -1.6265
   74MOL    H7727963   4.709   3.048   7.313  0.1298  0.0615 -0.2279
   74MOL    C7827964   4.746   2.390   7.448 -0.4682  0.1086  0.6860
   74MOL    C7927965   4.650   2.295   7.377 -0.2463 -1.2505  0.3353
   74MOL    C8027966   4.548   2.229   7.470 -0.2062 -0.0001  0.2970
   74MOL    C8127967   4.456   2.130   7.399 -0.1882 -0.2297 -0.2751
   74MOL    C8227968   4.353   2.066   7.492 -0.8799  0.4244  0.3790
   74MOL    C8327969   4.264   1.965   7.417 -0.3905  0.2180  0.6773
   74MOL    O8427970   4.717   2.188   7.305 -0.1924 -0.1043 -0.2360
   74MOL    H8527971   4.703   2.429   7.541  0.7578  0.2283  1.2144
   74MOL    H8627972   4.834   2.334   7.478 -0.4437 -0.3959 -0.3314
   74MOL    H8727973   4.584   2.350   7.310  0.7128 -2.3695 -1.5718
   74MOL    H8827974   4.595   2.186   7.558 -1.9072 -2.0165  0.2335
   74MOL    H8927975   4.489   2.308   7.516  1.7676  0.8878  1.3729
   74MOL    H9027976   4.510   2.041   7.366  2.6270  1.6316 -0.7980
   74MOL    H9127977   4.398   2.177   7.320 -1.5121 -0.3080  0.6361
   74MOL    H9227978   4.418   2.010   7.559 -1.3272  1.5957  1.8293
   74MOL    H9327979   4.306   2.148   7.547 -2.3296 -1.2872  1.7541
   74MOL    H9427980   4.182   1.931   7.481 -3.7129  2.0981 -2.4236
   74MOL    H9527981   4.328   1.882   7.385 -1.9571 -0.8626  0.2715
   74MOL    H9627982   4.222   2.009   7.327 -3.5905 -1.4449  1.2826
   74MOL    C9727983   4.772   2.219   7.173  0.2113 -0.2498  0.1269
   74MOL    C9827984   4.816   2.089   7.106 -0.1428  0.1679  0.1509
   74MOL    C9927985   4.814   2.090   6.952 -0.2597 -0.9286 -1.0056
   74MOL   C10027986   4.854   1.960   6.891 -0.3115  0.0583  0.0477
   74MOL   C10127987   4.823   1.959   6.740  0.0548  0.6044  1.1581
   74MOL   C10227988   4.856   1.824   6.677  0.1067  0.2460  0.4093
   74MOL   O10327989   4.952   2.068   7.145 -0.0930  0.0475 -0.1100
   74MOL   H10427990   4.850   2.295   7.182  0.4214 -0.2971 -1.1825
   74MOL   H10527991   4.685   2.253   7.117 -0.5148 -2.5006 -0.1710
   74MOL   H10627992   4.753   2.004   7.132 -1.2471  0.7716 -0.4943
   74MOL   H10727993   4.875   2.170   6.909  1.5515 -1.8636 -0.2028
   74MOL   H10827994   4.714   2.119   6.921 -0.4499  0.0164  0.4506
   74MOL   H10927995   4.792   1.881   6.935 -0.6845  0.6976  0.6854
   74MOL   H11027996   4.960   1.939   6.906 -0.0249  2.4080  1.4364
   74MOL   H11127997   4.893   2.029   6.697  0.1967 -1.1192 -1.5103
   74MOL   H11227998   4.718   1.981   6.722 -0.2811 -0.1701  2.0907
   74MOL   H11327999   4.950   1.782   6.713  0.2158  0.2780  0.1601
   74MOL   H11428000   4.768   1.760   6.678 -0.0851  0.5164  0.8527
   74MOL   H11528001   4.873   1.829   6.570  1.4576 -1.3131  0.5411
   74MOL   C11628002   4.987   2.054   7.286 -0.0823 -0.2304  0.2562
   74MOL   C11728003   4.934   1.931   7.358  0.1638  0.4594 -0.5106
   74MOL   C11828004   4.983   1.942   7.502  0.2086 -0.2121 -0.0259
   74MOL   C11928005   4.933   1.830   7.593 -0.2805  0.1238  0.0422
   74MOL   C12028006   4.786   1.850   7.633 -0.0311 -0.2454  0.7993
   74MOL   C12128007   4.739   1.732   7.722 -0.1317 -0.6724  0.3494
   74MOL   O12228008   4.985   1.802   7.308  0.4079  0.2306  0.1274
   74MOL   H12328009   5.096   2.058   7.293 -0.0456  0.7789 -0.7968
   74MOL   H12428010   4.951   2.139   7.343 -3.3565 -1.6500  0.4339
   74MOL   H12528011   4.825   1.928   7.352  0.0893  0.6921  0.7000
   74MOL   H12628012   5.091   1.932   7.504  0.3890  1.4550 -0.4290
   74MOL   H12728013   4.962   2.036   7.553  0.4533 -1.3821  2.3072
   74MOL   H12828014   4.998   1.839   7.680 -1.0116 -1.9086  0.8266
   74MOL   H12928015   4.941   1.733   7.545 -1.3504  0.2438 -0.3954
   74MOL   H13028016   4.757   1.944   7.680 -0.1988  0.5787 -0.9143
   74MOL   H13128017   4.725   1.851   7.543 -1.2606  1.4742  1.6141
   74MOL   H13228018   4.752   1.633   7.679 -0.4852 -0.9836  0.9580
   74MOL   H13328019   4.769   1.738   0.041 -0.7607  3.4245  0.3932
   74MOL   H13428020   4.631   1.741   7.719 -0.1359 -0.4740  1.0530
   74MOL   C13528021   4.929   1.765   7.181 -0.1530  0.3534  0.0228
   74MOL   C13628022   4.914   1.614   7.176  0.3932 -0.2698  0.2901
   74MOL   C13728023   4.932   1.556   7.034 -0.2337 -0.6178 -0.3543
   74MOL   C13828024   4.955   1.405   7.036 -0.6320  0.3684 -0.4683
   74MOL   C13928025   4.987   1.368   6.889 -0.1622 -0.2774 -0.5176
   74MOL   C14028026   5.127   1.411   6.840 -0.6808  0.1345 -0.5663
   74MOL   O14128027   4.791   1.574   7.218  0.2402  0.4805 -0.5456
   74MOL   H14228028   4.832   1.813   7.165  0.6004  2.0586  0.4294
   74MOL   H14328029   5.004   1.798   7.109  0.4499  1.2847  1.0598
   74MOL   H14428030   4.995   1.575   7.237 -0.8787  1.5776  3.2703
   74MOL   H14528031   4.852   1.584   6.966  0.3495  0.0143 -0.7906
   74MOL   H14628032   5.028   1.594   6.999  0.0796 -0.6154  0.4995
   74MOL   H14728033   4.870   1.346   7.072  0.8319 -1.3279  0.2947
   74MOL   H14828034   5.030   1.369   7.107 -0.7071 -0.5906 -0.8608
   74MOL   H14928035   4.904   1.406   6.830 -0.1995  0.9761  0.3116
   74MOL   H15028036   4.978   1.261   6.874 -1.6889 -0.6890  2.9722
   74MOL   H15128037   5.148   1.517   6.824  2.5929 -0.5661 -1.2180
   74MOL   H15228038   5.196   1.372   6.914 -0.6535  0.4532 -0.4227
   74MOL   H15328039   5.149   1.365   6.743  1.4570  0.7577 -0.4110
   74MOL   C15428040   4.756   1.561   7.354 -0.4295 -0.0082  0.3268
   74MOL   C15528041   4.645   1.460   7.356 -0.7176  0.2534  0.3328
   74MOL   C15628042   4.604   1.421   7.496  0.9060 -0.0410 -0.3791
   74MOL   C15728043   4.528   1.290   7.494  0.6925  0.0851 -0.6210
   74MOL   C15828044   4.493   1.253   7.639 -0.3828 -0.6611 -1.1829
   74MOL   C15928045   4.408   1.127   7.649 -0.2026  0.7124 -0.6242
   74MOL   O16028046   4.534   1.529   7.299 -0.0491  0.4971 -0.0859
   74MOL   H16128047   4.729   1.662   7.385  0.6375 -0.3924  2.5193
   74MOL   H16228048   4.840   1.522   7.411 -0.0176  0.8569  0.3163
   74MOL   H16328049   4.680   1.366   7.313 -0.1602  0.2571  0.7750
   74MOL   H16428050   4.561   1.502   7.555  1.4228  0.3756 -0.5669
   74MOL   H16528051   4.696   1.408   7.554  0.5039  1.8762  0.7611
   74MOL   H16628052   4.591   1.205   7.466 -0.5302 -0.7348 -0.9471
   74MOL   H16728053   4.439   1.279   7.432 -0.3287 -0.7585  0.9451
   74MOL   H16828054   4.584   1.245   7.698 -1.6347  2.0637  1.2154
   74MOL   H16928055   4.440   1.336   7.686  1.4664  0.9590 -1.8934
   74MOL   H17028056   4.370   1.104   7.549 -2.0983 -0.8677  0.4286
   74MOL   H17128057   4.333   1.142   7.726  1.1745  0.7136  0.7478
   74MOL   H17228058   4.465   1.036   7.667 -1.7027 -0.4931 -1.7907
   74MOL   C17328059   4.455   1.453   7.209 -0.3086 -0.1461 -0.0013
   74MOL   C17428060   4.492   1.486   7.061  0.1406 -0.4308  0.7452
   74MOL   C17528061   4.509   1.358   6.977 -0.4264 -0.6086  0.6277
   74MOL   C17628062   4.591   1.376   6.849  0.7397 -0.0130  0.2734
   74MOL   C17728063   4.554   1.272   6.744  0.2497 -0.2060  0.6521
   74MOL   C17828064   4.587   1.130   6.798  0.5403 -0.0099 -0.0900
   74MOL   O17928065   4.376   1.557   7.006 -0.0094 -0.0100  0.2066
   74MOL   H18028066   4.351   1.480   7.225 -0.5525 -0.9405 -0.2258
   74MOL   H18128067   4.465   1.347   7.230  0.2132 -0.7017 -2.8864
   74MOL   H18228068   4.584   1.544   7.050 -0.6780  0.6800 -0.4651
   74MOL   H18328069   4.567   1.285   7.034 -0.4437 -1.5461 -0.5298
   74MOL   H18428070   4.411   1.318   6.952 -1.2842  2.0913 -0.5039
   74MOL   H18528071   4.576   1.479   6.817 -1.7442 -0.7596 -1.0428
   74MOL   H18628072   4.699   1.381   6.868  0.8869 -1.7762 -0.0504
   74MOL   H18728073   4.448   1.266   6.722  0.4600  1.2949 -0.7896
   74MOL   H18828074   4.613   1.284   6.654 -0.1767  3.2851  0.7583
   74MOL   H18928075   4.566   1.048   6.729 -2.6279 -0.1204  0.8810
   74MOL   H19028076   4.515   1.112   6.878  0.6837  0.5913  0.1744
   74MOL   H19128077   4.691   1.128   6.829  0.4281  2.0664  0.4505
   74MOL   C19228078   4.375   1.692   7.033 -0.4002  0.3835 -0.1635
   74MOL   C19328079   4.448   1.768   6.924  0.5385 -0.4146 -0.2440
   74MOL   C19428080   4.484   1.907   6.966 -0.0411 -0.0783  0.0173
   74MOL   C19528081   4.364   2.010   6.996 -0.5414 -0.2452  0.1769
   74MOL   C19628082   4.405   2.156   7.027  0.4635 -0.4496 -0.0082
   74MOL   C19728083   4.295   2.256   7.062  0.1792 -0.8887  0.1677
   74MOL   O19828084   4.370   1.783   6.803  0.1829  0.4168  0.0011
   74MOL   H19928085   4.270   1.723   7.038 -0.2070  0.8503  1.5175
   74MOL   H20028086   4.424   1.726   7.125  0.7097  0.3414 -0.7359
   74MOL   H20128087   4.543   1.718   6.908  0.8580 -0.3052  1.2168
   74MOL   H20228088   4.549   1.903   7.054  1.5295  0.8536 -1.0807
   74MOL   H20328089   4.540   1.952   6.884 -0.6842  0.3410 -0.1935
   74MOL   H20428090   4.301   1.973   7.077 -0.8156 -0.3628 -0.0906
   74MOL   H20528091   4.303   2.005   6.906 -0.2498 -0.8781  0.0056
   74MOL   H20628092   4.494   2.149   7.090  1.0210 -1.0585 -0.8639
   74MOL   H20728093   4.452   2.201   6.940  4.8975 -0.3977  2.2433
   74MOL   H20828094   4.307   2.286   7.166  1.4604  0.8706 -0.4583
   74MOL   H20928095   4.297   2.351   7.008 -2.1514 -1.0421 -0.2726
   74MOL   H21028096   4.193   2.219   7.046 -0.4967  1.7641 -2.0594
   74MOL   C21128097   4.384   1.675   6.716  0.5899 -0.2460 -0.0173
   74MOL   C21228098   4.298   1.700   6.590 -0.0463 -0.3108  0.1422
   74MOL   C21328099   4.242   1.564   6.534 -0.3652  0.3004  0.5942
   74MOL   C21428100   4.351   1.460   6.506 -0.0601 -0.6649  0.4338
   74MOL   C21528101   4.314   1.349   6.415 -0.2599  0.9422  0.8093
   74MOL   C21628102   4.424   1.241   6.427 -0.2339 -0.6220 -0.2060
   74MOL   O21728103   4.375   1.767   6.494  0.8196  0.1631  0.0081
   74MOL   H21828104   4.337   1.589   6.762  1.2420 -0.2122  0.7137
   74MOL   H21928105   4.486   1.646   6.690  0.6557 -0.4640  0.4912
   74MOL   H22028106   4.214   1.766   6.612  0.7506  0.9934 -0.6699
   74MOL   H22128107   4.166   1.510   6.591 -0.3217 -0.0146  0.3546
   74MOL   H22228108   4.193   1.574   6.437 -0.5493 -3.3455  0.2322
   74MOL   H22328109   4.448   1.501   6.477  0.2618 -1.5428  0.2419
   74MOL   H22428110   4.370   1.416   6.604  0.8477  0.2756  0.6860
   74MOL   H22528111   4.219   1.305   6.445 -0.0962 -0.2206 -0.3292
   74MOL   H22628112   4.317   1.381   6.311 -1.2781 -2.4388 -0.3202
   74MOL   H22728113   4.526   1.276   6.416  0.6193 -2.8211  0.4049
   74MOL   H22828114   4.409   1.162   6.353 -1.4597  0.3923 -1.0609
   74MOL   H22928115   4.429   1.178   6.516  4.0437  0.0919  0.1291
   74MOL   C23028116   4.416   1.902   6.526 -1.0643  0.0770  0.0895
   74MOL   C23128117   4.500   1.970   6.408 -0.2740 -0.1533 -0.1691
   74MOL   C23228118   4.581   1.883   6.318  0.3783  0.2477 -0.3892
   74MOL   C23328119   4.645   1.952   6.194  0.8185 -0.4564  0.4047
   74MOL   C23428120   4.743   1.856   6.118 -0.4654  0.6198  0.4100
   74MOL   C23528121   4.848   1.937   6.032  0.0675  0.2200 -0.3558
   74MOL   O23628122   4.598   2.058   6.468  0.6494  0.2645  0.2582
   74MOL   H23728123   4.328   1.963   6.546  0.5885  1.9501  1.9998
   74MOL   H23828124   4.474   1.911   6.618  0.0441  0.6818 -0.6543
   74MOL   H23928125   4.433   2.020   6.338  1.1884  3.4128  0.8959
   74MOL   H24028126   4.517   1.798   6.292  0.1650  0.1932  0.2954
   74MOL   H24128127   4.662   1.825   6.361 -0.2320 -0.7278 -0.5240
   74MOL   H24228128   4.697   2.044   6.220 -0.3754 -0.1971  1.9637
   74MOL   H24328129   4.560   1.977   6.130  2.0140  0.1350 -0.9665
   74MOL   H24428130   4.811   1.792   6.174  2.3582  0.3643 -3.0805
   74MOL   H24528131   4.692   1.781   6.058  2.9505 -1.6871  0.2193
   74MOL   H24628132   4.897   2.000   6.106 -2.4734  1.2551  0.4774
   74MOL   H24728133   4.803   1.998   5.954  1.6951  0.3193 -1.2385
   74MOL   H24828134   4.927   1.876   5.988  1.1312 -1.1311  3.2995
   74MOL   C24928135   4.548   2.179   6.502 -1.1247  0.5138  0.0506
   74MOL   C25028136   4.643   2.259   6.600 -0.8570  0.9911 -0.3306
   74MOL   C25128137   4.569   2.363   6.686  0.4361  0.3329  0.6172
   74MOL   C25228138   4.635   2.440   6.796 -1.4493  0.1734 -0.2317
   74MOL   C25328139   4.536   2.516   6.883  0.7429 -0.1855  1.0866
   74MOL   C25428140   4.607   2.600   6.989  0.7980 -0.3356 -0.2813
   74MOL   O25528141   4.730   2.344   6.523 -0.0357 -0.5463 -0.2229
   74MOL   H25628142   4.522   2.243   6.418 -1.2182  2.7919  1.7829
   74MOL   H25728143   4.456   2.159   6.558 -1.8109  1.5541 -0.6860
   74MOL   H25828144   4.699   2.194   6.667  1.0240  1.9604 -0.9396
   74MOL   H25928145   4.538   2.431   6.607  0.3716  0.7673  1.0102
   74MOL   H26028146   4.484   2.309   6.728 -0.6206  0.8422 -0.8286
   74MOL   H26128147   4.700   2.369   6.847 -1.3247  0.8376  0.5346
   74MOL   H26228148   4.706   2.505   6.744  0.8778 -3.4084 -1.7449
   74MOL   H26328149   4.475   2.570   6.811  3.6843  1.1948 -0.4647
   74MOL   H26428150   4.471   2.451   6.941 -1.5795 -2.2145 -3.5205
   74MOL   H26528151   4.527   2.638   7.054  1.3073  0.1226  0.0811
   74MOL   H26628152   4.657   2.689   6.951 -0.4697  0.3839 -0.2960
   74MOL   H26728153   4.671   2.531   7.045  0.8326 -0.5895 -0.6338
   74MOL   C26828154   4.820   2.276   6.437 -0.4297 -0.3078 -0.5235
   74MOL   C26928155   4.934   2.359   6.380  0.6342  0.6865  0.3070
   74MOL   C27028156   4.980   2.323   6.239  0.3862 -0.5454 -0.0720
   74MOL   C27128157   5.076   2.437   6.186 -1.1768  0.4966 -0.0870
   74MOL   C27228158   5.137   2.411   6.045 -0.4987  0.7364  0.7749
   74MOL   C27328159   5.035   2.399   5.927 -0.0052 -0.1986  0.0003
   74MOL   O27428160   5.051   2.370   6.461  0.0447  0.6426  0.4390
   74MOL   H27528161   4.770   2.220   6.358 -1.7692 -2.1756  1.5647
   74MOL   H27628162   4.869   2.194   6.489  1.0834  1.6534  1.2104
   74MOL   H27728163   4.891   2.459   6.373 -3.6205 -0.8935  2.3876
   74MOL   H27828164   5.037   2.230   6.244  0.8147 -0.4121 -2.0206
   74MOL   H27928165   4.893   2.299   6.178  0.5952  0.3526 -0.7356
   74MOL   H28028166   5.015   2.527   6.190 -3.2094 -0.8608  0.3545
   74MOL   H28128167   5.156   2.451   6.258  0.1878 -0.4255 -1.4066
   74MOL   H28228168   5.199   2.492   6.010 -0.0760  0.4241  0.7960
   74MOL   H28328169   5.208   2.329   6.055 -0.7042  0.5329  0.5620
   74MOL   H28428170   4.968   2.313   5.935 -1.2183  0.7029 -0.3597
   74MOL   H28528171   4.972   2.487   5.922  1.5478  0.9070 -0.3088
   74MOL   H28628172   5.084   2.388   5.831  0.7977 -0.0326  0.3867
   74MOL   C28728173   5.039   2.441   6.581  0.2654 -0.2574  0.0943
   74MOL   C28828174   5.154   2.407   6.674  0.2214  0.0618  0.5120
   74MOL   C28928175   5.126   2.459   6.812 -0.5542 -0.0494 -0.1488
   74MOL   C29028176   5.179   2.372   6.930 -0.1801  0.5552 -0.2351
   74MOL   C29128177   5.148   2.435   7.067  0.5145 -0.0475 -0.9288
   74MOL   C29228178   5.176   2.334   7.175  0.9431 -0.1905 -0.5800
   74MOL   O29328179   5.277   2.463   6.617  0.3365  0.1691 -0.1666
   74MOL   H29428180   4.945   2.409   6.628  0.5809 -2.2218 -0.5742
   74MOL   H29528181   5.039   2.550   6.570  1.9061 -0.3682 -1.0708
   74MOL   H29628182   5.161   2.298   6.671 -1.7754 -0.0504 -0.9808
   74MOL   H29728183   5.176   2.556   6.823  0.2435 -0.4416 -0.2502
   74MOL   H29828184   5.019   2.477   6.819 -0.2515  2.6169 -1.5738
   74MOL   H29928185   5.133   2.275   6.910  2.0074 -0.3149 -1.3213
   74MOL   H30028186   5.285   2.346   6.925 -0.7284 -1.6519 -0.8499
   74MOL   H30128187   5.042   2.454   7.076  0.1549 -0.4139 -3.7321
   74MOL   H30228188   5.194   2.530   7.093  0.4136 -0.5026  0.9978
   74MOL   H30328189   5.156   2.369   7.276  1.2305 -0.6309 -0.3686
   74MOL   H30428190   5.110   2.248   7.159 -2.4332  2.2412 -0.3807
   74MOL   H30528191   5.277   2.296   7.163  1.0341 -0.8727  2.1028
   74MOL   C30628192   5.343   2.386   6.522  0.8725  0.2501  0.1317
   74MOL   C30728193   5.451   2.480   6.451 -0.4179 -0.3543  0.0621
   74MOL   C30828194   5.506   2.422   6.322  0.2458  0.0546 -0.5964
   74MOL   C30928195   5.615   2.522   6.258  0.0227  0.9446  0.6768
   74MOL   C31028196   5.666   2.458   6.128  0.1312 -0.2992 -0.0609
   74MOL   C31128197   5.761   2.552   6.053 -0.0537  0.4705 -0.0162
   74MOL   O31228198   5.553   2.525   6.539 -0.2188 -0.2098 -0.0462
   74MOL   H31328199   5.398   2.301   6.563  0.9547  0.6670  0.8947
   74MOL   H31428200   5.278   2.350   6.442 -0.3113 -2.2651  2.1560
   74MOL   H31528201   5.381   2.558   6.419 -1.5414 -1.7853 -0.9958
   74MOL   H31628202   5.429   2.392   6.252 -2.4873 -2.1025  3.1340
   74MOL   H31728203   5.558   2.330   6.350  2.0619  0.7711 -1.4986
   74MOL   H31828204   5.576   2.622   6.242  0.7966  1.1726  0.2214
   74MOL   H31928205   5.692   2.536   6.333  0.5814  1.8552 -0.0665
   74MOL   H32028206   5.586   2.429   6.060  0.6978 -4.1073  0.7419
   74MOL   H32128207   5.715   2.363   6.152 -2.4029 -1.4830  0.6302
   74MOL   H32228208   5.807   2.513   5.963  2.2619 -1.4226  1.9097
   74MOL   H32328209   5.707   2.643   6.029  0.6078  1.1595  1.0712
   74MOL   H32428210   5.848   2.583   6.112  1.1374 -1.1710 -0.8599
   74MOL   C32528211   5.565   2.663   6.567 -0.2697 -0.1264  0.0022
   74MOL   C32628212   5.477   2.723   6.679  0.0301  0.1968 -0.0142
   74MOL   C32728213   5.458   2.872   6.668 -0.7480  0.3030 -0.8085
   74MOL   C32828214   5.347   2.911   6.769 -0.5927  0.0834 -0.9215
   74MOL   C32928215   5.311   3.063   6.758 -0.1674  0.0091 -0.4422
   74MOL   C33028216   5.383   3.156   6.860  0.8961  0.3976 -0.4759
   74MOL   O33128217   5.551   2.704   6.801  0.4251  0.1599  0.1827
   74MOL   H33228218   5.544   2.714   6.473 -0.3858  0.4663  0.3488
   74MOL   H33328219   5.671   2.671   6.593  0.0857  0.7123 -1.6188
   74MOL   H33428220   5.384   2.667   6.686  0.7068 -0.7577  1.5733
   74MOL   H33528221   5.549   2.919   6.704 -0.0568 -2.6295  1.4631
   74MOL   H33628222   5.426   2.911   6.571 -2.4580 -0.8794 -0.7580
   74MOL   H33728223   5.268   2.842   6.740 -0.3780 -0.0920 -1.0821
   74MOL   H33828224   5.394   2.895   6.867  0.2088 -0.8399 -1.4493
   74MOL   H33928225   5.339   3.099   6.658  0.0569 -0.4185 -0.5307
   74MOL   H34028226   5.203   3.062   6.775  0.1378  0.8845  1.6575
   74MOL   H34128227   5.386   3.112   6.959 -0.1928  0.7219 -0.2911
   74MOL   H34228228   5.481   3.188   6.826  1.8590 -2.0192 -0.0698
   74MOL   H34328229   5.310   3.238   6.862  0.1726 -0.2576  0.2014
   74MOL   C34428230   5.506   2.587   6.873 -0.7188  0.3771  0.4166
   74MOL   C34528231   5.598   2.574   6.995  0.4011 -0.2295 -1.0918
   74MOL   C34628232   5.527   2.524   7.121 -0.6116 -0.4157 -0.1299
   74MOL   C34728233   5.614   2.531   7.246  0.2876 -0.0270  0.3953
   74MOL   C34828234   5.554   2.438   7.352  0.1464  0.9168  0.2172
   74MOL   C34928235   5.612   2.475   7.493 -0.2359  0.3487  0.1582
   74MOL   O35028236   5.693   2.474   6.974 -0.3409 -0.0183 -0.2782
   74MOL   H35128237   5.502   2.498   6.810 -1.7514 -0.2119  1.2965
   74MOL   H35228238   5.406   2.612   6.908  0.0060  2.1498  1.2822
   74MOL   H35328239   5.648   2.666   7.025  1.0560 -0.3529 -1.7793
   74MOL   H35428240   5.493   2.422   7.104 -1.2209 -0.2621  0.1488
   74MOL   H35528241   5.426   2.561   7.139 -1.0049 -0.7311 -1.6250
   74MOL   H35628242   5.621   2.631   7.290  0.1871 -0.1640  0.7262
   74MOL   H35728243   5.717   2.504   7.221  0.2186  0.3443 -0.3122
   74MOL   H35828244   5.567   2.330   7.337 -3.0515  0.5803 -0.4383
   74MOL   H35928245   5.446   2.452   7.358  0.0152  0.2863 -0.4512
   74MOL   H36028246   5.575   2.421   7.580  3.5275 -1.5178  0.7057
   74MOL   H36128247   5.594   2.580   7.517  0.4984  0.1197  1.7783
   74MOL   H36228248   5.720   2.466   7.494 -0.3613 -1.9745 -1.5444
   74MOL   C36328249   5.796   2.522   6.883 -0.4828  0.7696 -0.4592
   74MOL   C36428250   5.901   2.414   6.849 -0.2637  0.1311  0.4953
   74MOL   C36528251   5.995   2.450   6.721  0.6134  0.5339  0.6308
   74MOL   C36628252   5.918   2.463   6.595 -0.2183  0.1655 -0.3618
   74MOL   C36728253   6.000   2.432   6.462  0.2770  0.3713  0.3856
   74MOL   C36828254   6.088   2.546   6.427 -0.5350  0.3942 -0.0489
   74MOL   O36928255   5.991   2.400   6.953 -0.2158  0.2017  0.0460
   74MOL   H37028256   5.845   2.615   6.908 -2.0449  1.8688 -1.3956
   74MOL   H37128257   5.746   2.548   6.789 -0.6790 -1.1622 -0.9150
   74MOL   H37228258   5.845   2.322   6.831  0.2829  0.4479 -3.3221
   74MOL   H37328259   6.040   2.548   6.734  0.6564  0.6321 -0.1942
   74MOL   H37428260   6.068   2.370   6.716 -0.4564 -0.3499 -2.0012
   74MOL   H37528261   5.836   2.391   6.599  0.6196 -0.8114 -0.6477
   74MOL   H37628262   5.864   2.558   6.593 -2.0025 -0.7937  1.1584
   74MOL   H37728263   6.056   2.339   6.473 -0.6602 -0.3018 -0.5104
   74MOL   H37828264   5.922   2.416   6.388  1.5545 -1.1816 -0.6598
   74MOL   H37928265   6.146   2.526   6.337 -1.6813  0.9250 -0.9160
   74MOL   H38028266   6.028   2.635   6.413  0.1505  0.6423 -1.4861
   74MOL   H38128267   6.156   2.563   6.510 -0.7155  2.5064 -0.3181
   74MOL   H38228268   5.946   2.358   7.024 -0.5771 -1.6033 -1.2355
   75MOL     C128269   2.034   5.428   7.327 -0.1392  0.2363  0.0434
   75MOL     C228270   2.025   5.447   7.476 -0.8413 -0.4774  0.4074
   75MOL     C328271   2.100   5.343   7.564  0.0361 -0.2438 -0.1601
   75MOL     C428272   2.062   5.357   7.707 -0.9201  0.0360  0.0135
   75MOL     C528273   2.109   5.244   0.006 -0.1126 -0.8095  0.2660
   75MOL     C628274   2.071   5.288   0.147 -0.0089  0.4076 -0.8199
   75MOL     O728275   2.081   5.575   7.502  0.1991 -0.5487  0.2364
   75MOL     H828276   1.985   5.336   7.294 -0.8058  0.0787  1.4267
   75MOL     H928277   2.132   5.441   7.281 -0.6681 -2.5156 -1.9618
   75MOL    H1028278   1.922   5.447   7.512 -0.8465  1.3146  0.4276
   75MOL    H1128279   2.073   5.244   7.528  0.1233  0.6595 -2.8432
   75MOL    H1228280   2.208   5.341   7.549  0.3937 -0.9846  2.2307
   75MOL    H1328281   2.099   5.453   7.742 -0.1639 -0.7113  1.3136
   75MOL    H1428282   1.954   5.356   7.716 -0.7371  0.0939  2.7537
   75MOL    H1528283   2.066   5.145   7.783  0.9630 -1.4304  1.7560
   75MOL    H1628284   2.218   5.236   0.011 -0.0722  0.3048  1.7988
   75MOL    H1728285   2.120   5.376   0.189  3.3364 -2.0003  0.5247
   75MOL    H1828286   1.964   5.289   0.169  0.2795  0.9380  0.6123
   75MOL    H1928287   2.104   5.208   0.213  1.9571  1.1622 -0.8686
   75MOL    H2028288   1.969   5.504   7.286 -0.9364 -1.5831 -2.1779
   75MOL    C2128289   1.982   5.680   7.502  0.5511  0.3109 -0.3689
   75MOL    C2228290   2.051   5.814   7.518 -0.1695 -0.0351  0.1809
   75MOL    C2328291   1.975   5.933   7.461 -0.6413 -0.0285 -0.0453
   75MOL    C2428292   2.040   6.074   7.476 -0.8623  0.6487 -0.1817
   75MOL    C2528293   1.949   6.198   7.462 -0.2787  0.3173 -0.2721
   75MOL    C2628294   1.862   6.202   7.339  0.2294  0.4312 -0.0535
   75MOL    O2728295   2.083   5.852   7.655 -0.8328 -0.2334 -0.2928
   75MOL    H2828296   1.936   5.678   7.404 -1.8283  0.2205  0.7256
   75MOL    H2928297   1.905   5.670   7.579  1.4964  1.6995  0.7977
   75MOL    H3028298   2.144   5.808   7.462  0.1380 -1.0081  0.7796
   75MOL    H3128299   1.885   5.937   7.523 -1.6728  0.4628 -1.5384
   75MOL    H3228300   1.946   5.926   7.357  0.9063  0.2489 -0.5010
   75MOL    H3328301   2.118   6.074   7.399  0.1864 -0.6149  0.8671
   75MOL    H3428302   2.101   6.082   7.566  0.6822 -1.1851 -1.0269
   75MOL    H3528303   1.902   6.214   7.559  1.7611  2.1051  0.4623
   75MOL    H3628304   2.012   6.285   7.446 -0.7992  0.3106 -2.4620
   75MOL    H3728305   1.794   6.287   7.333  1.0586  1.2519  1.6256
   75MOL    H3828306   1.798   6.114   7.347 -0.3503  0.8902  0.4093
   75MOL    H3928307   1.926   6.196   7.251 -0.2382  0.7210 -0.4195
   75MOL    C4028308   2.201   5.795   7.707  0.0380  0.2897  0.3875
   75MOL    C4128309   2.212   5.833   0.072 -0.4260  0.4541  0.4418
   75MOL    C4228310   2.328   5.761   0.134  0.0234  0.6504  0.9008
   75MOL    C4328311   2.331   5.785   0.291 -0.1962  0.1733  0.2079
   75MOL    C4428312   2.469   5.760   0.359  0.1972 -0.3133 -0.6310
   75MOL    C4528313   2.506   5.610   0.352 -0.4202 -0.0416  0.2733
   75MOL    O4628314   2.098   5.776   0.127 -0.8143 -0.1670 -0.5028
   75MOL    H4728315   2.293   5.820   7.656 -1.5156  1.5266 -1.9148
   75MOL    H4828316   2.203   5.686   7.706 -0.1953  0.2896 -1.2302
   75MOL    H4928317   2.226   5.940   0.080 -0.0947  0.3796  0.8412
   75MOL    H5028318   2.324   5.655   0.109 -0.6194  0.9428 -0.2656
   75MOL    H5128319   2.422   5.800   0.095 -0.2620  0.4739  0.0310
   75MOL    H5228320   2.254   5.723   0.338  1.4897 -0.2737  2.4823
   75MOL    H5328321   2.305   5.887   0.321  3.0238  0.5211  2.0079
   75MOL    H5428322   2.549   5.825   0.325  1.5512 -1.9175 -0.6111
   75MOL    H5528323   2.472   5.780   0.466  1.1852 -0.7703 -0.5638
   75MOL    H5628324   2.519   5.574   0.250 -2.1923 -0.1225  0.0618
   75MOL    H5728325   2.598   5.574   0.399  0.2586 -0.4378 -1.3436
   75MOL    H5828326   2.424   5.550   0.391 -0.8487 -0.4274 -1.1940
   75MOL    C5928327   1.990   5.870   0.150  0.3316 -0.2366  0.2394
   75MOL    C6028328   1.895   5.809   0.247  0.1611 -0.6838 -0.7587
   75MOL    C6128329   1.810   5.928   0.296 -0.0673  0.6316  0.3533
   75MOL    C6228330   1.705   5.876   0.396 -1.3948  0.3619 -0.5044
   75MOL    C6328331   1.653   5.994   0.476 -0.1632  0.3293 -0.0063
   75MOL    C6428332   1.533   5.971   0.573  0.2219  0.1609 -0.0256
   75MOL    O6528333   1.791   5.724   0.191 -0.2965  0.1664  0.1909
   75MOL    H6628334   1.941   5.896   0.056 -1.6083 -2.8766  0.4568
   75MOL    H6728335   2.022   5.964   0.196 -2.5924  0.2963  1.3557
   75MOL    H6828336   1.934   5.769   0.341 -0.0155  2.7687  0.8426
   75MOL    H6928337   1.775   5.976   0.205  0.1815 -0.0010 -0.0865
   75MOL    H7028338   1.874   6.003   0.342  0.6010 -0.0529  0.5557
   75MOL    H7128339   1.742   5.797   0.461  1.3317  1.6330 -0.4536
   75MOL    H7228340   1.626   5.825   0.341  0.4454 -2.0885 -0.9707
   75MOL    H7328341   1.641   6.078   0.408 -0.1064  0.0614 -0.3502
   75MOL    H7428342   1.727   6.022   0.551  0.8053  0.9886 -1.1807
   75MOL    H7528343   1.441   5.950   0.516 -0.2336 -0.1003  0.8016
   75MOL    H7628344   1.538   5.876   0.627  1.6443  0.9976  1.3406
   75MOL    H7728345   1.515   6.058   0.636 -0.9153 -0.6447  0.7896
   75MOL    C7828346   1.857   5.611   0.130  0.5239 -0.3123  0.8130
   75MOL    C7928347   1.756   5.496   0.118 -0.4185 -0.2373  0.1079
   75MOL    C8028348   1.606   5.529   0.092 -0.5879  0.0665 -0.4783
   75MOL    C8128349   1.514   5.406   0.080 -0.2683 -0.1223 -0.2794
   75MOL    C8228350   1.369   5.428   0.062 -0.0867  0.6791 -0.0138
   75MOL    C8328351   1.284   5.300   0.080 -0.5305 -0.0838 -0.5144
   75MOL    O8428352   1.772   5.409   0.236  0.5742 -0.4128 -0.0029
   75MOL    H8528353   1.931   5.565   0.195  0.4080 -0.3241  0.9364
   75MOL    H8628354   1.901   5.635   0.033 -2.9890 -1.2920 -1.1295
   75MOL    H8728355   1.799   5.429   0.043 -0.7317 -2.2148  1.6389
   75MOL    H8828356   1.570   5.596   0.171  0.0086  1.2535 -1.1933
   75MOL    H8928357   1.599   5.572   7.778 -1.5913 -0.3168 -0.5739
   75MOL    H9028358   1.527   5.338   0.165  0.7100  1.7505  1.1064
   75MOL    H9128359   1.562   5.346   0.003  1.3090  0.9847 -0.1717
   75MOL    H9228360   1.335   5.508   0.127 -0.0495 -0.5494  1.5541
   75MOL    H9328361   1.353   5.453   7.742  1.6287  0.5453 -0.3169
   75MOL    H9428362   1.316   5.206   0.034 -1.3109 -1.0105  0.7859
   75MOL    H9528363   1.180   5.325   0.055 -0.1586  0.2548 -1.7626
   75MOL    H9628364   1.289   5.273   0.185 -1.1110  0.8938 -0.2327
   75MOL    C9728365   1.728   5.463   0.363 -0.8241  0.2270  0.1999
   75MOL    C9828366   1.756   5.368   0.481 -0.5900 -0.4988  0.0546
   75MOL    C9928367   1.905   5.334   0.514  0.5383  0.0239 -0.4631
   75MOL   C10028368   1.979   5.457   0.567 -0.0837 -0.2626 -0.7488
   75MOL   C10128369   2.127   5.425   0.621 -0.1107 -0.4760 -0.0866
   75MOL   C10228370   2.216   5.370   0.510 -1.0269  0.4791 -0.5768
   75MOL   O10328371   1.698   5.438   0.593 -0.3027  0.5389  0.2406
   75MOL   H10428372   1.620   5.469   0.373 -1.0160 -1.6656 -0.4552
   75MOL   H10528373   1.771   5.562   0.374 -1.6278  0.7194 -0.9918
   75MOL   H10628374   1.707   5.273   0.464 -0.9322 -0.0783 -1.4014
   75MOL   H10728375   1.955   5.313   0.420  0.7320  1.2009 -0.6353
   75MOL   H10828376   1.902   5.247   0.579  1.6910  0.8018  0.6659
   75MOL   H10928377   1.931   5.499   0.656  1.5791 -0.9848  0.5300
   75MOL   H11028378   1.980   5.526   0.483 -0.0713 -0.4258 -0.8813
   75MOL   H11128379   2.119   5.360   0.708 -0.3294  0.5835  0.7000
   75MOL   H11228380   2.176   5.518   0.649  1.0763 -1.7398  2.1224
   75MOL   H11328381   2.206   5.263   0.494 -0.1067  0.2986 -0.0057
   75MOL   H11428382   2.208   5.426   0.417  0.1486  1.3277 -0.1861
   75MOL   H11528383   2.321   5.384   0.537 -0.8787 -0.4971 -0.6473
   75MOL   C11628384   1.647   5.352   0.692  0.1287 -0.1200  0.3946
   75MOL   C11728385   1.569   5.434   0.798 -0.2151  0.0745  0.8808
   75MOL   C11828386   1.591   5.374   0.938  0.1043  0.1666 -0.5608
   75MOL   C11928387   1.545   5.227   0.954 -0.2520  0.3513  0.0840
   75MOL   C12028388   1.467   5.199   1.085  0.2599 -0.6558  0.2669
   75MOL   C12128389   1.544   5.200   1.208 -0.8471 -0.1233 -0.7670
   75MOL   O12228390   1.430   5.443   0.779 -0.0018 -0.2041  0.7194
   75MOL   H12328391   1.586   5.267   0.661 -1.2293  0.8863  0.2480
   75MOL   H12428392   1.730   5.305   0.743 -0.1952 -1.7271 -0.5013
   75MOL   H12528393   1.610   5.535   0.797 -1.6490  0.6825 -1.8774
   75MOL   H12628394   1.698   5.374   0.957 -0.0177 -0.3692  0.1611
   75MOL   H12728395   1.542   5.437   1.013 -0.0914 -1.6587  0.9071
   75MOL   H12828396   1.626   5.155   0.939 -0.2617  0.2079  0.6862
   75MOL   H12928397   1.482   5.201   0.869 -0.4597 -0.0227  0.3473
   75MOL   H13028398   1.376   5.259   1.084 -1.1562 -2.7755 -0.4719
   75MOL   H13128399   1.427   5.099   1.070  3.2758 -2.0221  0.9388
   75MOL   H13228400   1.518   5.126   1.284  2.1110  0.2438  0.6799
   75MOL   H13328401   1.639   5.171   1.162 -0.4771  1.3863 -0.9617
   75MOL   H13428402   1.565   5.295   1.257 -1.7545 -1.7950  3.0194
   75MOL   C13528403   1.378   5.505   0.663 -0.5819 -0.7574  0.1099
   75MOL   C13628404   1.227   5.514   0.675  0.1586  0.0309  0.1097
   75MOL   C13728405   1.142   5.384   0.664  0.1921  0.2940 -0.1062
   75MOL   C13828406   1.185   5.273   0.769 -0.4026 -0.0434  0.4087
   75MOL   C13928407   1.091   5.169   0.792 -0.6132  0.5452  0.1607
   75MOL   C14028408   1.151   5.053   0.875 -0.0263 -0.5048 -0.4128
   75MOL   O14128409   1.168   5.608   0.589 -0.0509  0.5486 -0.1078
   75MOL   H14228410   1.418   5.605   0.644 -1.5995  0.4722  4.0308
   75MOL   H14328411   1.408   5.456   0.570  1.4309  1.4320 -0.4428
   75MOL   H14428412   1.203   5.551   0.775 -0.5782 -0.0389 -0.0448
   75MOL   H14528413   1.039   5.410   0.689 -0.0270 -2.0058  1.4912
   75MOL   H14628414   1.160   5.335   0.568  0.9916  1.0184 -0.3371
   75MOL   H14728415   1.205   5.316   0.867  0.9028 -0.3954  0.3099
   75MOL   H14828416   1.278   5.232   0.730  0.1494  0.2785  1.3670
   75MOL   H14928417   1.049   5.138   0.697  0.8108  0.0745 -0.3256
   75MOL   H15028418   1.007   5.203   0.853  0.0995  1.0055  0.9013
   75MOL   H15128419   1.079   4.973   0.893  0.7850 -0.9670  0.8265
   75MOL   H15228420   1.244   5.015   0.833 -0.4079 -2.3387  0.3939
   75MOL   H15328421   1.184   5.093   0.970  0.6882 -0.6526 -0.5962
   75MOL   C15428422   1.208   5.622   0.448 -0.3039  0.0982  0.3331
   75MOL   C15528423   1.096   5.688   0.367  0.2089 -0.4451 -0.1171
   75MOL   C15628424   1.138   5.808   0.279 -0.4277  0.4922 -0.2446
   75MOL   C15728425   1.023   5.873   0.215  0.6727 -0.5651  0.3296
   75MOL   C15828426   1.042   6.004   0.142  0.0680  0.2841  0.4344
   75MOL   C15928427   0.919   6.064   0.080  0.2374  0.3125 -0.4272
   75MOL   O16028428   1.029   5.587   0.282  0.5700  0.0141 -0.2495
   75MOL   H16128429   1.246   5.531   0.402  0.5391  0.9823 -0.7491
   75MOL   H16228430   1.292   5.690   0.461 -0.6340  0.3691  1.0816
   75MOL   H16328431   1.030   5.728   0.444 -1.0842  0.6105 -1.7376
   75MOL   H16428432   1.198   5.770   0.197 -0.1183  0.9997 -0.2569
   75MOL   H16528433   1.211   5.873   0.328  1.7059 -2.1309  0.1934
   75MOL   H16628434   0.935   5.882   0.278  0.3350 -1.2770 -0.0327
   75MOL   H16728435   0.993   5.800   0.140 -0.5553 -2.0927  2.2694
   75MOL   H16828436   1.075   6.076   0.216  2.2108  0.7698 -0.9411
   75MOL   H16928437   1.117   5.991   0.063  1.5760  0.9625  1.7348
   75MOL   H17028438   0.836   6.068   0.150  0.3003 -1.5578 -0.2251
   75MOL   H17128439   0.879   6.003   7.784 -2.0630  2.6828 -1.1558
   75MOL   H17228440   0.942   6.164   0.041 -4.8126  1.5934 -0.4653
   75MOL   C17328441   0.938   5.511   0.359 -0.4903 -1.4886 -0.4889
   75MOL   C17428442   0.859   5.416   0.266 -0.4749 -0.0504 -0.0208
   75MOL   C17528443   0.801   5.289   0.326  0.2299  0.7540  0.5378
   75MOL   C17628444   0.906   5.192   0.382  0.2260  0.4416  0.1449
   75MOL   C17728445   0.861   5.075   0.472  0.1907  0.0017  0.0869
   75MOL   C17828446   0.800   4.951   0.404  0.3031 -0.7132  0.9714
   75MOL   O17928447   0.738   5.482   0.210 -0.1265  0.3000  0.0394
   75MOL   H18028448   0.868   5.584   0.400  1.0636  0.0677 -0.5859
   75MOL   H18128449   0.986   5.458   0.441 -0.4629 -1.0985 -0.2545
   75MOL   H18228450   0.926   5.374   0.191 -0.4792 -0.7030  0.3342
   75MOL   H18328451   0.736   5.323   0.406 -1.0607  1.9809 -0.9959
   75MOL   H18428452   0.741   5.235   0.252 -1.1227  0.3041  1.9561
   75MOL   H18528453   0.964   5.149   0.300 -1.7056  0.7095 -1.4234
   75MOL   H18628454   0.980   5.254   0.431 -0.0695 -0.1621  1.3614
   75MOL   H18728455   0.953   5.045   0.522  0.2408 -0.0096 -0.0108
   75MOL   H18828456   0.800   5.109   0.556  0.0382 -0.7753  0.2909
   75MOL   H18928457   0.706   4.963   0.350  1.2371  0.7652 -0.3677
   75MOL   H19028458   0.784   4.866   0.471 -1.0345 -0.7971  0.5633
   75MOL   H19128459   0.862   4.895   0.334 -2.4773 -1.8877 -0.6611
   75MOL   C19228460   0.780   5.566   0.096  0.0333  0.1599  0.0343
   75MOL   C19328461   0.655   5.625   0.024  0.0489 -0.5695  1.5993
   75MOL   C19428462   0.697   5.716   7.694  0.3173 -0.6919  0.5178
   75MOL   C19528463   0.585   5.755   7.591 -0.0391  0.6169 -0.5428
   75MOL   C19628464   0.618   5.834   7.458  0.2135  0.5846  0.0436
   75MOL   C19728465   0.686   5.967   7.463  0.2604 -0.2946 -0.4947
   75MOL   O19828466   0.569   5.712   0.106 -0.5930  0.1959  0.4996
   75MOL   H19928467   0.831   5.655   0.132  0.5828 -0.0084 -0.3240
   75MOL   H20028468   0.848   5.511   0.031 -0.0303 -0.1667  0.2439
   75MOL   H20128469   0.592   5.543   7.774 -1.0223 -0.0987  2.3785
   75MOL   H20228470   0.731   5.808   7.741  1.3049 -1.3997  1.2209
   75MOL   H20328471   0.777   5.672   7.634 -0.5537 -1.0191 -0.4070
   75MOL   H20428472   0.507   5.805   7.649 -0.5489 -2.1303  1.2687
   75MOL   H20528473   0.518   5.671   7.575 -3.0847  2.3357  2.5733
   75MOL   H20628474   0.673   5.766   7.392 -0.6171 -1.9280  1.8430
   75MOL   H20728475   0.520   5.844   7.412  0.0009 -0.5467  0.2203
   75MOL   H20828476   0.734   5.993   7.369  1.6710  0.8915  0.5153
   75MOL   H20928477   0.613   6.046   7.483  0.7749 -0.4700  2.3266
   75MOL   H21028478   0.764   5.968   7.539 -0.0587  1.9170 -0.1559
   75MOL   C21128479   0.492   5.636   0.209 -0.0947 -0.2928 -0.8051
   75MOL   C21228480   0.361   5.702   0.245  0.4866 -0.6610 -0.1661
   75MOL   C21328481   0.283   5.627   0.356  0.1828  0.7258  0.1317
   75MOL   C21428482   0.225   5.714   0.469 -0.3338 -0.7417 -0.5628
   75MOL   C21528483   0.145   5.652   0.574  0.4088  1.0558  1.1050
   75MOL   C21628484   0.100   5.750   0.677 -0.1011 -0.2140 -0.1006
   75MOL   O21728485   0.271   5.712   0.138 -0.7896  0.4057 -0.3306
   75MOL   H21828486   0.549   5.627   0.301 -0.1846  0.2055 -0.6998
   75MOL   H21928487   0.473   5.533   0.180  0.2167 -0.3792 -0.6980
   75MOL   H22028488   0.386   5.800   0.286 -0.3894 -1.1840  1.6337
   75MOL   H22128489   0.205   5.576   0.300  0.5840 -0.5692  0.7275
   75MOL   H22228490   0.341   5.544   0.396  1.0798  0.0208 -2.4945
   75MOL   H22328491   0.312   5.762   0.512 -1.3688 -0.1038  0.8543
   75MOL   H22428492   0.164   5.796   0.430 -0.1179 -0.9982 -1.4543
   75MOL   H22528493   0.046   5.621   0.542  0.0865  1.6640  1.5030
   75MOL   H22628494   0.186   5.565   0.625 -1.3611 -0.5333 -0.1314
   75MOL   H22728495   0.058   5.689   0.757  1.8215 -1.5674 -0.1034
   75MOL   H22828496   0.025   5.821   0.643  0.0180  0.9374  1.9448
   75MOL   H22928497   0.184   5.799   0.726 -2.8751  3.4833  1.2613
   75MOL   C23028498   0.272   5.848   0.086 -0.2352 -0.2394 -0.1001
   75MOL   C23128499   0.190   5.842   7.745 -0.4225  0.2613  0.7285
   75MOL   C23228500   0.237   5.943   7.642  0.1093  0.2397 -0.2097
   75MOL   C23328501   0.152   5.955   7.513  0.0591  0.2939  0.1964
   75MOL   C23428502   0.224   6.007   7.390 -0.2184  0.1625  0.2000
   75MOL   C23528503   0.133   6.049   7.275  0.2409 -0.2653  0.5779
   75MOL   O23628504   0.046   5.871   7.761 -0.0318 -0.0139 -0.5829
   75MOL   H23728505   0.224   5.913   0.159 -0.6196  0.9049 -1.3473
   75MOL   H23828506   0.375   5.883   0.078 -0.6197  0.5739 -1.5690
   75MOL   H23928507   0.203   5.741   7.704  1.6244 -0.2284  2.5123
   75MOL   H24028508   0.341   5.917   7.622 -0.1328  0.3448 -1.6369
   75MOL   H24128509   0.244   6.039   7.694  1.8591 -0.7020  1.3242
   75MOL   H24228510   0.066   6.021   7.528 -0.1992  0.3966 -1.6166
   75MOL   H24328511   0.112   5.860   7.478  0.6620  0.5422 -1.2112
   75MOL   H24428512   0.287   6.091   7.418 -0.7553  0.4682  0.5174
   75MOL   H24528513   0.292   5.934   7.347 -0.7723 -0.9553  1.1992
   75MOL   H24628514   0.078   6.142   7.287 -0.9645 -0.6747 -1.6395
   75MOL   H24728515   0.064   5.973   7.240  0.3253 -0.7790  1.4989
   75MOL   H24828516   0.183   6.071   7.181  1.7593  1.3861  1.7244
   75MOL   C24928517   7.768   5.775   0.053  0.0470  0.3284  0.0915
   75MOL   C25028518   7.650   5.837   0.129  0.4126  0.3306  0.5061
   75MOL   C25128519   7.639   5.800   0.281 -0.6992 -0.1049 -0.0453
   75MOL   C25228520   7.521   5.875   0.349  0.3937  0.3626 -0.5578
   75MOL   C25328521   7.554   6.022   0.387 -0.4825  0.0808 -0.0242
   75MOL   C25428522   7.469   6.074   0.506  0.1661  0.0690  0.6069
   75MOL   O25528523   7.532   5.783   0.075  0.1543  0.3858 -0.7964
   75MOL   H25628524   7.726   5.709   7.762  0.7451 -2.9022  2.3859
   75MOL   H25728525   0.055   5.721   0.114  0.6146 -0.0522 -0.8966
   75MOL   H25828526   7.648   5.944   0.109  0.6201 -0.1099 -1.9472
   75MOL   H25928527   7.630   5.692   0.296 -1.2401 -0.0741 -0.1516
   75MOL   H26028528   7.736   5.833   0.317 -0.1021 -1.4137 -0.4121
   75MOL   H26128529   7.425   5.872   0.297 -0.0603  2.3102  0.1413
   75MOL   H26228530   7.495   5.825   0.443  1.5115  0.7060 -0.0574
   75MOL   H26328531   7.657   6.017   0.423 -0.1757 -0.6696 -0.9810
   75MOL   H26428532   7.546   6.092   0.304  0.8753  0.0770 -0.1653
   75MOL   H26528533   7.470   6.182   0.490  0.9023  0.0970  0.8618
   75MOL   H26628534   7.487   6.048   0.610  1.9123  0.2821  0.3620
   75MOL   H26728535   7.366   6.042   0.486 -0.2934  1.8528 -0.0398
   75MOL   C26828536   7.447   5.867   0.011 -0.7085 -0.5074  0.9811
   75MOL   C26928537   7.489   5.904   7.651  0.2013 -0.1131 -0.6280
   75MOL   C27028538   7.442   6.045   7.626  0.1690  0.8188 -0.5648
   75MOL   C27128539   7.484   6.105   7.491  0.3444 -0.2161 -0.5530
   75MOL   C27228540   7.451   6.252   7.479  0.3728 -1.1825  0.5090
   75MOL   C27328541   7.477   6.313   7.341 -0.0824  0.6723 -0.7403
   75MOL   O27428542   7.422   5.816   7.561 -0.2847 -0.2485 -0.1913
   75MOL   H27528543   7.443   5.952   0.079 -0.6235  2.0357 -2.0511
   75MOL   H27628544   7.346   5.826   0.016 -0.9490  0.3406  3.5717
   75MOL   H27728545   7.597   5.905   7.638  0.4263 -2.4669  0.7590
   75MOL   H27828546   7.334   6.043   7.641  0.6517 -0.8385  3.2806
   75MOL   H27928547   7.480   6.115   7.701 -2.3108  1.4610  0.1471
   75MOL   H28028548   7.589   6.088   7.468  0.4170  0.4676 -0.7483
   75MOL   H28128549   7.423   6.050   7.419  0.5200  0.8896 -1.5694
   75MOL   H28228550   7.342   6.249   7.490  0.5354 -0.8589  2.4187
   75MOL   H28328551   7.494   6.309   7.561 -3.7991  1.3113  1.1294
   75MOL   H28428552   7.412   6.273   7.263 -2.6201  2.5132  0.3711
   75MOL   H28528553   7.450   6.419   7.336 -0.8710  0.4916 -0.3894
   75MOL   H28628554   7.585   6.307   7.324  0.4384  0.0292  2.5570
   75MOL   C28728555   7.481   5.682   7.565  0.6269  0.1034  0.6892
   75MOL   C28828556   7.430   5.596   7.444 -0.5238  0.1945 -0.0505
   75MOL   C28928557   7.473   5.448   7.466  0.3043 -0.0651  0.7929
   75MOL   C29028558   7.419   5.349   7.366  0.0129 -0.8185 -0.6587
   75MOL   C29128559   7.455   5.196   7.410  0.3774  0.2288  0.2317
   75MOL   C29228560   7.383   5.110   7.304 -0.4708  0.2772  0.3639
   75MOL   O29328561   7.507   5.633   7.330 -0.1820 -0.2667 -0.3542
   75MOL   H29428562   7.451   5.631   7.656 -0.4489  1.3063  1.0107
   75MOL   H29528563   7.590   5.689   7.557  0.6543 -0.2945  0.7222
   75MOL   H29628564   7.324   5.605   7.420 -0.4795  1.3417  0.1650
   75MOL   H29728565   7.582   5.450   7.469  0.3152  2.7554  0.1628
   75MOL   H29828566   7.439   5.410   7.563  0.1986  0.7029  1.0643
   75MOL   H29928567   7.311   5.351   7.353 -0.0079 -2.2580 -0.7912
   75MOL   H30028568   7.470   5.369   7.272  1.1000  0.0793  0.1108
   75MOL   H30128569   7.425   5.177   7.513 -2.5978 -1.0347 -0.7998
   75MOL   H30228570   7.562   5.178   7.405  0.3142 -0.8795  2.3293
   75MOL   H30328571   7.402   5.003   7.312 -0.5556  0.0321 -2.2473
   75MOL   H30428572   7.274   5.115   7.303 -0.5435 -1.2606 -0.0211
   75MOL   H30528573   7.418   5.131   7.203  2.5587  1.4990  1.6310
   75MOL   C30628574   7.464   5.746   7.254 -0.6837  0.1201 -0.0576
   75MOL   C30728575   7.563   5.789   7.148 -0.1272 -0.4716  0.1063
   75MOL   C30828576   7.546   5.938   7.113  0.1521 -0.7927 -0.5254
   75MOL   C30928577   7.419   5.973   7.044 -0.1534 -0.2641 -0.1764
   75MOL   C31028578   7.420   6.109   6.967 -0.3452 -0.3810 -0.4984
   75MOL   C31128579   7.290   6.129   6.882 -0.1694  0.0703 -1.1618
   75MOL   O31228580   7.562   5.711   7.031 -0.1367  0.3861  0.0284
   75MOL   H31328581   7.364   5.731   7.211  0.2464  1.2251 -2.6950
   75MOL   H31428582   7.453   5.828   7.325 -0.5720  0.5346 -0.5177
   75MOL   H31528583   7.664   5.791   7.188 -0.4217  2.6909  0.8249
   75MOL   H31628584   7.630   5.965   7.047  1.4859 -0.5659  1.2312
   75MOL   H31728585   7.562   6.006   7.197 -0.5884  0.8070 -1.6452
   75MOL   H31828586   7.401   5.886   6.980 -0.5272 -1.2021  1.1806
   75MOL   H31928587   7.336   5.973   7.115  0.3974  0.4058  0.4631
   75MOL   H32028588   7.511   6.117   6.908  0.6733  1.9309  1.2752
   75MOL   H32128589   7.443   6.186   7.040  1.1614 -0.4763 -0.8570
   75MOL   H32228590   7.259   6.051   6.813  1.2964 -1.1312 -0.4834
   75MOL   H32328591   7.204   6.146   6.947  2.7284  0.6485  2.7213
   75MOL   H32428592   7.294   6.219   6.821 -1.1501  1.0785  0.2322
   75MOL   C32528593   7.637   5.595   7.035 -0.2835 -0.3458 -0.1627
   75MOL   C32628594   7.667   5.529   6.899 -0.4053 -0.6588 -0.6941
   75MOL   C32728595   7.718   5.387   6.912 -0.4637 -0.0195 -0.0166
   75MOL   C32828596   7.741   5.328   6.773 -0.1173  0.5315 -0.2349
   75MOL   C32928597   0.011   5.187   6.784 -0.6557  0.1008  0.3584
   75MOL   C33028598   7.760   5.089   6.673 -0.1712 -0.2136  0.1173
   75MOL   O33128599   7.772   5.602   6.832  0.4447 -0.3854  0.1728
   75MOL   H33228600   7.589   5.525   7.103 -4.3029  0.9325 -1.5908
   75MOL   H33328601   7.732   5.597   7.089 -1.1280 -0.7217  1.3551
   75MOL   H33428602   7.580   5.531   6.833 -1.5997  1.4668  0.9001
   75MOL   H33528603   0.025   5.393   6.968  0.6673 -2.5777 -1.5618
   75MOL   H33628604   7.637   5.326   6.954 -0.4157 -0.3067 -0.3496
   75MOL   H33728605   7.643   5.325   6.726 -1.0274  1.1331  1.5514
   75MOL   H33828606   0.020   5.383   6.705  1.3674 -0.4935  0.3115
   75MOL   H33928607   0.118   5.204   6.774 -0.7123  1.8951  2.4487
   75MOL   H34028608   7.779   5.131   6.876 -1.7328  0.2277  0.2395
   75MOL   H34128609   7.657   5.055   6.680 -0.2065 -0.6436 -2.1582
   75MOL   H34228610   7.765   5.131   6.573  4.0444 -0.4443  0.1422
   75MOL   H34328611   0.044   5.006   6.690  0.1865  0.3569  1.4740
   75MOL   C34428612   7.714   5.712   6.754  0.2399  0.2939 -0.6402
   75MOL   C34528613   0.045   5.815   6.730 -0.8561  0.7131 -0.4759
   75MOL   C34628614   0.020   5.922   6.622  0.4076  0.1034  0.4860
   75MOL   C34728615   0.146   6.023   6.604 -0.4147 -0.3468 -0.7257
   75MOL   C34828616   0.121   6.113   6.488 -0.4470 -0.5164 -0.3824
   75MOL   C34928617   0.125   6.054   6.350  0.4768  0.2693 -0.4268
   75MOL   O35028618   0.074   5.883   6.855  0.7370  0.1439  0.2592
   75MOL   H35128619   7.634   5.753   6.815 -0.0879  1.0349 -1.5525
   75MOL   H35228620   7.666   5.671   6.665  0.8620  1.3048 -1.4565
   75MOL   H35328621   0.133   5.761   6.695 -2.0495 -0.7042 -1.3531
   75MOL   H35428622   7.711   5.966   6.653 -0.7951 -1.6977 -0.4954
   75MOL   H35528623   7.776   5.879   6.526  2.6671  0.3336 -0.3382
   75MOL   H35628624   0.234   5.968   6.570  0.6679  0.3567  0.9112
   75MOL   H35728625   0.170   6.079   6.694 -0.2633  0.1448 -1.0720
   75MOL   H35828626   0.199   6.189   6.484  0.3373 -1.2728  0.4723
   75MOL   H35928627   0.024   6.159   6.506 -1.0212 -1.2216 -1.5534
   75MOL   H36028628   0.042   5.984   6.337  0.7175  0.1125 -1.1481
   75MOL   H36128629   0.214   5.994   6.329  0.6649  0.3396  0.1777
   75MOL   H36228630   0.111   6.132   6.275  1.0283  0.4901 -0.3006
   75MOL   C36328631   0.168   5.837   6.954  0.2630 -0.3148 -0.2181
   75MOL   C36428632   0.289   5.755   6.906  0.6476  0.1407 -0.6884
   75MOL   C36528633   0.409   5.778   6.996  0.3921 -0.4275 -0.6281
   75MOL   C36628634   0.541   5.765   6.923 -0.0528 -0.1649  0.5375
   75MOL   C36728635   0.654   5.784   7.025  0.0676  0.1126 -0.6991
   75MOL   C36828636   0.784   5.775   6.958 -0.0987 -0.6072  0.3137
   75MOL   O36928637   0.257   5.618   6.903  0.7720 -0.1677  0.0916
   75MOL   H37028638   0.111   5.770   7.017 -0.3759 -0.6394 -1.1318
   75MOL   H37128639   0.206   5.919   7.015 -0.7875  2.6271 -3.3318
   75MOL   H37228640   0.307   5.790   6.804  1.2232 -0.5771 -0.8330
   75MOL   H37328641   0.418   5.878   7.040 -2.6639 -0.9528  1.4259
   75MOL   H37428642   0.420   5.700   7.071  1.3450 -0.9938 -1.3498
   75MOL   H37528643   0.544   5.663   6.886  0.6073  0.0674 -0.0826
   75MOL   H37628644   0.537   5.844   6.848  3.2022  0.2085  0.6756
   75MOL   H37728645   0.647   5.880   7.077 -0.4559  0.2425 -1.0063
   75MOL   H37828646   0.646   5.706   7.100 -4.1822 -0.9458 -2.1229
   75MOL   H37928647   0.857   5.831   7.018 -3.1365  1.6641  2.0821
   75MOL   H38028648   0.821   5.672   6.957 -0.2391 -0.6510 -0.1600
   75MOL   H38128649   0.781   5.823   6.860  0.6785  0.7338  0.9206
   75MOL   H38228650   0.169   5.601   6.875  0.5993 -0.4495  0.7793
   76MOL     C128651   7.719   1.439   0.610 -0.0539  0.2731 -0.5065
   76MOL     C228652   7.716   1.311   0.531  0.2446 -0.8451  0.7054
   76MOL     C328653   7.694   1.339   0.379 -0.4642  0.0920  0.3055
   76MOL     C428654   7.646   1.222   0.297  0.1914 -0.1771 -0.2516
   76MOL     C528655   7.624   1.261   0.154 -0.2239  0.2086  0.1152
   76MOL     C628656   7.616   1.135   0.071  0.4510  1.0883 -0.2567
   76MOL     O728657   0.039   1.212   0.549  0.1325 -0.6546 -0.4235
   76MOL     H828658   7.631   1.501   0.595 -2.0616 -2.5360 -0.6335
   76MOL     H928659   0.020   1.495   0.574 -0.5871 -0.0611 -2.3576
   76MOL    H1028660   7.626   1.266   0.571 -0.4871 -0.0768 -0.0525
   76MOL    H1128661   7.620   1.418   0.367 -0.5695 -0.5510 -4.0742
   76MOL    H1228662   7.782   1.371   0.323 -1.2037  1.2930 -0.1723
   76MOL    H1328663   7.710   1.135   0.314  0.3483 -0.3279 -1.6128
   76MOL    H1428664   7.552   1.186   0.338  1.0189 -0.3073  1.5764
   76MOL    H1528665   7.529   1.313   0.153 -0.0945  0.4432  0.0437
   76MOL    H1628666   7.706   1.320   0.112 -0.5350  1.1371  0.8032
   76MOL    H1728667   7.548   1.067   0.123  2.1219  0.2660  0.9271
   76MOL    H1828668   7.583   1.163   7.757  0.4343  3.4510  0.3902
   76MOL    H1928669   7.711   1.082   0.063 -0.6337 -0.8422 -0.5417
   76MOL    H2028670   7.724   1.426   0.718  0.4189  0.0636 -0.5494
   76MOL    C2128671   0.050   1.161   0.680  0.3094  0.1604  0.8049
   76MOL    C2228672   0.139   1.033   0.675  0.1354  0.8516  0.5718
   76MOL    C2328673   0.211   1.023   0.811  0.2400  0.2967 -0.3156
   76MOL    C2428674   0.294   0.895   0.835 -0.6047  0.4862  0.1089
   76MOL    C2528675   0.331   0.871   0.985 -0.3270  0.1626 -0.8754
   76MOL    C2628676   0.421   0.743   1.002  0.0929 -0.3168  0.4488
   76MOL    O2728677   0.052   0.919   0.657  0.6098  0.1485 -0.4920
   76MOL    H2828678   0.104   1.241   0.729  2.0217  0.1208 -0.9547
   76MOL    H2928679   7.740   1.151   0.732 -0.9971 -0.0596 -1.5686
   76MOL    H3028680   0.203   1.046   0.587 -2.3367  2.8856 -1.0003
   76MOL    H3128681   0.144   1.029   0.897  0.3794 -2.5760  0.0276
   76MOL    H3228682   0.275   1.110   0.826 -0.4285  1.5970 -4.3996
   76MOL    H3328683   0.383   0.894   0.773 -1.9063  1.7408 -1.8562
   76MOL    H3428684   0.236   0.805   0.814  3.2837 -2.1331  0.0401
   76MOL    H3528685   0.394   0.944   1.036 -1.7605  1.6009 -1.1496
   76MOL    H3628686   0.240   0.854   1.042  0.6713  1.6156  1.1819
   76MOL    H3728687   0.463   0.726   1.102  2.2729 -0.2759 -0.4262
   76MOL    H3828688   0.508   0.754   0.937 -0.3721  0.0504 -0.1147
   76MOL    H3928689   0.369   0.653   0.971  2.1327 -1.4955  0.3385
   76MOL    C4028690   7.759   0.918   0.538  0.1080  0.8305 -0.3140
   76MOL    C4128691   7.703   0.776   0.515 -0.2454 -0.0419  0.5034
   76MOL    C4228692   7.671   0.773   0.365  0.6218 -0.1996  0.3891
   76MOL    C4328693   7.632   0.634   0.323 -0.3085 -0.2935 -0.2056
   76MOL    C4428694   7.614   0.637   0.172 -0.3833 -0.5974 -0.3581
   76MOL    C4528695   7.738   0.643   0.090 -0.3610 -0.3803 -0.0760
   76MOL    O4628696   7.584   0.779   0.591  0.8199  0.5472  0.3564
   76MOL    H4728697   0.033   0.956   0.456  0.6699 -0.2896 -0.4309
   76MOL    H4828698   7.676   0.989   0.543 -1.5512 -1.1621  1.2982
   76MOL    H4928699   7.781   0.708   0.547  0.7833  0.3030 -1.2397
   76MOL    H5028700   7.598   0.849   0.340  3.6250  2.5453 -0.4494
   76MOL    H5128701   7.759   0.790   0.301 -0.3965 -0.1770 -1.0286
   76MOL    H5228702   7.542   0.610   0.380 -1.0300  1.2907 -0.6660
   76MOL    H5328703   7.704   0.559   0.357  1.5030  2.6019  2.5934
   76MOL    H5428704   7.558   0.546   0.151 -1.1631 -0.1540 -0.1986
   76MOL    H5528705   7.557   0.725   0.139  0.2818  0.7102  1.8944
   76MOL    H5628706   7.723   0.625   7.769  0.8092 -2.4821  0.0808
   76MOL    H5728707   7.778   0.744   0.102 -0.5764 -0.4674  1.3726
   76MOL    H5828708   0.029   0.575   0.129  0.7447  1.1271  0.4367
   76MOL    C5928709   7.555   0.672   0.689  0.4820  0.6620  0.5033
   76MOL    C6028710   7.642   0.699   0.819 -0.1772 -0.4741  0.0367
   76MOL    C6128711   7.566   0.778   0.938 -0.6163  0.3137  0.4317
   76MOL    C6228712   7.651   0.803   1.056 -0.8147 -0.5834  0.1377
   76MOL    C6328713   7.572   0.855   1.174 -0.4551 -0.2346 -0.6856
   76MOL    C6428714   7.559   1.009   1.166 -0.3170 -0.2312  0.2173
   76MOL    O6528715   7.707   0.574   0.859  0.2880  0.3707 -0.5175
   76MOL    H6628716   7.581   0.573   0.653  0.2482  0.9090 -0.3776
   76MOL    H6728717   7.448   0.676   0.707  0.5163  0.6175  0.7155
   76MOL    H6828718   7.718   0.774   0.795  0.3413 -0.7661  0.7519
   76MOL    H6928719   7.486   0.710   0.968  1.2780 -1.7734  0.8697
   76MOL    H7028720   7.534   0.872   0.892  3.2099  0.4780 -2.1628
   76MOL    H7128721   7.734   0.866   1.024 -0.8850 -0.6329 -0.1450
   76MOL    H7228722   7.691   0.708   1.090  2.0895  0.8177  0.8462
   76MOL    H7328723   7.622   0.837   1.269 -0.0713 -2.0278 -1.2156
   76MOL    H7428724   7.473   0.810   1.171  0.0897 -1.3780 -3.5969
   76MOL    H7528725   7.490   1.037   1.246  1.1038 -0.8085  1.6633
   76MOL    H7628726   7.656   1.050   1.194  0.4316 -0.5010 -1.8656
   76MOL    H7728727   7.519   1.043   1.071  0.7642 -0.7092 -0.4189
   76MOL    C7828728   0.057   0.542   0.805  0.2524 -0.0553 -0.4346
   76MOL    C7928729   0.065   0.407   0.731 -0.1350  0.2440 -0.1973
   76MOL    C8028730   7.740   0.306   0.783  0.4980 -0.2308  0.0560
   76MOL    C8128731   7.755   0.162   0.741  0.1735  0.7717 -0.6271
   76MOL    C8228732   7.636   0.075   0.775  0.1769  0.2994  0.4424
   76MOL    C8328733   7.629   0.045   0.931 -0.1943  0.1627  0.1739
   76MOL    O8428734   0.188   0.341   0.758  0.0820  0.5301 -0.6343
   76MOL    H8528735   0.132   0.544   0.885  0.0581  0.9755 -0.2680
   76MOL    H8628736   0.084   0.628   0.743 -0.1019  0.2422 -0.1849
   76MOL    H8728737   0.046   0.411   0.624 -1.6589 -2.7066 -0.0896
   76MOL    H8828738   7.748   0.307   0.892  0.2922  3.4821  0.0959
   76MOL    H8928739   7.640   0.345   0.764  0.2489 -0.2100  1.3645
   76MOL    H9028740   0.063   0.129   0.788 -0.3297 -0.3543 -0.4098
   76MOL    H9128741   7.759   0.159   0.632  3.1297  1.9624 -0.6198
   76MOL    H9228742   7.550   0.133   0.743  0.5066 -0.9938 -2.9069
   76MOL    H9328743   7.644   7.768   0.718 -0.5043 -0.2161  1.1767
   76MOL    H9428744   7.624   0.132   0.997 -0.6270 -0.1264  0.5341
   76MOL    H9528745   7.720   7.776   0.955  0.1257  0.5348 -0.2055
   76MOL    H9628746   7.548   7.762   0.955 -0.4894  0.3716 -0.2141
   76MOL    C9728747   0.296   0.406   0.693  0.4089 -0.0615 -0.3886
   76MOL    C9828748   0.362   0.295   0.613 -0.2536  0.1031 -0.1958
   76MOL    C9928749   0.473   0.346   0.518 -0.3058  0.0888  0.1744
   76MOL   C10028750   0.528   0.236   0.430 -0.1778  0.0613  0.6200
   76MOL   C10128751   0.676   0.260   0.389 -0.4982  0.4252 -0.0204
   76MOL   C10228752   0.789   0.224   0.492  0.6197 -0.3447 -0.1199
   76MOL   O10328753   0.420   0.201   0.697 -0.2502 -0.1994 -0.1645
   76MOL   H10428754   0.366   0.448   0.765  2.2954 -1.7057 -1.2147
   76MOL   H10528755   0.268   0.480   0.619 -1.9019  1.2759  1.7351
   76MOL   H10628756   0.288   0.244   0.551 -0.0999 -0.1007 -0.2126
   76MOL   H10728757   0.550   0.396   0.578  0.7958 -0.5479 -0.7163
   76MOL   H10828758   0.432   0.430   0.461  0.9129  1.2546  0.9734
   76MOL   H10928759   0.465   0.240   0.342  0.4213  0.5911  0.2100
   76MOL   H11028760   0.528   0.138   0.478 -0.7320 -0.8359 -1.1582
   76MOL   H11128761   0.678   0.364   0.356  0.3310  1.7294  3.8570
   76MOL   H11228762   0.682   0.200   0.298 -0.7939 -2.3220  1.7024
   76MOL   H11328763   0.875   0.194   0.433 -0.2578  0.9809 -2.1318
   76MOL   H11428764   0.814   0.315   0.547 -0.6319  0.7233 -1.2841
   76MOL   H11528765   0.756   0.146   0.560 -1.6587 -0.9682 -1.8643
   76MOL   C11628766   0.343   0.078   0.700  0.4830  0.0243 -0.3555
   76MOL   C11728767   0.367   0.004   0.829 -0.8011 -0.1791  0.1136
   76MOL   C11828768   0.346   7.640   0.811 -0.0657 -0.5482  0.4003
   76MOL   C11928769   0.201   7.599   0.831 -0.1782 -0.2413  0.5867
   76MOL   C12028770   0.191   7.452   0.784 -0.5786  0.1551 -0.0483
   76MOL   C12128771   0.046   7.405   0.753 -0.3683 -1.2220  0.1184
   76MOL   O12228772   0.284   0.056   0.931  0.2480  0.2147  0.0212
   76MOL   H12328773   0.237   0.099   0.711  0.3696 -1.4136  1.6471
   76MOL   H12428774   0.375   0.031   0.608 -0.2490 -1.1597 -0.0120
   76MOL   H12528775   0.474   0.009   0.848 -1.0683 -0.2625  1.7014
   76MOL   H12628776   0.381   7.606   0.713 -1.4328 -1.0857  0.0914
   76MOL   H12728777   0.416   7.591   0.879 -0.0836  0.3463  1.0810
   76MOL   H12828778   0.146   7.663   0.762  0.3569  0.0969  0.4724
   76MOL   H12928779   0.151   7.617   0.926 -1.1171  0.0522  0.0405
   76MOL   H13028780   0.238   7.434   0.687  1.8701 -1.8656  1.4484
   76MOL   H13128781   0.250   7.383   0.844 -2.4673 -0.0694  1.6021
   76MOL   H13228782   0.015   7.451   0.660 -2.5917 -2.4057  0.2342
   76MOL   H13328783   0.038   7.297   0.738 -2.2051 -1.3396  1.7151
   76MOL   H13428784   7.756   7.432   0.826  0.2859  1.5472 -0.1807
   76MOL   C13528785   0.357   0.138   1.016 -0.3961 -0.4246  0.5696
   76MOL   C13628786   0.268   0.205   1.128  0.0415 -0.6890 -0.3929
   76MOL   C13728787   0.299   0.354   1.157 -0.2816  0.0361 -0.0843
   76MOL   C13828788   0.200   0.415   1.257 -0.2729 -0.5536  0.1576
   76MOL   C13928789   0.214   0.572   1.284 -0.8341  0.0680  0.2556
   76MOL   C14028790   0.148   0.614   1.415  0.1015  0.3704  0.0593
   76MOL   O14128791   0.290   0.128   1.248 -0.0477  0.0751 -0.1963
   76MOL   H14228792   0.445   0.089   1.056 -0.3250  0.0048  0.9501
   76MOL   H14328793   0.393   0.230   0.969 -3.6175  0.9305  0.6522
   76MOL   H14428794   0.165   0.194   1.095 -0.3309  0.2592  0.4174
   76MOL   H14528795   0.402   0.367   1.191 -0.5614 -1.8173  1.6115
   76MOL   H14628796   0.295   0.404   1.061 -2.2629 -0.6312 -0.3838
   76MOL   H14728797   0.212   0.373   1.357 -1.2215  1.4280  1.1564
   76MOL   H14828798   0.099   0.386   1.230 -0.3614 -0.3738  0.2909
   76MOL   H14928799   0.166   0.627   1.203  0.0821  0.1091 -0.2582
   76MOL   H15028800   0.315   0.611   1.292  0.5238 -3.1926 -0.2741
   76MOL   H15128801   0.223   0.591   1.491 -0.0768  1.6261  0.6221
   76MOL   H15228802   0.154   0.722   1.403  0.0344  0.2353 -1.2878
   76MOL   H15328803   0.045   0.578   1.417 -0.0058  0.5761 -1.3161
   76MOL   C15428804   0.211   0.010   1.265 -0.3204  0.6946  0.3806
   76MOL   C15528805   0.275   7.700   1.371 -0.1701 -0.0128 -0.0341
   76MOL   C15628806   0.273   7.760   1.510 -0.4712 -0.0372  0.1406
   76MOL   C15728807   0.348   7.683   1.617 -0.0771 -0.1358  0.1478
   76MOL   C15828808   0.328   7.735   1.758 -0.0047 -0.7700  0.0837
   76MOL   C15928809   0.381   7.636   1.863  0.1877 -0.3881 -0.0567
   76MOL   O16028810   0.211   7.575   1.358  0.0878 -0.5089 -0.0135
   76MOL   H16128811   0.204   7.742   1.170  3.5129  0.7732 -0.0096
   76MOL   H16228812   0.111   0.036   1.300 -0.6842 -1.1646  0.7691
   76MOL   H16328813   0.379   7.686   1.339  0.2589 -0.7110  1.6190
   76MOL   H16428814   0.169   7.759   1.541 -0.4681 -0.3642  0.1425
   76MOL   H16528815   0.310   0.076   1.502 -3.6573  1.2354  0.8118
   76MOL   H16628816   0.454   7.669   1.597 -0.5466 -0.0584 -2.5571
   76MOL   H16728817   0.318   7.579   1.610  1.7825 -0.6685 -0.2547
   76MOL   H16828818   0.375   0.048   1.758 -0.9444 -0.3212  0.1095
   76MOL   H16928819   0.221   7.753   1.766  0.0397  0.3797 -1.6073
   76MOL   H17028820   0.296   7.574   1.894  0.8435 -0.0627  2.4822
   76MOL   H17128821   0.442   7.679   1.941  1.2195 -0.0178 -1.0488
   76MOL   H17228822   0.464   7.576   1.824  1.1893 -0.0684  1.5655
   76MOL   C17328823   0.258   7.485   1.263 -0.1277 -0.2227  0.1897
   76MOL   C17428824   0.182   7.349   1.288  0.0853  0.4639 -0.1795
   76MOL   C17528825   0.217   7.288   1.430  0.3332  0.1416  0.2161
   76MOL   C17628826   0.112   7.186   1.482  0.2925 -0.6798  0.3133
   76MOL   C17728827   0.157   7.118   1.614 -0.0188  0.7693 -0.4112
   76MOL   C17828828   0.045   7.054   1.696  0.3687  0.3259 -0.4692
   76MOL   O17928829   0.040   7.368   1.285 -0.0166  0.0840 -0.5155
   76MOL   H18028830   0.364   7.467   1.250 -0.0188 -0.3433  1.2031
   76MOL   H18128831   0.232   7.518   1.162  0.9567  2.4390  0.7422
   76MOL   H18228832   0.223   7.290   1.205  0.0668 -0.1640  0.2504
   76MOL   H18328833   0.313   7.236   1.437 -0.1551 -0.7695  0.1713
   76MOL   H18428834   0.220   7.368   1.504 -0.0777 -0.5813  1.0298
   76MOL   H18528835   0.028   7.250   1.507  0.8670  0.9244 -1.7095
   76MOL   H18628836   0.099   7.110   1.404  2.2744 -0.3103 -0.4045
   76MOL   H18728837   0.232   7.040   1.605 -1.9656 -1.5119  2.3243
   76MOL   H18828838   0.212   7.182   1.684 -0.5943  2.1262 -1.1660
   76MOL   H18928839   0.088   6.999   1.780 -2.0595  0.6429  1.0351
   76MOL   H19028840   7.776   6.987   1.630  1.4351 -0.7044 -0.3169
   76MOL   H19128841   7.754   7.129   1.714  0.5186  0.2446  0.5545
   76MOL   C19228842   7.782   7.417   1.159 -0.8237  0.0136 -1.4608
   76MOL   C19328843   7.632   7.448   1.177 -0.1929  0.1056 -0.5955
   76MOL   C19428844   7.555   7.421   1.051 -0.7637  0.6862  0.3628
   76MOL   C19528845   7.400   7.422   1.068 -0.0957 -0.2294  0.8188
   76MOL   C19628846   7.331   7.397   0.937  0.0465 -0.2767  1.1902
   76MOL   C19728847   7.177   7.397   0.957 -0.2047 -0.5656  0.2701
   76MOL   O19828848   7.600   7.580   1.229  0.1403  0.4411  0.0817
   76MOL   H19928849   0.047   7.503   1.114  0.0661  0.8709  1.0736
   76MOL   H20028850   0.001   7.333   1.089 -1.4804 -0.8759 -0.4566
   76MOL   H20128851   7.588   7.375   1.245 -2.2432  3.5804  1.9672
   76MOL   H20228852   7.596   7.478   0.968 -0.1576 -1.6446 -1.0058
   76MOL   H20328853   7.592   7.321   1.027  1.8498  1.8306 -0.6558
   76MOL   H20428854   7.375   7.521   1.104  1.6447  0.9066 -0.9661
   76MOL   H20528855   7.380   7.351   1.147  0.0507 -1.5533 -0.3098
   76MOL   H20628856   7.373   7.461   0.860 -1.0760 -1.2686 -0.2771
   76MOL   H20728857   7.343   7.292   0.909  2.5703  0.5621 -1.1030
   76MOL   H20828858   7.131   7.356   0.867 -2.2091  0.5264  0.7719
   76MOL   H20928859   7.148   7.339   1.044 -0.4715  2.2659  2.1340
   76MOL   H21028860   7.152   7.503   0.966  1.4270 -0.2386  1.1655
   76MOL   C21128861   7.621   7.612   1.361 -0.0536 -0.4316 -0.4736
   76MOL   C21228862   7.581   7.760   1.383  0.0100  0.3354 -0.5637
   76MOL   C21328863   7.656   0.023   1.506  0.4133 -0.1953 -0.1939
   76MOL   C21428864   7.640   0.174   1.535 -0.3279 -0.4199  0.4553
   76MOL   C21528865   7.708   0.223   1.661  0.2863 -0.7351 -0.2927
   76MOL   C21628866   7.748   0.370   1.654 -0.0676 -0.1568 -0.0083
   76MOL   O21728867   7.436   7.783   1.389  0.0308 -0.0790  0.5809
   76MOL   H21828868   7.730   7.607   1.368  0.2023  3.4372 -0.3788
   76MOL   H21928869   7.568   7.544   1.428 -0.5808 -0.5976 -1.0603
   76MOL   H22028870   7.624   0.036   1.304  1.5124 -0.0316 -0.0446
   76MOL   H22128871   7.619   7.746   1.588 -1.8868  0.5206 -0.6373
   76MOL   H22228872   7.764   0.009   1.499  0.7237  3.1408 -3.2409
   76MOL   H22328873   7.686   0.223   1.448 -1.9078  0.8944  0.3297
   76MOL   H22428874   7.539   0.215   1.536  0.5828  1.9236  0.2214
   76MOL   H22528875   7.650   0.201   1.751 -1.1188 -1.2257 -1.3035
   76MOL   H22628876   0.013   0.166   1.677  0.9424  0.1773 -0.7089
   76MOL   H22728877   0.056   0.385   1.599 -0.0304 -1.5523 -0.3298
   76MOL   H22828878   7.777   0.408   1.752 -0.1344 -2.3744  0.9064
   76MOL   H22928879   7.669   0.430   1.608  0.8931  2.0562  1.1410
   76MOL   C23028880   7.373   7.747   1.269  0.1292 -0.4460 -0.6738
   76MOL   C23128881   7.243   0.054   1.249  0.0287 -0.1084  0.2060
   76MOL   C23228882   7.185   0.045   1.106 -0.9930  0.8947 -0.5817
   76MOL   C23328883   7.063   0.130   1.066  0.7570 -0.3117  0.4809
   76MOL   C23428884   7.020   0.105   0.924  0.1932 -1.2073 -0.5857
   76MOL   C23528885   6.915   0.199   0.867 -0.3136 -0.4638 -0.2484
   76MOL   O23628886   7.289   0.189   1.239  0.0752 -0.5676 -0.3723
   76MOL   H23728887   7.425   7.756   1.174 -1.8309  0.9870 -1.6236
   76MOL   H23828888   7.331   7.647   1.280 -0.1838 -0.5461 -2.6870
   76MOL   H23928889   7.172   0.025   1.326 -2.2999 -1.3456 -2.3292
   76MOL   H24028890   7.155   7.728   1.083  2.0052  0.2137 -1.5845
   76MOL   H24128891   7.259   0.064   1.028 -0.3359  0.2723 -0.1109
   76MOL   H24228892   7.097   0.229   1.095  0.4064  0.2514 -0.9906
   76MOL   H24328893   6.980   0.101   1.130 -0.4946  0.8936 -0.5801
   76MOL   H24428894   7.109   0.125   0.865  0.5719  1.5568  0.8364
   76MOL   H24528895   6.993   7.785   0.912 -2.2350 -0.9539  2.1622
   76MOL   H24628896   6.910   0.299   0.909  1.5268 -0.2100 -0.6085
   76MOL   H24728897   6.816   0.154   0.876 -0.8396  0.7282  0.0053
   76MOL   H24828898   6.937   0.216   0.762  1.6747  0.5125  0.3140
   76MOL   C24928899   7.228   0.295   1.324  0.0788 -0.4317  0.2808
   76MOL   C25028900   7.290   0.436   1.286 -0.0981 -0.2891 -0.0872
   76MOL   C25128901   7.262   0.538   1.397  0.2277  0.0495 -0.0924
   76MOL   C25228902   7.347   0.667   1.380  0.5166 -0.0937  0.3154
   76MOL   C25328903   7.352   0.752   1.511 -0.0772 -0.8344  0.0335
   76MOL   C25428904   7.416   0.891   1.500  0.1115  0.4492  0.0657
   76MOL   O25528905   7.232   0.483   1.168 -0.6475 -0.1969  0.1638
   76MOL   H25628906   7.119   0.288   1.326  0.0533 -0.6570 -1.4098
   76MOL   H25728907   7.260   0.279   1.427  0.5083 -2.2996 -0.1255
   76MOL   H25828908   7.397   0.434   1.267 -0.2223  0.9183 -0.9709
   76MOL   H25928909   7.164   0.571   1.430 -0.6925 -1.6905 -0.9722
   76MOL   H26028910   7.297   0.491   1.489  0.8013 -2.2035 -1.4059
   76MOL   H26128911   7.447   0.640   1.345  0.3242 -0.1776 -0.1770
   76MOL   H26228912   7.308   0.733   1.302  1.4345  1.0016  0.7793
   76MOL   H26328913   7.249   0.773   1.539  0.0049  1.0302 -1.0233
   76MOL   H26428914   7.407   0.700   1.590  1.4363 -0.3913 -0.7103
   76MOL   H26528915   7.405   0.950   1.590 -0.6569 -0.1009  0.3394
   76MOL   H26628916   7.361   0.956   1.432 -1.7695  0.1285  1.2568
   76MOL   H26728917   7.516   0.901   1.457  0.6124 -2.8187  0.3345
   76MOL   C26828918   7.306   0.450   1.050  0.0498  0.2406 -0.1532
   76MOL   C26928919   7.214   0.499   0.934  0.4921  0.2908  0.3765
   76MOL   C27028920   7.254   0.438   0.800 -0.1694  0.3916  0.2451
   76MOL   C27128921   7.164   0.491   0.681 -0.0885 -0.0828  0.3646
   76MOL   C27228922   7.169   0.398   0.553  0.4590  0.1695  0.0467
   76MOL   C27328923   7.302   0.364   0.492 -0.4488  0.0407  0.8950
   76MOL   O27428924   7.224   0.645   0.918  0.0845 -0.1384  0.3649
   76MOL   H27528925   7.335   0.345   1.046  1.9920  0.5907  3.2336
   76MOL   H27628926   7.399   0.507   1.051  0.6444 -0.6328 -2.0419
   76MOL   H27728927   7.112   0.465   0.951  0.3666 -0.1289 -1.0757
   76MOL   H27828928   7.357   0.464   0.777 -0.3623  0.3379 -0.7193
   76MOL   H27928929   7.245   0.330   0.805 -0.3470  0.4050  0.2267
   76MOL   H28028930   7.060   0.504   0.712 -0.5541  0.5828 -1.3868
   76MOL   H28128931   7.210   0.586   0.655  0.0678 -0.1172  0.5153
   76MOL   H28228932   7.141   0.300   0.592 -1.4996  1.8446  2.9679
   76MOL   H28328933   7.095   0.432   0.481 -0.5226 -3.6434 -0.8854
   76MOL   H28428934   7.309   0.282   0.421  0.9021  1.0068 -0.1114
   76MOL   H28528935   7.349   0.445   0.437  0.1611  0.1053  1.5097
   76MOL   H28628936   7.372   0.322   0.565  1.6409 -0.3826 -1.2930
   76MOL   C28728937   7.107   0.710   0.962  1.0814  0.1721  0.7464
   76MOL   C28828938   7.153   0.854   1.001 -0.8315 -0.0227  0.1444
   76MOL   C28928939   7.071   0.924   1.115 -0.2627 -0.6541  0.2408
   76MOL   C29028940   7.120   1.065   1.151  0.6356 -0.0108  0.3424
   76MOL   C29128941   7.017   1.155   1.213 -0.0716 -0.0559 -0.6661
   76MOL   C29228942   7.067   1.295   1.254  0.3702 -0.5695  0.2826
   76MOL   O29328943   7.145   0.942   0.887 -0.6623 -0.6810  0.3980
   76MOL   H29428944   7.069   0.670   1.055 -1.6601 -0.5257 -0.6245
   76MOL   H29528945   7.032   0.704   0.883  1.0567  0.4953  0.7441
   76MOL   H29628946   7.253   0.850   1.045 -0.4641  0.6442 -0.6142
   76MOL   H29728947   6.966   0.919   1.086 -0.4424  1.6497  0.4721
   76MOL   H29828948   7.080   0.854   1.198  0.6071 -0.1555  0.5709
   76MOL   H29928949   7.205   1.051   1.217 -0.1393 -2.1837  0.9278
   76MOL   H30028950   7.157   1.111   1.059 -2.9583 -1.6549 -2.0564
   76MOL   H30128951   6.974   1.108   1.302  2.0084  0.8373  0.8499
   76MOL   H30228952   6.936   1.168   1.141 -1.4281 -1.8181  0.4807
   76MOL   H30328953   6.998   1.347   1.320  0.6343  1.3173 -0.8984
   76MOL   H30428954   7.158   1.287   1.314 -0.4752  0.7590  1.7522
   76MOL   H30528955   7.104   1.349   1.167 -2.2815 -0.8885 -1.0849
   76MOL   C30628956   7.214   0.898   0.777 -0.3602  0.5304 -0.7680
   76MOL   C30728957   7.202   0.996   0.658  0.8720 -0.6261  0.5325
   76MOL   C30828958   7.233   0.939   0.520  1.1810  0.3674  0.3467
   76MOL   C30928959   7.206   1.025   0.392 -0.2278  0.2310  0.4358
   76MOL   C31028960   7.263   0.958   0.268 -0.4308  0.7704 -0.0022
   76MOL   C31128961   7.236   1.040   0.141 -0.6494 -0.6206 -0.4613
   76MOL   O31228962   7.291   1.109   0.671 -0.2112  0.5053  0.0008
   76MOL   H31328963   7.317   0.878   0.805 -0.6814  1.3899  1.1015
   76MOL   H31428964   7.188   0.798   0.742 -0.4028 -0.3006  1.5424
   76MOL   H31528965   7.101   1.037   0.657  1.0713 -0.0087 -3.4128
   76MOL   H31628966   7.167   0.853   0.507  0.3783  0.7170  2.0473
   76MOL   H31728967   7.341   0.928   0.527  1.1948  0.8779  0.9462
   76MOL   H31828968   7.098   1.029   0.399 -0.2981 -1.2149  0.3630
   76MOL   H31928969   7.256   1.121   0.407 -2.7020  1.3403  1.7620
   76MOL   H32028970   7.222   0.858   0.253  1.5458 -0.0287 -0.1950
   76MOL   H32128971   7.370   0.938   0.281 -0.5047  1.2344  1.4040
   76MOL   H32228972   7.128   1.047   0.124 -0.4335 -2.4218 -2.9557
   76MOL   H32328973   7.279   1.140   0.148  1.0298 -1.4101  0.7050
   76MOL   H32428974   7.276   0.990   0.053  0.4682 -0.2014 -0.1915
   76MOL   C32528975   7.276   1.191   0.787  0.7119 -0.3530  0.3531
   76MOL   C32628976   7.355   1.329   0.783 -0.1939 -0.2542 -0.3244
   76MOL   C32728977   7.350   1.394   0.920  0.0084 -0.1442 -0.1747
   76MOL   C32828978   7.437   1.519   0.940  0.8227 -0.0531 -0.7934
   76MOL   C32928979   7.418   1.586   1.079  0.3125  0.3281  0.0618
   76MOL   C33028980   7.270   1.631   1.100  0.1064  0.1843 -0.0603
   76MOL   O33128981   7.292   1.419   0.686 -0.3255 -0.5591  0.0379
   76MOL   H33228982   7.305   1.127   0.871  0.8252  0.8683  1.2674
   76MOL   H33328983   7.172   1.222   0.797  1.5342  2.5089  0.5453
   76MOL   H33428984   7.457   1.305   0.752 -0.4591  0.7786 -2.0312
   76MOL   H33528985   7.246   1.427   0.922 -0.3818 -1.3842  0.3149
   76MOL   H33628986   7.368   1.314   0.993  0.7201  0.1708 -0.0029
   76MOL   H33728987   7.544   1.502   0.926  0.9152 -0.7336  0.5973
   76MOL   H33828988   7.417   1.593   0.863  1.0590  2.0630  1.1021
   76MOL   H33928989   7.438   1.520   1.163  0.6570 -0.3390 -0.5435
   76MOL   H34028990   7.474   1.678   1.095 -1.5399  2.1901 -3.6020
   76MOL   H34128991   7.234   1.679   1.008 -0.9044  3.6946  2.0709
   76MOL   H34228992   7.194   1.553   1.105 -0.2163  0.3355 -2.0455
   76MOL   H34328993   7.255   1.699   1.184  1.7568  2.5473 -1.5903
   76MOL   C34428994   7.300   1.379   0.551 -0.5559  0.3656 -0.3596
   76MOL   C34528995   7.226   1.472   0.457  1.2290  0.0276  0.2080
   76MOL   C34628996   7.268   1.467   0.304 -0.8859  0.4955  0.4582
   76MOL   C34728997   7.154   1.544   0.221  0.5066  0.3887 -0.1659
   76MOL   C34828998   7.208   1.603   0.090  0.4797 -0.5185 -0.1725
   76MOL   C34928999   7.200   1.507   7.757 -0.1527  0.1500 -0.6802
   76MOL   O35029000   7.085   1.436   0.461  0.0724  0.1628  1.0945
   76MOL   H35129001   7.260   1.281   0.525  0.8940 -0.3571  0.0847
   76MOL   H35229002   7.406   1.370   0.528 -0.0329  0.6902  1.7815
   76MOL   H35329003   7.239   1.574   0.492 -0.4521  0.3342 -0.0330
   76MOL   H35429004   7.281   1.361   0.282 -1.1189  0.6402 -0.3800
   76MOL   H35529005   7.362   1.520   0.290 -1.2089  0.8978 -0.1860
   76MOL   H35629006   7.114   1.621   0.287  1.4742 -0.7772  1.8027
   76MOL   H35729007   7.069   1.481   0.197  1.6100 -0.5840 -1.5973
   76MOL   H35829008   7.306   1.641   0.118  0.3110 -0.2865  0.1129
   76MOL   H35929009   7.144   1.686   0.058 -3.2291 -0.9951  5.2145
   76MOL   H36029010   7.104   1.522   7.708  0.0348 -0.8999 -1.3796
   76MOL   H36129011   7.197   1.405   0.011 -0.4271 -1.0236 -3.6132
   76MOL   H36229012   7.287   1.517   7.692 -0.8303  1.0487 -1.4651
   76MOL   C36329013   7.018   1.476   0.572 -0.2123 -0.4901 -0.2319
   76MOL   C36429014   6.935   1.362   0.617  0.6729  0.3335 -0.0348
   76MOL   C36529015   6.855   1.404   0.737 -0.3989 -0.1494  1.0340
   76MOL   C36629016   6.784   1.275   0.798  0.0799  0.3131 -0.7824
   76MOL   C36729017   6.733   1.300   0.943 -0.2605 -0.1736  0.1512
   76MOL   C36829018   6.606   1.392   0.960  0.5712 -0.1492  0.4659
   76MOL   O36929019   6.848   1.319   0.511 -0.4333  0.0786  0.1730
   76MOL   H37029020   6.951   1.553   0.534 -0.1219 -0.7562 -0.9331
   76MOL   H37129021   7.075   1.509   0.659 -0.4151 -2.4633  0.6660
   76MOL   H37229022   7.002   1.280   0.643  0.4705  0.1566 -0.0645
   76MOL   H37329023   6.921   1.442   0.815 -0.3082  1.4457  0.1948
   76MOL   H37429024   6.778   1.478   0.717 -1.5861 -2.0891 -2.0548
   76MOL   H37529025   6.708   1.236   0.730  2.6633 -2.5855 -2.1556
   76MOL   H37629026   6.854   1.191   0.800 -0.1849  0.1216  1.0278
   76MOL   H37729027   6.705   1.206   0.991 -0.2679  0.3004  1.0723
   76MOL   H37829028   6.806   1.332   1.016  1.5901  0.8926 -2.1020
   76MOL   H37929029   6.573   1.404   1.064 -2.8939 -0.6974 -0.5066
   76MOL   H38029030   6.632   1.494   0.933  1.3090 -0.1164  1.2747
   76MOL   H38129031   6.524   1.358   0.896  2.3131 -1.3378 -1.1630
   76MOL   H38229032   6.886   1.353   0.431  0.0720 -1.5329 -0.2936
   77MOL     C129033   6.453   6.605   5.754 -0.5656  0.3295 -0.7824
   77MOL     C229034   6.451   6.733   5.674 -0.6168  0.5235  0.5788
   77MOL     C329035   6.358   6.717   5.553 -0.2451  0.0723  1.0462
   77MOL     C429036   6.210   6.679   5.594 -0.5415  0.0843 -0.4347
   77MOL     C529037   6.113   6.651   5.482 -0.5240 -0.3633  0.3172
   77MOL     C629038   5.977   6.603   5.531  0.0229 -0.4117 -0.3737
   77MOL     O729039   6.392   6.832   5.758  0.0829 -0.1164 -0.5647
   77MOL     H829040   6.422   6.522   5.691 -1.9995  0.3388 -0.1235
   77MOL     H929041   6.382   6.626   5.834 -0.1615  0.3054 -0.4179
   77MOL    H1029042   6.548   6.763   5.632 -0.9366 -0.1444 -0.6329
   77MOL    H1129043   6.354   6.815   5.506  1.2672 -0.5135 -0.3400
   77MOL    H1229044   6.398   6.650   5.476 -1.6598  0.7273 -0.2744
   77MOL    H1329045   6.217   6.593   5.661  1.4501 -0.4955 -1.3571
   77MOL    H1429046   6.170   6.759   5.657  3.0030  0.6998  1.1753
   77MOL    H1529047   6.096   6.733   5.412 -1.4673 -0.4572  0.4297
   77MOL    H1629048   6.158   6.575   5.418  1.2592  0.9158  0.0200
   77MOL    H1729049   5.923   6.548   5.454 -1.7668  1.3673 -0.4257
   77MOL    H1829050   6.002   6.531   5.609  4.1412  0.4144 -0.7910
   77MOL    H1929051   5.916   6.689   5.557  0.7036 -0.7868  2.7182
   77MOL    H2029052   6.548   6.575   5.797 -1.4411 -0.0942  0.9125
   77MOL    C2129053   6.483   6.902   5.834 -0.3887  0.0782 -0.1071
   77MOL    C2229054   6.412   6.981   5.951  0.0689  0.1176  0.4205
   77MOL    C2329055   6.505   7.003   6.068 -0.1098  0.4396 -0.0577
   77MOL    C2429056   6.442   7.057   6.201 -0.5732  0.4804  0.3808
   77MOL    C2529057   6.532   7.059   6.324 -0.2627  0.4968  0.2059
   77MOL    C2629058   6.449   7.090   6.448  1.1929  0.2289 -0.4097
   77MOL    O2729059   6.372   7.110   5.920  0.6105 -0.3475 -0.1772
   77MOL    H2829060   6.549   6.830   5.882 -0.5329  0.4256  0.6379
   77MOL    H2929061   6.547   6.969   5.776  0.1845 -0.2630  0.1323
   77MOL    H3029062   6.326   6.926   5.988 -0.1336 -0.2562 -0.6088
   77MOL    H3129063   6.575   7.077   6.028 -0.5729  0.4393 -0.8852
   77MOL    H3229064   6.558   6.909   6.081  1.9287  1.6387  0.6020
   77MOL    H3329065   6.366   6.985   6.231  2.1679 -1.7930  2.1083
   77MOL    H3429066   6.398   7.157   6.199  0.6813  1.0246 -2.1321
   77MOL    H3529067   6.588   6.967   6.340 -2.5401 -0.6093  2.0406
   77MOL    H3629068   6.614   7.131   6.314  1.6635 -1.6921 -0.2317
   77MOL    H3729069   6.396   7.002   6.485  0.8496 -0.0320 -1.5143
   77MOL    H3829070   6.372   7.164   6.426 -1.0352 -1.7082  0.6533
   77MOL    H3929071   6.514   7.129   6.526  1.4310 -0.9818 -0.0011
   77MOL    C4029072   6.281   7.110   5.813 -0.4013 -0.0117  0.3303
   77MOL    C4129073   6.236   7.257   5.802  0.5797 -0.6689  0.6253
   77MOL    C4229074   6.350   7.332   5.732  0.1592 -0.6491  0.6172
   77MOL    C4329075   6.309   7.485   5.703  0.2262  0.2555  0.2620
   77MOL    C4429076   6.419   7.554   5.619  0.6939  1.3734  0.0181
   77MOL    C4529077   6.415   7.510   5.466  0.0331 -0.1250  0.3474
   77MOL    O4629078   6.221   7.313   5.932 -0.0355 -0.4033  0.2002
   77MOL    H4729079   6.196   7.048   5.842  1.0620 -1.6404  1.2854
   77MOL    H4829080   6.325   7.070   5.722  0.9233 -1.1664  1.4632
   77MOL    H4929081   6.146   7.269   5.742  0.8250 -1.2363  0.1372
   77MOL    H5029082   6.436   7.322   5.797  0.6568 -2.2721 -0.2667
   77MOL    H5129083   6.376   7.277   5.642 -0.9232  0.7978 -0.6105
   77MOL    H5229084   6.306   7.537   5.799  4.2850 -2.1153  1.8031
   77MOL    H5329085   6.213   7.490   5.651  0.4556  1.1621 -0.0827
   77MOL    H5429086   6.425   7.661   5.636 -1.0954  1.6550 -1.0308
   77MOL    H5529087   6.513   7.514   5.657 -0.8202 -1.7321  0.6865
   77MOL    H5629088   6.395   7.403   5.471 -0.3606 -0.0658  0.0824
   77MOL    H5729089   6.330   7.561   5.421  0.1035  1.1461  1.6139
   77MOL    H5829090   6.506   7.541   5.415 -0.3604 -0.1790 -0.3975
   77MOL    C5929091   6.089   7.288   5.988 -0.1974  0.4173 -0.1697
   77MOL    C6029092   5.992   7.402   5.937  0.1801  0.4102 -0.0836
   77MOL    C6129093   5.839   7.354   5.929 -0.7064 -0.1707  0.1485
   77MOL    C6229094   5.739   7.461   5.881 -0.9054  0.2205  0.0363
   77MOL    C6329095   5.743   7.491   5.733  0.1327 -0.2350  0.2664
   77MOL    C6429096   5.704   7.374   5.641 -0.2020 -0.1002 -0.3814
   77MOL    O6529097   5.998   7.507   6.036 -0.3835 -0.3850 -0.3574
   77MOL    H6629098   6.093   7.309   6.095  1.6817 -1.7149  0.2084
   77MOL    H6729099   6.050   7.187   5.972  0.1052  0.1571  0.7073
   77MOL    H6829100   6.026   7.445   5.843 -0.0650  1.1576  0.1655
   77MOL    H6929101   5.797   7.317   6.023  3.0785 -2.4894  1.0411
   77MOL    H7029102   5.842   7.265   5.867  0.2273 -1.2750  1.7398
   77MOL    H7129103   5.753   7.558   5.928  0.2813  0.8554 -1.5850
   77MOL    H7229104   5.640   7.425   5.909 -1.7669  0.5403 -2.4644
   77MOL    H7329105   5.844   7.524   5.710 -0.2207 -0.4970 -1.7668
   77MOL    H7429106   5.675   7.571   5.707 -0.3360 -0.1527  1.6726
   77MOL    H7529107   5.724   7.397   5.536  2.6535 -0.3035  0.0739
   77MOL    H7629108   5.741   7.277   5.673  0.3445  0.3562  0.3945
   77MOL    H7729109   5.596   7.366   5.643 -0.1267 -1.8334 -2.3572
   77MOL    C7829110   6.093   7.606   5.984 -0.8059  0.6732 -0.4226
   77MOL    C7929111   6.088   7.725   6.079  1.0199  0.4672 -0.0392
   77MOL    C8029112   5.945   0.001   6.050 -0.4943 -0.5160  0.0453
   77MOL    C8129113   5.929   0.134   6.140  0.8387  1.1620  0.2479
   77MOL    C8229114   5.784   0.189   6.124  0.4703 -0.0951  0.6394
   77MOL    C8329115   5.762   0.254   5.988  0.0345 -0.3315  0.2569
   77MOL    O8429116   6.183   0.036   6.036  0.7920 -0.3608  0.2379
   77MOL    H8529117   6.079   7.636   5.880  1.0727  1.9966 -0.3122
   77MOL    H8629118   6.192   7.560   5.980 -0.9191  0.3827  0.1081
   77MOL    H8729119   6.091   7.701   6.185 -1.5484  1.8983  0.3866
   77MOL    H8829120   5.934   0.029   5.945 -2.5792 -0.3407  0.2970
   77MOL    H8929121   5.872   7.708   6.065 -1.0435 -0.7874 -3.6670
   77MOL    H9029122   6.005   0.202   6.102 -0.0869 -0.1248 -4.2343
   77MOL    H9129123   5.950   0.117   6.245 -0.8024 -0.6929  0.3141
   77MOL    H9229124   5.715   0.105   6.135  0.1391  0.0905 -0.0146
   77MOL    H9329125   5.753   0.259   6.202  0.2446  3.1387 -2.2574
   77MOL    H9429126   5.675   0.319   5.996 -0.2310 -0.8619  1.7019
   77MOL    H9529127   5.744   0.186   5.905  1.8368 -0.9723  0.3851
   77MOL    H9629128   5.849   0.315   5.963  0.9644 -1.0780  1.5994
   77MOL    C9729129   6.271   0.089   6.135 -0.0659 -0.2555  0.4438
   77MOL    C9829130   6.355   0.205   6.088 -0.3736 -0.7638 -0.7212
   77MOL    C9929131   6.384   0.302   6.210  0.2609 -0.4783 -0.2957
   77MOL   C10029132   6.456   0.428   6.165  0.1076  0.3986 -0.3289
   77MOL   C10129133   6.514   0.523   6.271 -0.5791 -0.3794 -0.2210
   77MOL   C10229134   6.594   0.641   6.220  0.1291  0.2371  0.1666
   77MOL   O10329135   6.473   0.168   6.014  0.4015  0.6186 -0.3374
   77MOL   H10429136   6.321   7.785   6.173 -1.3663 -2.1769 -2.1962
   77MOL   H10529137   6.207   0.134   6.210 -0.3078 -1.5165  1.0083
   77MOL   H10629138   6.288   0.254   6.016 -2.0305 -1.5908  0.2233
   77MOL   H10729139   6.460   0.253   6.272  2.3861  1.1608 -1.5135
   77MOL   H10829140   6.299   0.323   6.274 -0.1285  0.6214 -1.1684
   77MOL   H10929141   6.389   0.483   6.099  0.0605 -1.5084 -1.9002
   77MOL   H11029142   6.545   0.397   6.110 -0.6066 -1.7115 -0.3139
   77MOL   H11129143   6.583   0.471   6.338  0.7314  0.0879 -1.1837
   77MOL   H11229144   6.430   0.553   6.334 -1.5863 -1.6214 -0.9243
   77MOL   H11329145   6.530   0.703   6.157 -0.3780  1.8386  2.2139
   77MOL   H11429146   6.615   0.706   6.305 -0.1519  0.1687  0.2905
   77MOL   H11529147   6.681   0.602   6.167 -0.0405 -1.7223  1.2969
   77MOL   C11629148   6.439   0.086   5.905 -0.4866  0.1331 -0.0960
   77MOL   C11729149   6.570   0.077   5.826  0.6839  0.5222  0.1721
   77MOL   C11829150   6.695   0.022   5.902  0.5126 -0.7558  0.4506
   77MOL   C11929151   6.810   7.772   5.804  0.2563  0.3638  0.1460
   77MOL   C12029152   6.925   7.700   5.870  0.9115 -0.0471  0.4144
   77MOL   C12129153   7.050   7.672   5.784 -0.2138  0.3184  0.0568
   77MOL   O12229154   6.598   0.203   5.761  0.4524 -0.3733 -0.0524
   77MOL   H12329155   6.412   7.769   5.928  1.6620 -0.9759 -2.2777
   77MOL   H12429156   6.364   0.135   5.842 -0.1973  0.6436 -0.0450
   77MOL   H12529157   6.551   7.785   5.752 -3.6123  0.4791  1.1909
   77MOL   H12629158   6.718   0.093   5.982 -0.0504  1.1351 -1.0299
   77MOL   H12729159   6.661   7.718   5.954 -2.1780  0.4721  0.9266
   77MOL   H12829160   6.850   0.083   5.770 -1.1422  1.1980  0.8221
   77MOL   H12929161   6.772   7.723   5.715  1.5149  1.5667 -1.0876
   77MOL   H13029162   6.956   7.745   5.964  1.0522 -0.7691  0.7194
   77MOL   H13129163   6.895   7.597   5.891  0.6772 -0.4992 -2.0271
   77MOL   H13229164   7.080   7.763   5.732 -1.1885  0.9488  0.5861
   77MOL   H13329165   7.132   7.623   5.836 -1.9912  0.1224  2.8214
   77MOL   H13429166   7.029   7.598   5.707  0.8831 -0.1734  0.2249
   77MOL   C13529167   6.571   0.210   5.625 -0.4678 -0.2869 -0.1483
   77MOL   C13629168   6.454   0.296   5.598 -0.7604  0.9900 -0.2744
   77MOL   C13729169   6.399   0.296   5.454  0.4743  0.2661  0.1962
   77MOL   C13829170   6.285   0.396   5.421  0.3492  0.0494  0.7636
   77MOL   C13929171   6.197   0.362   5.298 -0.8168  0.2666 -0.4515
   77MOL   C14029172   6.053   0.421   5.300 -0.0791  0.1447  0.0138
   77MOL   O14129173   6.484   0.422   5.646 -0.0593  0.5429  0.3419
   77MOL   H14229174   6.662   0.244   5.577 -0.3832 -1.3979 -0.7778
   77MOL   H14329175   6.552   0.114   5.577  2.0414  0.0823 -1.9658
   77MOL   H14429176   6.364   0.260   5.649 -0.2631  0.2568  0.0841
   77MOL   H14529177   6.486   0.306   5.389  1.3221 -0.7538  1.1509
   77MOL   H14629178   6.358   0.197   5.436  1.7007  0.0265 -1.4324
   77MOL   H14729179   6.319   0.497   5.399 -1.0218  0.4127  0.2880
   77MOL   H14829180   6.218   0.415   5.505 -0.7770 -0.9153  0.0888
   77MOL   H14929181   6.189   0.254   5.306  4.0848 -0.0814  1.6239
   77MOL   H15029182   6.245   0.378   5.201  2.1368  0.0146  0.9158
   77MOL   H15129183   5.983   0.388   5.223  0.1534  0.3726 -0.2987
   77MOL   H15229184   5.993   0.397   5.387  0.4292 -2.4236 -0.2885
   77MOL   H15329185   6.050   0.529   5.288 -2.3919  0.1891  0.8268
   77MOL   C15429186   6.429   0.479   5.761 -0.0331  0.4477  0.6139
   77MOL   C15529187   6.475   0.617   5.775  0.0537 -0.1505 -0.1807
   77MOL   C15629188   6.378   0.710   5.853  0.3630  0.4211  0.1915
   77MOL   C15729189   6.426   0.860   5.846  0.1033  0.6150 -0.3444
   77MOL   C15829190   6.338   0.948   5.941  0.5470  0.0765 -0.0160
   77MOL   C15929191   6.401   1.089   5.950 -0.3333 -0.1650 -0.1952
   77MOL   O16029192   6.593   0.618   5.846  0.0788  0.0783 -0.2653
   77MOL   H16129193   6.473   0.414   5.837  1.0243  1.1677  0.6218
   77MOL   H16229194   6.321   0.468   5.757  0.0683  0.0196 -2.5450
   77MOL   H16329195   6.487   0.663   5.677  2.9055 -1.1741 -0.3496
   77MOL   H16429196   6.376   0.682   5.959  1.2351  0.1596  0.1440
   77MOL   H16529197   6.274   0.698   5.822  0.4061 -0.0791  0.2416
   77MOL   H16629198   6.423   0.886   5.740  2.2349 -0.9898 -0.8380
   77MOL   H16729199   6.527   0.880   5.881 -0.7963 -0.6068  3.1219
   77MOL   H16829200   6.233   0.958   5.911  1.0294  1.3762 -1.3427
   77MOL   H16929201   6.335   0.889   6.032 -2.3192  0.7939  0.4064
   77MOL   H17029202   6.397   1.125   5.847 -0.5931 -2.2822 -0.9443
   77MOL   H17129203   6.499   1.109   5.993 -0.2166  1.1821 -1.0688
   77MOL   H17229204   6.342   1.174   5.987 -2.9458 -0.9557 -2.3709
   77MOL   C17329205   6.712   0.610   5.770  0.4733 -0.0981  1.1133
   77MOL   C17429206   6.840   0.597   5.858  0.8647  0.1188  0.0231
   77MOL   C17529207   6.951   0.533   5.776 -0.3237  0.2510 -0.2971
   77MOL   C17629208   7.075   0.506   5.863  0.4025 -0.7991 -0.5098
   77MOL   C17729209   7.158   0.624   5.923  0.4915 -0.4279 -0.3242
   77MOL   C17829210   7.277   0.572   6.009  0.1443 -0.1637  0.3740
   77MOL   O17929211   6.876   0.736   5.887  0.0846 -0.4916  0.3672
   77MOL   H18029212   6.718   0.696   5.704 -1.0510  1.6673  3.2122
   77MOL   H18129213   6.702   0.523   5.704 -0.9669  0.2832  0.8118
   77MOL   H18229214   6.822   0.533   5.944  1.9878 -0.4685 -0.1629
   77MOL   H18329215   6.907   0.449   5.722 -1.3136 -0.0036  0.8974
   77MOL   H18429216   6.980   0.615   5.710 -0.1218  0.8058  0.4785
   77MOL   H18529217   7.043   0.431   5.935 -2.6081 -0.3009 -1.2682
   77MOL   H18629218   7.138   0.455   5.790  0.2580 -0.5952 -0.7753
   77MOL   H18729219   7.191   0.685   5.838  1.4040 -1.3051 -0.6123
   77MOL   H18829220   7.093   0.689   5.981  2.0266  0.0942  0.8400
   77MOL   H18929221   7.360   0.634   6.043 -0.5704  1.1755 -0.2915
   77MOL   H19029222   7.319   0.491   5.948 -2.0880 -1.2236  0.1794
   77MOL   H19129223   7.242   0.528   6.102 -0.8711  0.4951  0.3053
   77MOL   C19229224   6.805   0.801   5.991 -0.3862 -0.2400 -0.1953
   77MOL   C19329225   6.843   0.951   5.996  0.4431  0.5573 -1.0235
   77MOL   C19429226   6.800   1.001   6.138  0.5320  0.7699  0.2092
   77MOL   C19529227   6.826   1.146   6.147  0.2058  0.4985  0.3281
   77MOL   C19629228   6.812   1.204   6.290  0.7030 -0.1910  0.2158
   77MOL   C19729229   6.831   1.352   6.311 -0.4549  0.1328  0.0768
   77MOL   O19829230   6.766   1.027   5.897 -0.4785  0.0968  0.2405
   77MOL   H19929231   6.700   0.772   5.998 -0.7434  0.8770 -0.9427
   77MOL   H20029232   6.844   0.751   6.080  0.2477 -0.1035 -0.3946
   77MOL   H20129233   6.949   0.971   5.982  0.8355 -1.0342 -0.4083
   77MOL   H20229234   6.701   0.972   6.171  0.7244 -1.0797 -0.7554
   77MOL   H20329235   6.864   0.953   6.213 -0.9295 -2.2240 -0.3852
   77MOL   H20429236   6.750   1.197   6.087  0.6673  0.2188 -0.4971
   77MOL   H20529237   6.921   1.182   6.108 -0.7932  2.7749 -0.0848
   77MOL   H20629238   6.714   1.187   6.332 -1.0250  1.4738 -2.9752
   77MOL   H20729239   6.878   1.150   6.358 -0.4917  0.3612  1.8399
   77MOL   H20829240   6.931   1.394   6.300  0.1914 -1.4838 -0.3396
   77MOL   H20929241   6.761   1.409   6.250  0.9988  0.6906 -1.1022
   77MOL   H21029242   6.819   1.365   6.419  0.9009 -3.1883  0.6873
   77MOL   C21129243   6.817   1.014   5.766 -0.4351 -0.0262  0.5409
   77MOL   C21229244   6.725   1.092   5.666  0.2877  0.3764  0.5732
   77MOL   C21329245   6.711   1.041   5.529  0.8671  0.6234 -0.4355
   77MOL   C21429246   6.839   1.027   5.447  0.7362 -0.9420 -1.2149
   77MOL   C21529247   6.811   1.055   5.294 -0.4970 -0.5689 -0.0546
   77MOL   C21629248   6.931   1.059   5.203 -0.0940 -0.9394 -0.1249
   77MOL   O21729249   6.750   1.233   5.663 -0.1342  0.4327  0.1550
   77MOL   H21829250   6.829   0.911   5.732 -1.4208 -0.7682  2.3363
   77MOL   H21929251   6.917   1.055   5.759 -0.7784  0.6370 -0.7209
   77MOL   H22029252   6.621   1.080   5.695 -0.1853  0.3891 -1.0825
   77MOL   H22129253   6.645   0.955   5.536  1.7314 -0.0253 -0.1211
   77MOL   H22229254   6.651   1.118   5.480  1.1129 -1.7818 -4.7437
   77MOL   H22329255   6.917   1.086   5.494 -1.1642  0.5795  0.1227
   77MOL   H22429256   6.868   0.922   5.459 -2.1898 -1.8448 -1.6729
   77MOL   H22529257   6.738   0.988   5.247 -0.2321  0.2144 -1.6375
   77MOL   H22629258   6.765   1.153   5.280 -1.8677 -1.0599  0.8539
   77MOL   H22729259   6.989   1.148   5.225 -0.7460 -0.4958 -0.1989
   77MOL   H22829260   6.898   1.070   5.100  2.3687 -3.5657 -1.2602
   77MOL   H22929261   7.008   0.983   5.216  0.9925  0.0037 -1.0569
   77MOL   C23029262   6.723   1.302   5.782 -0.2105  0.3595 -0.5836
   77MOL   C23129263   6.701   1.455   5.751 -0.1149 -0.0548  0.0978
   77MOL   C23229264   6.753   1.543   5.868  0.4811  0.9712 -0.1060
   77MOL   C23329265   6.815   1.678   5.819 -0.0313  0.7961 -0.2475
   77MOL   C23429266   6.858   1.787   5.918  0.1057  0.4522  0.2355
   77MOL   C23529267   6.989   1.766   5.998  0.3240  0.1497  0.1902
   77MOL   O23629268   6.559   1.474   5.731  0.3473 -0.3397 -0.0256
   77MOL   H23729269   6.642   1.261   5.842  1.6354 -0.4153  1.4690
   77MOL   H23829270   6.814   1.290   5.842 -2.5238 -0.2652  2.9793
   77MOL   H23929271   6.759   1.477   5.661 -1.0265  1.7994 -0.0593
   77MOL   H24029272   6.831   1.494   5.926 -0.4746  0.8456  1.1180
   77MOL   H24129273   6.665   1.540   5.933  0.9168 -0.1501  0.4412
   77MOL   H24229274   6.755   1.731   5.746 -0.3349 -1.7967 -1.9484
   77MOL   H24329275   6.906   1.656   5.763 -0.0957 -0.2025  0.0196
   77MOL   H24429276   6.876   1.882   5.869  0.9617 -0.4691 -1.2674
   77MOL   H24529277   6.773   1.803   5.984 -1.1974  3.3002 -2.0459
   77MOL   H24629278   7.025   1.853   6.053 -2.8639  1.1191  0.8549
   77MOL   H24729279   7.069   1.732   5.932  1.1444  2.6831 -0.1788
   77MOL   H24829280   6.987   1.685   6.070 -0.8055 -0.1107 -0.1224
   77MOL   C24929281   6.523   1.561   5.622 -0.2439  0.2976 -0.0793
   77MOL   C25029282   6.532   1.494   5.482 -0.0283  1.0135 -0.4805
   77MOL   C25129283   6.555   1.603   5.385 -0.0551 -0.5332 -0.0104
   77MOL   C25229284   6.598   1.549   5.250 -0.3640 -0.3580  0.3138
   77MOL   C25329285   6.663   1.658   5.159  0.2295 -0.0793  0.2159
   77MOL   C25429286   6.705   1.608   5.011  0.6132 -0.9068  0.3339
   77MOL   O25529287   6.409   1.431   5.450 -0.1697  0.9113 -0.6295
   77MOL   H25629288   6.420   1.596   5.628 -0.4399  0.0189 -1.5733
   77MOL   H25729289   6.584   1.651   5.628 -0.5346  0.4708  0.3199
   77MOL   H25829290   6.617   1.426   5.483 -1.4336 -0.7339  1.3281
   77MOL   H25929291   6.467   1.667   5.374 -0.4989 -1.1308  0.0747
   77MOL   H26029292   6.632   1.674   5.415 -0.8075  0.0176  0.6250
   77MOL   H26129293   6.672   1.471   5.270 -2.4530 -2.0435  1.6489
   77MOL   H26229294   6.510   1.512   5.199 -0.7513  0.6102  0.2729
   77MOL   H26329295   6.594   1.741   5.150 -1.7730 -1.7184  0.0727
   77MOL   H26429296   6.743   1.695   5.223 -0.5269 -1.6451  2.0937
   77MOL   H26529297   6.628   1.549   4.961  0.8034  0.5614 -1.7791
   77MOL   H26629298   6.789   1.540   5.019  0.5086 -1.0264  0.4338
   77MOL   H26729299   6.741   1.692   4.952  0.6930  0.0183  1.6708
   77MOL   C26829300   6.382   1.313   5.527 -0.5551 -0.3725 -0.0405
   77MOL   C26929301   6.316   1.201   5.447  0.8232 -0.1336  0.5279
   77MOL   C27029302   6.244   1.093   5.530 -0.0067 -0.5569  0.3731
   77MOL   C27129303   6.193   0.964   5.452  0.3554 -0.0676  0.2643
   77MOL   C27229304   6.106   0.868   5.530  0.3782  0.0551  0.2032
   77MOL   C27329305   6.147   0.727   5.540  0.1025  0.6158  0.6393
   77MOL   O27429306   6.404   1.134   5.354 -0.5633 -0.2525 -0.2501
   77MOL   H27529307   6.316   1.344   5.608  1.6699 -0.9125  2.0555
   77MOL   H27629308   6.473   1.269   5.569  1.3933  1.7107 -1.9045
   77MOL   H27729309   6.239   1.250   5.388  1.8571 -1.9001 -2.4065
   77MOL   H27829310   6.327   1.055   5.590 -1.5115 -1.9411  1.6241
   77MOL   H27929311   6.170   1.131   5.600  1.9769  2.6144  0.8279
   77MOL   H28029312   6.135   0.997   5.366 -2.7661  0.8241  2.6211
   77MOL   H28129313   6.275   0.907   5.409 -0.0411  0.4065 -1.1231
   77MOL   H28229314   6.096   0.905   5.633  1.2101 -1.8468  0.9786
   77MOL   H28329315   6.000   0.875   5.508  0.7369 -0.8653 -1.8489
   77MOL   H28429316   6.069   0.672   5.593 -0.4002  1.3642  0.6875
   77MOL   H28529317   6.156   0.670   5.447  1.6743  1.1444  0.4591
   77MOL   H28629318   6.235   0.702   5.599  0.1592 -0.8914 -0.0465
   77MOL   C28729319   6.442   1.218   5.241  0.4078 -0.1736 -0.1743
   77MOL   C28829320   6.490   1.135   5.122 -0.3300  0.1750 -0.2099
   77MOL   C28929321   6.576   1.223   5.026  0.2413  0.3203 -0.2441
   77MOL   C29029322   6.635   1.145   4.905 -0.1625  0.3795  0.3129
   77MOL   C29129323   6.705   1.244   4.804  0.0531  0.6161  0.0373
   77MOL   C29229324   6.787   1.170   4.696 -0.8798  0.5167  0.8341
   77MOL   O29329325   6.374   1.095   5.049 -0.4958  0.5072 -0.2179
   77MOL   H29429326   6.522   1.280   5.281  0.9556 -0.4759 -0.8012
   77MOL   H29529327   6.362   1.281   5.201 -0.4201 -1.2543 -0.2588
   77MOL   H29629328   6.554   1.049   5.142  1.4678  2.0324  2.3467
   77MOL   H29729329   6.520   1.313   5.001  2.5839  2.7078  2.5812
   77MOL   H29829330   6.667   1.258   5.074  0.5207 -1.7114  0.7694
   77MOL   H29929331   6.702   1.067   4.942 -3.5787 -1.7112  2.3871
   77MOL   H30029332   6.563   1.072   4.868 -0.2089  0.9731 -0.7851
   77MOL   H30129333   6.782   1.310   4.845  0.6634  0.6500 -1.1302
   77MOL   H30229334   6.631   1.304   4.751  0.2348  1.5036  0.7615
   77MOL   H30329335   6.879   1.120   4.727  0.6459  2.4222 -0.4566
   77MOL   H30429336   6.727   1.096   4.641  1.5115  0.2383 -1.5103
   77MOL   H30529337   6.809   1.242   4.617 -0.8515 -0.8391 -0.4280
   77MOL   C30629338   6.273   1.019   5.116  0.5855  0.4346 -0.0375
   77MOL   C30729339   6.202   0.917   5.026  0.8133 -0.4282  0.7535
   77MOL   C30829340   6.077   0.858   5.090 -0.3268 -0.3000  0.3629
   77MOL   C30929341   6.012   0.743   5.015  0.4229 -0.2843 -0.5680
   77MOL   C31029342   5.876   0.704   5.071 -0.0980 -0.1991 -0.1242
   77MOL   C31129343   5.821   0.577   4.997  0.3902 -0.6403  0.1780
   77MOL   O31229344   6.283   0.799   5.012  0.4712 -0.1332  0.5591
   77MOL   H31329345   6.314   0.964   5.201 -0.9036 -0.2954  0.2293
   77MOL   H31429346   6.198   1.083   5.163  0.4412  0.0569  0.2540
   77MOL   H31529347   6.175   0.961   4.930  3.3556 -1.9439 -0.7000
   77MOL   H31629348   6.010   0.942   5.109 -0.3624 -0.6135  1.6240
   77MOL   H31729349   6.093   0.827   5.193 -1.9414 -2.7996 -0.0952
   77MOL   H31829350   5.995   0.766   4.910 -0.9516 -0.5345 -0.4008
   77MOL   H31929351   6.084   0.661   5.021  0.5752 -0.2386 -1.6143
   77MOL   H32029352   5.800   0.782   5.062 -0.4660 -0.5792 -0.3324
   77MOL   H32129353   5.883   0.691   5.179 -1.8469  1.8050  0.2691
   77MOL   H32229354   5.725   0.553   5.042  0.0964 -0.6557 -0.4546
   77MOL   H32329355   5.820   0.586   4.889 -0.3381  1.8244  0.3674
   77MOL   H32429356   5.882   0.489   5.021  2.6857  0.8138 -0.1165
   77MOL   C32529357   6.411   0.825   4.950  0.1116  0.4827  0.9591
   77MOL   C32629358   6.489   0.698   4.944 -0.5514 -0.0506 -0.5115
   77MOL   C32729359   6.631   0.723   4.870 -0.2256  0.3479 -0.3309
   77MOL   C32829360   6.745   0.623   4.895 -0.0903  0.7613  0.3383
   77MOL   C32929361   6.885   0.663   4.834 -0.0516  0.5320 -0.5009
   77MOL   C33029362   6.991   0.560   4.859  0.3380 -0.0868 -0.6643
   77MOL   O33129363   6.415   0.600   4.868 -0.1279  0.1261 -0.2809
   77MOL   H33229364   6.477   0.888   5.010 -0.8200 -0.0581  2.6102
   77MOL   H33329365   6.395   0.865   4.850 -0.0553 -1.7731  0.0510
   77MOL   H33429366   6.507   0.666   5.047  2.3477  1.2514 -0.5694
   77MOL   H33529367   6.615   0.740   4.764 -1.9015  0.7363 -0.0230
   77MOL   H33629368   6.670   0.821   4.900  0.8595 -0.2342  0.1974
   77MOL   H33729369   6.749   0.603   5.002 -2.9403 -1.4876  0.0917
   77MOL   H33829370   6.728   0.525   4.850  0.7116  0.3634  0.8948
   77MOL   H33929371   6.870   0.676   4.727  0.5742  1.5255 -0.4681
   77MOL   H34029372   6.904   0.761   4.877  0.5110  1.2742 -2.4147
   77MOL   H34129373   7.001   0.524   4.961  0.4848  0.1387 -0.6001
   77MOL   H34229374   6.971   0.473   4.797 -0.3221  0.7332 -1.6248
   77MOL   H34329375   7.085   0.605   4.826 -1.3275  1.8661 -2.9627
   77MOL   C34429376   6.325   0.511   4.937  0.2327 -0.0919 -0.1055
   77MOL   C34529377   6.248   0.428   4.834 -0.3368 -0.3484  0.3005
   77MOL   C34629378   6.151   0.513   4.754  0.3518 -0.2617 -0.3744
   77MOL   C34729379   6.066   0.437   4.645 -0.1834 -0.0252 -0.2115
   77MOL   C34829380   5.947   0.352   4.694  0.1838 -0.4604  0.0461
   77MOL   C34929381   5.878   0.287   4.575  0.4890  0.1143 -0.2401
   77MOL   O35029382   6.341   0.380   4.735  0.7026 -0.1305 -0.4163
   77MOL   H35129383   6.255   0.571   4.995 -1.1269  1.1677 -2.9320
   77MOL   H35229384   6.391   0.458   5.006  1.7057  2.1583  0.2790
   77MOL   H35329385   6.204   0.339   4.880 -2.1779 -0.5206 -1.7365
   77MOL   H35429386   6.214   0.578   4.694  1.2468 -0.7298  0.0503
   77MOL   H35529387   6.089   0.567   4.825 -1.1473  1.5182 -2.9685
   77MOL   H35629388   6.137   0.367   4.602 -1.2948 -1.3351  0.0480
   77MOL   H35729389   6.035   0.502   4.563 -0.3844 -0.6941 -0.6724
   77MOL   H35829390   5.870   0.413   4.741  0.5696  0.9702 -1.1672
   77MOL   H35929391   5.993   0.274   4.755  1.0600 -1.0762 -1.3774
   77MOL   H36029392   5.813   0.209   4.615  0.2103 -0.6651 -2.1484
   77MOL   H36129393   5.955   0.239   4.514 -1.3112 -0.7041 -1.9227
   77MOL   H36229394   5.821   0.359   4.517  0.2739 -0.8372 -1.2258
   77MOL   C36329395   6.418   0.267   4.766  0.4823 -0.2742  0.3179
   77MOL   C36429396   6.540   0.258   4.668 -0.7177 -0.1579  0.3450
   77MOL   C36529397   6.500   0.234   4.525 -0.2214  0.1717  0.1295
   77MOL   C36629398   6.621   0.208   4.434 -0.2071 -0.1323  0.0434
   77MOL   C36729399   6.591   0.216   4.280  0.0937 -0.8434  0.1648
   77MOL   C36829400   6.713   0.159   4.209 -0.3246 -0.0761  0.2025
   77MOL   O36929401   6.606   0.389   4.673  1.0437  0.1757 -0.0691
   77MOL   H37029402   6.354   0.179   4.766 -0.3573  0.3323  0.8636
   77MOL   H37129403   6.454   0.281   4.868  2.7056  1.9250 -0.7212
   77MOL   H37229404   6.609   0.187   4.714  2.2551  2.9254  0.9171
   77MOL   H37329405   6.430   0.151   4.517 -0.3125  0.1300  1.3316
   77MOL   H37429406   6.445   0.320   4.487 -1.2195  0.0750  1.3296
   77MOL   H37529407   6.703   0.277   4.455  0.8118 -1.7307  1.3807
   77MOL   H37629408   6.665   0.112   4.459 -0.3550 -0.2422 -0.1192
   77MOL   H37729409   6.498   0.165   4.257  0.8649 -1.5972 -1.3694
   77MOL   H37829410   6.563   0.320   4.261 -1.8090 -1.0719  1.5816
   77MOL   H37929411   6.791   0.233   4.196  0.2450 -0.4063  1.6421
   77MOL   H38029412   6.745   0.069   4.263 -2.3904 -0.0010  1.6332
   77MOL   H38129413   6.677   0.124   4.112 -1.5988 -0.3156  0.7367
   77MOL   H38229414   6.533   0.445   4.694 -0.7360 -0.8924 -3.1625
   78MOL     C129415   0.571   0.437   5.440 -0.1446 -0.1257 -0.2166
   78MOL     C229416   0.559   0.358   5.312 -0.1798 -0.7949 -0.8076
   78MOL     C329417   0.412   0.306   5.287  0.4555  0.6662 -0.4589
   78MOL     C429418   0.402   0.216   5.155  0.1941  0.6790 -0.4852
   78MOL     C529419   0.257   0.166   5.131  0.3786  0.6703 -0.3525
   78MOL     C629420   0.179   0.273   5.067 -0.2699 -0.3502  0.0514
   78MOL     O729421   0.581   0.452   5.207  0.2241 -0.4568 -0.2429
   78MOL     H829422   0.560   0.381   5.532 -0.2869  1.1255  0.5391
   78MOL     H929423   0.496   0.516   5.441 -1.5284 -1.4188  2.3072
   78MOL    H1029424   0.635   0.280   5.312  0.1851 -0.4596  1.4357
   78MOL    H1129425   0.389   0.238   5.369 -1.6547 -2.0876 -3.2244
   78MOL    H1229426   0.352   0.396   5.275  0.8854  0.7834 -1.7631
   78MOL    H1329427   0.434   0.278   5.072 -0.0093 -2.1144 -2.7158
   78MOL    H1429428   0.479   0.140   5.168 -1.3936 -0.6841  1.1568
   78MOL    H1529429   0.255   0.077   5.068 -2.6867 -0.2228  0.8746
   78MOL    H1629430   0.198   0.134   5.218 -0.4477  3.0308  0.0125
   78MOL    H1729431   0.225   0.322   4.981 -0.3095 -0.0438  0.2051
   78MOL    H1829432   0.079   0.240   5.041 -0.3737  1.0437 -1.4285
   78MOL    H1929433   0.174   0.362   5.131  0.8059 -0.5952  0.4878
   78MOL    H2029434   0.668   0.487   5.441 -0.9496  1.4529  1.4902
   78MOL    C2129435   0.695   0.427   5.126 -0.1400  0.8441 -0.0287
   78MOL    C2229436   0.709   0.518   5.004 -0.5316 -0.3242 -0.0194
   78MOL    C2329437   0.859   0.544   4.968  0.5896  0.0054  0.1502
   78MOL    C2429438   0.913   0.650   5.062 -0.3683  0.4988 -0.0122
   78MOL    C2529439   1.067   0.644   5.064 -0.5799 -0.4951 -0.5501
   78MOL    C2629440   1.127   0.752   5.152 -0.0663 -0.2296  0.0724
   78MOL    O2729441   0.661   0.459   4.883  0.2037 -0.0691  0.1502
   78MOL    H2829442   0.773   0.459   5.195  1.4567  0.0796 -1.4268
   78MOL    H2929443   0.709   0.322   5.101 -0.0736  0.2095  2.5075
   78MOL    H3029444   0.647   0.607   5.016  0.3443  0.8861 -3.9093
   78MOL    H3129445   0.869   0.588   4.869  0.4935  0.7021  0.4502
   78MOL    H3229446   0.904   0.445   4.958  1.0802  0.4424 -2.2293
   78MOL    H3329447   0.891   0.631   5.168  0.6940 -0.3906  0.0581
   78MOL    H3429448   0.863   0.744   5.039 -0.2071  0.5866 -0.0053
   78MOL    H3529449   1.100   0.545   5.096  0.4308 -0.1530 -0.4904
   78MOL    H3629450   1.109   0.651   4.963 -0.6007 -2.6445 -0.7409
   78MOL    H3729451   1.233   0.764   5.128  0.0973  0.1207  0.9542
   78MOL    H3829452   1.124   0.729   5.258 -1.1443 -0.2762  0.0346
   78MOL    H3929453   1.084   0.850   5.130 -0.2361  0.0414  1.5805
   78MOL    C4029454   0.511   0.460   4.878  0.2947 -0.0298 -0.0784
   78MOL    C4129455   0.471   0.582   4.789 -0.8843 -0.0903 -0.4443
   78MOL    C4229456   0.333   0.642   4.811 -0.5908  0.4057 -0.5599
   78MOL    C4329457   0.299   0.760   4.722  0.1639 -0.0851  0.0969
   78MOL    C4429458   0.146   0.798   4.738 -0.7193 -0.3206  0.0182
   78MOL    C4529459   0.134   0.942   4.689 -0.2434 -0.0396  0.3833
   78MOL    O4629460   0.483   0.554   4.648 -0.1061  0.4883 -0.0726
   78MOL    H4729461   0.462   0.465   4.975 -0.8617  2.9422 -0.7467
   78MOL    H4829462   0.485   0.364   4.833  0.4150 -0.6561  1.1918
   78MOL    H4929463   0.546   0.660   4.803 -0.8337 -0.0187 -1.0889
   78MOL    H5029464   0.249   0.575   4.795  0.4774 -1.5363  1.7067
   78MOL    H5129465   0.321   0.665   4.917 -0.5652 -0.0525 -0.4567
   78MOL    H5229466   0.324   0.748   4.616  1.6568  1.0682  0.2883
   78MOL    H5329467   0.357   0.846   4.754 -1.1878  1.1748 -0.7942
   78MOL    H5429468   0.084   0.731   4.679  1.5300 -0.2675 -2.4602
   78MOL    H5529469   0.124   0.778   4.843  2.1007 -1.1970  0.4840
   78MOL    H5629470   0.200   1.014   4.737  0.1804 -1.9935  2.8465
   78MOL    H5729471   0.139   0.943   4.580 -2.2331  1.3200  0.2762
   78MOL    H5829472   0.032   0.974   4.712 -1.2701 -2.1722 -0.9494
   78MOL    C5929473   0.610   0.599   4.594  0.1663  0.6111 -0.3803
   78MOL    C6029474   0.618   0.563   4.446 -0.2332 -1.1082  0.0999
   78MOL    C6129475   0.697   0.660   4.359 -0.8915  0.4938 -0.2199
   78MOL    C6229476   0.836   0.716   4.423  0.7462  0.6979  0.1042
   78MOL    C6329477   0.904   0.814   4.336  0.3491  0.4215  0.0605
   78MOL    C6429478   1.048   0.855   4.381  0.3478 -0.5184  0.1536
   78MOL    O6529479   0.688   0.441   4.451 -0.0161 -0.1479  0.1833
   78MOL    H6629480   0.692   0.554   4.651  0.2327  0.8484 -0.2837
   78MOL    H6729481   0.614   0.708   4.595 -0.0937  0.6195  1.1603
   78MOL    H6829482   0.519   0.548   4.403  0.0928 -1.6393 -0.4713
   78MOL    H6929483   0.635   0.748   4.340 -1.3250  0.8226  2.5620
   78MOL    H7029484   0.727   0.627   4.259 -0.4028 -3.1895  1.0803
   78MOL    H7129485   0.889   0.622   4.435 -0.1339  0.2336  0.3482
   78MOL    H7229486   0.816   0.752   4.524 -2.9917  0.1409 -0.3544
   78MOL    H7329487   0.837   0.900   4.327 -0.6260 -0.2552  0.7416
   78MOL    H7429488   0.911   0.783   4.231 -1.5901 -1.1068  0.3512
   78MOL    H7529489   1.112   0.772   4.408 -1.1224 -1.8069 -0.2164
   78MOL    H7629490   1.099   0.897   4.295 -1.0792  1.7686  0.3777
   78MOL    H7729491   1.047   0.928   4.462  1.4596  0.0307 -0.3200
   78MOL    C7829492   0.651   0.353   4.339 -0.2048  0.3475  1.0136
   78MOL    C7929493   0.720   0.211   4.355 -0.5718 -0.3661 -0.8463
   78MOL    C8029494   0.734   0.134   4.225 -0.1738  0.2996 -0.4077
   78MOL    C8129495   0.793   7.783   4.261  0.1722 -0.3764 -0.2284
   78MOL    C8229496   0.857   7.706   4.137 -0.5469 -0.3357 -1.9423
   78MOL    C8329497   0.749   7.679   4.030 -0.9901 -0.0946  0.0452
   78MOL    O8429498   0.650   0.126   4.439 -0.0846  0.8069  0.0369
   78MOL    H8529499   0.675   0.406   4.247 -2.0988 -2.3083 -1.0884
   78MOL    H8629500   0.543   0.343   4.341 -0.2383  0.6690  0.8082
   78MOL    H8729501   0.821   0.230   4.392 -1.0890  2.4681 -0.8067
   78MOL    H8829502   0.637   0.144   4.177  0.7396  2.7341 -1.8133
   78MOL    H8929503   0.794   0.184   4.149 -1.6136  3.6010  0.5082
   78MOL    H9029504   0.732   7.718   4.324 -1.7020  0.7831 -0.8157
   78MOL    H9129505   0.880   0.009   4.325  0.2533  1.8943 -0.6985
   78MOL    H9229506   0.927   7.773   4.087 -0.8669  1.5722  0.0573
   78MOL    H9329507   0.909   7.621   4.181 -1.0310  0.9410  1.2167
   78MOL    H9429508   0.690   7.765   3.998  0.4130  1.2154  0.8852
   78MOL    H9529509   0.686   7.601   4.072  0.5747 -0.3170  2.0365
   78MOL    H9629510   0.806   7.635   3.949 -2.1981 -2.7464  0.5629
   78MOL    C9729511   0.648   0.172   4.577  0.3176 -0.9607  0.7103
   78MOL    C9829512   0.613   0.060   4.670 -0.0464 -0.0987 -0.7338
   78MOL    C9929513   0.665   0.075   4.806  0.0978 -0.1982 -0.5029
   78MOL   C10029514   0.818   0.069   4.824 -0.6402 -0.2039 -0.4778
   78MOL   C10129515   0.879   0.049   4.962  0.1585  0.0920 -0.8296
   78MOL   C10229516   1.025   0.068   4.978 -0.5825  0.5960  0.1079
   78MOL   O10329517   0.472   0.044   4.689  0.6504 -0.3200 -0.4351
   78MOL   H10429518   0.582   0.258   4.585 -0.2651 -1.2625 -0.6741
   78MOL   H10529519   0.743   0.218   4.603  0.3709  0.1209 -1.3151
   78MOL   H10629520   0.654   7.754   4.627  0.6604  0.8175 -2.0455
   78MOL   H10729521   0.621   7.780   4.866  1.4376 -0.9841 -0.5640
   78MOL   H10829522   0.626   0.170   4.842 -1.5681 -0.9726 -0.2011
   78MOL   H10929523   0.861   0.157   4.777  2.4594 -0.9054  0.9214
   78MOL   H11029524   0.863   7.777   4.762  0.5439 -1.2564  1.6522
   78MOL   H11129525   0.854   7.734   4.998 -0.7285  0.8528  0.7734
   78MOL   H11229526   0.826   0.117   5.029  0.6872 -0.3213  0.0190
   78MOL   H11329527   1.041   0.173   4.953 -1.2939  0.2994 -1.6292
   78MOL   H11429528   1.066   0.046   5.077 -2.7451  0.3325  0.9836
   78MOL   H11529529   1.089   0.008   4.914 -1.1984 -1.6869  1.5710
   78MOL   C11629530   0.397   7.761   4.589  0.5282 -0.7460 -0.6167
   78MOL   C11729531   0.246   7.756   4.623 -0.0184  0.2156 -0.8731
   78MOL   C11829532   0.179   7.639   4.551  0.0984 -0.2962 -0.0723
   78MOL   C11929533   0.246   7.497   4.569  0.3755  0.2934 -0.3827
   78MOL   C12029534   0.167   7.390   4.499 -0.4277  0.1685  0.6331
   78MOL   C12129535   0.227   7.258   4.533 -0.0116 -0.4128 -0.1771
   78MOL   O12229536   0.179   0.088   4.581 -0.2445 -0.1162  0.0674
   78MOL   H12329537   0.403   0.021   4.490  0.7111 -1.3516 -0.8863
   78MOL   H12429538   0.451   7.666   4.579 -2.2801 -2.5881  1.0835
   78MOL   H12529539   0.230   7.723   4.725  2.0380 -2.7604 -1.4515
   78MOL   H12629540   0.072   7.643   4.572 -0.3034 -0.5838 -2.0133
   78MOL   H12729541   0.180   7.671   4.447 -3.0413 -0.0268 -0.0532
   78MOL   H12829542   0.235   7.472   4.674  0.3798 -0.9968 -0.6835
   78MOL   H12929543   0.349   7.494   4.533 -0.3489 -3.9685 -2.3868
   78MOL   H13029544   0.067   7.392   4.543 -0.5214  2.4080  0.3618
   78MOL   H13129545   0.162   7.407   4.391  0.1241 -2.0879  0.2248
   78MOL   H13229546   0.335   7.261   4.520  0.1139  3.0602  1.0526
   78MOL   H13329547   0.220   7.233   4.639 -0.0849 -0.9280 -0.3025
   78MOL   H13429548   0.199   7.167   4.480 -0.3044  0.0256 -0.7838
   78MOL   C13529549   0.190   0.187   4.680  0.3508  0.2976 -0.5331
   78MOL   C13629550   0.086   0.294   4.666  0.0252  0.6584  0.0253
   78MOL   C13729551   7.721   0.245   4.685  0.4640  0.1590 -0.4459
   78MOL   C13829552   7.626   0.370   4.691  0.2187  0.0351  0.0241
   78MOL   C13929553   7.482   0.341   4.732  0.3712 -0.6945 -0.6652
   78MOL   C14029554   7.397   0.462   4.753 -0.1610 -0.0962 -0.4805
   78MOL   O14129555   0.089   0.347   4.535  0.1424 -0.2045  0.5079
   78MOL   H14229556   0.183   0.144   4.779  1.3012 -0.0670 -0.6154
   78MOL   H14329557   0.293   0.224   4.672  0.4011  0.3476  0.3821
   78MOL   H14429558   0.087   0.379   4.736 -4.5133  0.0729  0.9820
   78MOL   H14529559   7.686   0.168   4.616 -1.9572 -1.0761  2.0296
   78MOL   H14629560   7.712   0.185   4.776 -1.7485  0.1837 -0.6265
   78MOL   H14729561   7.639   0.420   4.594 -2.0030  0.3855 -0.1195
   78MOL   H14829562   7.662   0.442   4.765 -0.4789  0.0419  0.3537
   78MOL   H14929563   7.492   0.293   4.829  1.8094  0.8611 -0.0144
   78MOL   H15029564   7.424   0.269   4.674 -0.7882 -1.5951  1.5437
   78MOL   H15129565   7.450   0.548   4.793 -0.2847  0.2317 -1.0231
   78MOL   H15229566   7.346   0.493   4.662 -3.0588 -0.9366  0.8060
   78MOL   H15329567   7.312   0.434   4.815  0.3004  2.2635  1.3113
   78MOL   C15429568   0.200   0.429   4.515 -0.1445 -0.1989 -0.0760
   78MOL   C15529569   0.195   0.461   4.362 -0.1331 -0.4438  0.1727
   78MOL   C15629570   0.229   0.612   4.338  0.3772  0.3549  0.2318
   78MOL   C15729571   0.204   0.655   4.191 -0.2782  0.2422  0.0192
   78MOL   C15829572   0.215   0.805   4.155  0.3739 -0.3561  0.8966
   78MOL   C15929573   0.177   0.839   4.015 -0.2642  0.3796 -0.3476
   78MOL   O16029574   0.291   0.377   4.294  0.8303  0.2408 -0.3618
   78MOL   H16129575   0.297   0.387   4.539 -1.7363 -2.7458  2.1345
   78MOL   H16229576   0.196   0.522   4.571 -2.1743 -0.5973  0.4687
   78MOL   H16329577   0.096   0.439   4.322 -0.1112  0.6689 -0.4911
   78MOL   H16429578   0.326   0.644   4.376 -1.1603  4.2010  1.1652
   78MOL   H16529579   0.153   0.668   4.394 -1.4042 -2.2422  0.5130
   78MOL   H16629580   0.106   0.613   4.166  0.6784 -1.3330 -1.1730
   78MOL   H16729581   0.258   0.605   4.110  0.7048 -0.0939  0.8737
   78MOL   H16829582   0.156   0.868   4.221 -0.4651 -0.5409  0.3380
   78MOL   H16929583   0.318   0.834   4.175  0.2178 -1.2684  3.3077
   78MOL   H17029584   0.081   0.798   3.986 -0.5357  1.2003 -0.6115
   78MOL   H17129585   0.243   0.781   3.951 -0.2758  0.8691 -0.8038
   78MOL   H17229586   0.187   0.946   3.997  3.1136  0.6980  2.8416
   78MOL   C17329587   0.246   0.242   4.277 -0.4580  0.4965 -0.8943
   78MOL   C17429588   0.325   0.152   4.179 -0.0882  0.1519  0.5922
   78MOL   C17529589   0.291   0.004   4.207 -0.4188 -0.3851 -0.1331
   78MOL   C17629590   0.367   7.698   4.100  0.0862  0.0011  0.6327
   78MOL   C17729591   0.366   7.550   4.136 -0.5911 -0.4706  0.0158
   78MOL   C17829592   0.402   7.470   4.007 -0.5343 -0.7398  0.0091
   78MOL   O17929593   0.275   0.189   4.053  0.2185 -0.4075 -0.1398
   78MOL   H18029594   0.139   0.235   4.255 -0.5120  0.0308 -0.4942
   78MOL   H18129595   0.256   0.209   4.381 -2.3558 -0.7189 -1.0576
   78MOL   H18229596   0.432   0.170   4.183 -0.1445  0.2966  1.4135
   78MOL   H18329597   0.332   7.754   4.301 -1.2494  0.2127  0.4669
   78MOL   H18429598   0.184   7.768   4.211 -0.5509  0.2390 -0.1977
   78MOL   H18529599   0.327   7.720   4.001  0.6656 -2.2950 -0.1253
   78MOL   H18629600   0.467   7.736   4.080 -0.5913  2.4824  1.6427
   78MOL   H18729601   0.437   7.522   4.214 -1.8437 -0.9072  1.0198
   78MOL   H18829602   0.265   7.529   4.170 -0.2318  1.1628  2.2264
   78MOL   H18929603   0.321   7.478   3.935  0.5374 -0.9586 -1.2388
   78MOL   H19029604   0.424   7.364   4.021  1.2424 -0.5770 -1.2519
   78MOL   H19129605   0.489   7.514   3.958  0.4625 -1.4911  1.0642
   78MOL   C19229606   0.322   0.309   4.009 -0.0248  0.3617  0.3387
   78MOL   C19329607   0.266   0.328   3.865 -0.2296 -0.3945  0.1286
   78MOL   C19429608   0.361   0.410   3.779 -0.0028 -0.3822  0.6625
   78MOL   C19529609   0.383   0.557   3.834  0.2714  0.6903 -0.3485
   78MOL   C19629610   0.486   0.630   3.743  0.5087 -0.5276 -0.6239
   78MOL   C19729611   0.534   0.772   3.801 -0.6958  0.0352 -0.4341
   78MOL   O19829612   0.145   0.407   3.876  0.5280  0.3747  0.3681
   78MOL   H19929613   0.298   0.395   4.071 -0.1950 -0.3375  1.2427
   78MOL   H20029614   0.431   0.302   4.003 -0.0384 -2.0036  2.1509
   78MOL   H20129615   0.247   0.228   3.826  0.7483 -0.4356 -0.2495
   78MOL   H20229616   0.452   0.349   3.772  0.8441  1.0653 -1.3638
   78MOL   H20329617   0.317   0.422   3.680  1.1484  2.3860  0.4447
   78MOL   H20429618   0.432   0.558   3.931  1.6674  1.8843 -1.0441
   78MOL   H20529619   0.286   0.606   3.836 -0.5253 -0.8248 -0.5908
   78MOL   H20629620   0.573   0.567   3.728  0.9116  0.3849 -2.3472
   78MOL   H20729621   0.446   0.642   3.642  1.6828 -0.3568 -1.0804
   78MOL   H20829622   0.606   0.811   3.730  1.3351 -1.7531  0.5884
   78MOL   H20929623   0.457   0.848   3.812  0.1016  0.9220 -0.9284
   78MOL   H21029624   0.578   0.769   3.900 -2.1439 -0.9579  0.2015
   78MOL   C21129625   0.026   0.326   3.894  0.3381  0.1994 -0.0883
   78MOL   C21229626   7.709   0.408   3.979  0.0037 -0.5719 -0.8607
   78MOL   C21329627   7.644   0.329   4.100  0.6176 -0.6983  0.1934
   78MOL   C21429628   7.577   0.411   4.211  0.8042  0.4352 -0.5231
   78MOL   C21529629   7.493   0.326   4.305 -0.1033  0.5582 -0.4543
   78MOL   C21629630   7.396   0.408   4.386 -0.6572  0.6707  0.2072
   78MOL   O21729631   7.612   0.475   3.909  0.2558  0.3230 -0.1962
   78MOL   H21829632   0.039   0.228   3.939 -1.1746 -0.0203 -0.1003
   78MOL   H21929633   7.772   0.302   3.795 -1.7617  0.8134  0.5723
   78MOL   H22029634   7.764   0.488   4.028  1.2421 -2.5190  0.9869
   78MOL   H22129635   7.570   0.270   4.046  3.0954 -3.5041 -0.2439
   78MOL   H22229636   7.712   0.265   4.156 -0.0322  1.1453  3.1935
   78MOL   H22329637   7.655   0.468   4.263 -1.9238  3.1467  0.7149
   78MOL   H22429638   7.512   0.484   4.163 -1.9620 -1.1266  0.7510
   78MOL   H22529639   7.455   0.236   4.258 -1.3705  0.5135  0.6402
   78MOL   H22629640   7.550   0.284   4.387 -2.8712 -1.4689  0.4858
   78MOL   H22729641   7.457   0.474   4.448  3.7549 -0.2693 -2.8966
   78MOL   H22829642   7.340   0.341   4.452  2.2465 -2.3745 -0.3034
   78MOL   H22929643   7.328   0.469   4.325  0.8169  0.9248 -1.2062
   78MOL   C23029644   7.648   0.558   3.801  0.1617 -0.1812 -0.1698
   78MOL   C23129645   7.563   0.681   3.768  0.3784  0.0303 -0.3484
   78MOL   C23229646   7.587   0.729   3.624 -0.3040 -0.7626  0.2910
   78MOL   C23329647   7.493   0.829   3.574 -0.0272  0.0830  0.2257
   78MOL   C23429648   7.551   0.916   3.471  0.4685  0.1392  0.4758
   78MOL   C23529649   7.455   1.031   3.432  0.1047  0.2571  0.2987
   78MOL   O23629650   7.583   0.786   3.857  0.3606  1.0891  0.5008
   78MOL   H23729651   7.746   0.597   3.829  0.8198 -0.1069 -2.4956
   78MOL   H23829652   7.661   0.493   3.715  1.0185 -1.5194  0.9374
   78MOL   H23929653   7.457   0.659   3.771  0.9598 -2.8387  1.0066
   78MOL   H24029654   7.585   0.638   3.564 -0.6462 -1.5001  1.4035
   78MOL   H24129655   7.689   0.763   3.605 -1.8163  3.0839 -1.3079
   78MOL   H24229656   7.464   0.902   3.649  0.8582  0.5951  0.0726
   78MOL   H24329657   7.399   0.777   3.554 -0.6463  1.4250 -0.3703
   78MOL   H24429658   7.646   0.964   3.496  0.1458  0.6720  0.7014
   78MOL   H24529659   7.569   0.863   3.377  0.9004  2.2160 -0.6571
   78MOL   H24629660   7.358   1.008   3.387  1.7246 -1.6080 -2.4103
   78MOL   H24729661   7.511   1.092   3.361 -1.1397  0.7158 -0.3213
   78MOL   H24829662   7.446   1.107   3.510  0.7458  0.2270  0.4053
   78MOL   C24929663   7.556   0.756   3.999  0.2854 -0.2361  0.3880
   78MOL   C25029664   7.545   0.873   4.092 -0.8220 -0.1371  0.2638
   78MOL   C25129665   7.556   0.819   4.238 -0.1877 -0.3655  0.0446
   78MOL   C25229666   7.536   0.923   4.348  0.4390  0.4167 -0.0970
   78MOL   C25329667   7.576   0.871   4.491 -0.0654  0.8221  0.0805
   78MOL   C25429668   7.465   0.793   4.560 -0.5366  0.1093  0.6547
   78MOL   O25529669   7.422   0.956   4.084 -0.0918 -0.2774  0.0681
   78MOL   H25629670   7.467   0.693   3.997 -0.3358  0.6405 -0.1775
   78MOL   H25729671   7.639   0.692   4.030 -1.1148 -3.6640 -2.4791
   78MOL   H25829672   7.629   0.940   4.073 -1.2597  0.9674  2.0392
   78MOL   H25929673   7.488   0.733   4.244  0.5800 -1.1179 -1.5949
   78MOL   H26029674   7.651   0.768   4.250 -0.7446 -0.9251  2.3740
   78MOL   H26129675   7.581   1.018   4.321  2.7717 -0.5029  0.4398
   78MOL   H26229676   7.429   0.941   4.360  0.3107 -0.3372 -0.0368
   78MOL   H26329677   7.663   0.809   4.469 -0.5907  0.2458 -0.4005
   78MOL   H26429678   7.598   0.953   4.559 -0.4581  2.7327 -2.0383
   78MOL   H26529679   7.516   0.740   4.641  1.3512  0.4780 -0.2530
   78MOL   H26629680   7.420   0.726   4.487  0.4508 -1.3557  1.3549
   78MOL   H26729681   7.382   0.847   4.604 -2.0586 -0.9627 -0.8543
   78MOL   C26829682   7.394   1.002   3.956  0.1070 -0.1288  0.3537
   78MOL   C26929683   7.271   1.095   3.947  0.3169 -0.1610  0.1745
   78MOL   C27029684   7.220   1.092   3.802 -0.2939 -0.5924  0.6809
   78MOL   C27129685   7.133   0.963   3.763  0.3224 -0.0816  0.3753
   78MOL   C27229686   7.099   0.975   3.612  0.0312 -0.3436  0.8112
   78MOL   C27329687   7.028   0.845   3.558 -0.1723 -0.9010 -0.1494
   78MOL   O27429688   7.314   1.226   3.978  0.1624 -0.2433  0.3756
   78MOL   H27529689   7.376   0.913   3.897  2.5676 -0.5039  0.1296
   78MOL   H27629690   7.472   1.055   3.902  0.2640  0.6779  1.3467
   78MOL   H27729691   7.192   1.071   4.017 -0.6985 -1.4003 -1.3535
   78MOL   H27829692   7.148   1.174   3.790  0.7809  0.0799 -1.3217
   78MOL   H27929693   7.300   1.113   3.731 -0.6838 -0.8454  0.1647
   78MOL   H28029694   7.195   0.873   3.773 -1.1284 -1.2308 -0.7956
   78MOL   H28129695   7.049   0.952   3.831 -1.0197  0.7599 -1.1216
   78MOL   H28229696   7.039   1.065   3.599 -0.8906 -1.1883 -0.9045
   78MOL   H28329697   7.195   0.975   3.560  0.2948 -0.0381  1.2882
   78MOL   H28429698   6.941   0.812   3.615 -1.3725 -1.7962 -2.4192
   78MOL   H28529699   6.993   0.849   3.454  1.9302  1.0863 -0.8210
   78MOL   H28629700   7.098   0.763   3.548  0.0762 -0.5313 -1.6365
   78MOL   C28729701   7.342   1.260   4.112 -0.7968 -0.4291  0.7103
   78MOL   C28829702   7.344   1.417   4.115 -0.6073  0.7268  0.4349
   78MOL   C28929703   7.482   1.467   4.069  0.1726  0.1898  0.1686
   78MOL   C29029704   7.490   1.620   4.078  0.3944 -0.4022  0.4821
   78MOL   C29129705   7.600   1.687   3.990 -0.4716 -0.4167  0.2571
   78MOL   C29229706   7.609   1.839   4.001  0.0130  0.1645  0.5042
   78MOL   O29329707   7.317   1.464   4.249  0.2856  0.5593  0.2329
   78MOL   H29429708   7.437   1.221   4.150  1.6696  3.1660 -1.3919
   78MOL   H29529709   7.265   1.223   4.180 -0.5261  0.0875  1.3088
   78MOL   H29629710   7.272   1.463   4.048 -3.6961 -1.5703  2.0779
   78MOL   H29729711   7.561   1.414   4.121  0.3514 -0.1127 -0.4111
   78MOL   H29829712   7.507   1.434   3.969  1.2469  1.0013  0.1605
   78MOL   H29929713   7.396   1.669   4.055  0.6505  0.8227  2.0025
   78MOL   H30029714   7.519   1.651   4.178  0.2505 -0.8522  0.6682
   78MOL   H30129715   7.574   1.665   3.886 -0.8466  0.3614  0.1776
   78MOL   H30229716   7.701   1.647   3.996 -0.3314  0.0814  1.2678
   78MOL   H30329717   7.513   1.890   3.989  1.0090  1.7816 -0.8401
   78MOL   H30429718   7.658   1.867   4.094 -0.2945  0.7399  0.4961
   78MOL   H30529719   7.663   1.894   3.925 -1.6107  0.6845 -0.3018
   78MOL   C30629720   7.183   1.466   4.284  0.3546  0.0164  0.3902
   78MOL   C30729721   7.140   1.590   4.366 -0.2842  0.2727 -0.1428
   78MOL   C30829722   7.016   1.562   4.445  0.2207 -0.0762  0.1906
   78MOL   C30929723   6.971   1.683   4.526  0.5249  0.2924  0.4461
   78MOL   C31029724   6.830   1.660   4.591  0.1758  0.3965 -0.0167
   78MOL   C31129725   6.788   1.778   4.681  0.2663  0.2214 -0.2187
   78MOL   O31229726   7.128   1.700   4.276  0.0116  0.0817  0.2203
   78MOL   H31329727   7.109   1.438   4.209 -0.2899 -0.9133  1.3584
   78MOL   H31429728   7.181   1.390   4.362 -0.3386 -0.0507  0.3089
   78MOL   H31529729   7.226   1.598   4.433  1.0449 -1.8748 -1.5270
   78MOL   H31629730   7.031   1.479   4.514 -2.4140 -0.6630  0.0945
   78MOL   H31729731   6.928   1.554   4.381  1.9785  1.4943 -2.5097
   78MOL   H31829732   7.047   1.711   4.599  0.8949 -1.5794  0.7999
   78MOL   H31929733   6.956   1.771   4.463 -0.0494 -0.2317 -0.1581
   78MOL   H32029734   6.832   1.571   4.654  0.3002 -1.2127 -2.2417
   78MOL   H32129735   6.748   1.636   4.523 -0.2416 -3.3109  1.6461
   78MOL   H32229736   6.680   1.769   4.693 -0.3024  0.8596 -3.9677
   78MOL   H32329737   6.821   1.785   4.784 -0.6799 -1.8295  0.2684
   78MOL   H32429738   6.806   1.875   4.635 -0.0488  0.2723 -0.2397
   78MOL   C32529739   7.219   1.800   4.313  0.0098  0.1823  0.6159
   78MOL   C32629740   7.197   1.934   4.243 -0.1173 -0.5197  0.0330
   78MOL   C32729741   7.318   2.031   4.258  0.6356  0.0366  0.4944
   78MOL   C32829742   7.309   2.144   4.162  0.0324 -0.7184  0.2435
   78MOL   C32929743   7.406   2.262   4.197 -0.2972 -0.1404 -0.5694
   78MOL   C33029744   7.371   2.379   4.105 -0.1380 -0.4929  0.2598
   78MOL   O33129745   7.090   2.011   4.294 -0.2729 -0.4609 -0.2980
   78MOL   H33229746   7.318   1.763   4.285 -0.5157  0.6118 -1.9947
   78MOL   H33329747   7.211   1.816   4.420 -0.0894  0.1725  0.6091
   78MOL   H33429748   7.180   1.905   4.139  2.3036  1.6027 -1.0145
   78MOL   H33529749   7.340   2.059   4.361 -1.0075 -4.4744  2.2076
   78MOL   H33629750   7.403   1.973   4.223  1.0685  0.4503  0.8508
   78MOL   H33729751   7.330   2.109   4.061  1.4678  4.0515 -1.2443
   78MOL   H33829752   7.210   2.185   4.180 -0.5155 -1.9255 -0.0347
   78MOL   H33929753   7.408   2.286   4.303 -0.6912  3.4551 -1.3084
   78MOL   H34029754   7.505   2.219   4.179  1.0214  2.1751  0.9125
   78MOL   H34129755   7.327   2.354   4.009 -0.1286 -1.5408  0.5219
   78MOL   H34229756   7.298   2.444   4.153  2.6383  1.7258  1.6468
   78MOL   H34329757   7.461   2.437   4.080  1.1041 -2.8139 -0.7627
   78MOL   C34429758   6.966   1.958   4.252  1.1039 -0.1047 -0.1975
   78MOL   C34529759   6.850   2.052   4.288 -0.3809 -0.7033  0.3490
   78MOL   C34629760   6.867   2.193   4.233 -0.0052  0.1929 -0.4747
   78MOL   C34729761   6.767   2.298   4.279  0.0371 -0.3466  0.7631
   78MOL   C34829762   6.768   2.430   4.204 -0.2919 -0.2075 -0.1552
   78MOL   C34929763   6.826   2.549   4.281 -0.0855 -0.2634  0.7837
   78MOL   O35029764   6.723   1.999   4.247 -0.9118 -0.1271 -0.1316
   78MOL   H35129765   6.964   1.857   4.291  0.4141  0.1321  0.4008
   78MOL   H35229766   6.971   1.946   4.143 -1.6176 -1.0973 -0.2695
   78MOL   H35329767   6.848   2.052   4.397  1.3585  1.7052  0.4194
   78MOL   H35429768   6.860   2.187   4.124  1.0421  1.6834 -0.6437
   78MOL   H35529769   6.968   2.228   4.255 -0.3597  1.7941 -1.3452
   78MOL   H35629770   6.787   2.310   4.385  0.0614  1.2089  0.5949
   78MOL   H35729771   6.668   2.252   4.279 -0.3733  0.5031 -0.2174
   78MOL   H35829772   6.664   2.459   4.186 -0.4931 -0.4783  0.5768
   78MOL   H35929773   6.823   2.414   4.111  0.3529 -3.0145  0.6670
   78MOL   H36029774   6.791   2.647   4.248  0.6884  0.1340  1.1195
   78MOL   H36129775   6.935   2.541   4.278  0.1904  0.8788  5.2044
   78MOL   H36229776   6.795   2.551   4.385  0.6027 -1.6411  1.0193
   78MOL   C36329777   6.677   1.877   4.296 -0.3043  0.2341 -0.2625
   78MOL   C36429778   6.529   1.865   4.253 -0.0074  0.2766 -0.1251
   78MOL   C36529779   6.452   1.731   4.300  0.5184  0.1986 -0.9379
   78MOL   C36629780   6.322   1.702   4.222 -0.4813 -0.4720  0.0429
   78MOL   C36729781   6.246   1.573   4.256 -0.0334  0.0102  0.0734
   78MOL   C36829782   6.098   1.568   4.188 -0.4309 -0.6972  0.5138
   78MOL   O36929783   6.459   1.975   4.305 -0.2283  0.1390 -0.8542
   78MOL   H37029784   6.690   1.896   4.403 -1.0109  3.4303 -0.6876
   78MOL   H37129785   6.739   1.789   4.280 -1.6788 -1.2252  2.1173
   78MOL   H37229786   6.512   1.878   4.146  0.2295  1.7934  0.0097
   78MOL   H37329787   6.522   1.653   4.272  0.0889 -0.3166 -0.5797
   78MOL   H37429788   6.429   1.713   4.405  1.3684  0.4307 -0.7009
   78MOL   H37529789   6.257   1.790   4.226  0.5251  0.3042 -0.6162
   78MOL   H37629790   6.361   1.686   4.122 -1.3903 -2.6266  0.0026
   78MOL   H37729791   6.306   1.483   4.247  1.0234  0.5933  1.1228
   78MOL   H37829792   6.232   1.570   4.364  0.2438  3.0053  0.2500
   78MOL   H37929793   6.046   1.663   4.205  0.8633  0.5164 -1.8758
   78MOL   H38029794   6.109   1.567   4.079 -1.9863  0.9569  0.3112
   78MOL   H38129795   6.043   1.484   4.228 -1.1221 -0.1487  0.7327
   78MOL   H38229796   6.503   2.057   4.287  0.8292 -0.3436 -0.5257
   79MOL     C129797   2.097   2.446   5.476 -0.3067 -0.8783 -0.2073
   79MOL     C229798   2.129   2.534   5.354  0.4618  1.2857  0.3792
   79MOL     C329799   2.279   2.556   5.347 -0.1250 -0.0610 -0.0367
   79MOL     C429800   2.363   2.427   5.330 -0.5190 -0.1637 -0.4240
   79MOL     C529801   2.513   2.451   5.286  0.1930  0.4438  0.1712
   79MOL     C629802   2.582   2.316   5.274 -0.1037 -0.9375 -0.0183
   79MOL     O729803   2.076   2.480   5.235  0.0310  0.3670 -0.7248
   79MOL     H829804   2.114   2.341   5.455  1.8281 -0.3819 -1.0671
   79MOL     H929805   1.990   2.446   5.498 -0.4208 -1.3429 -0.7630
   79MOL    H1029806   2.082   2.629   5.379 -1.9651  0.4212 -0.7608
   79MOL    H1129807   2.293   2.615   5.257  0.3510 -0.0565  0.0362
   79MOL    H1229808   2.316   2.616   5.430 -0.4185 -0.9128  0.7280
   79MOL    H1329809   2.367   2.383   5.430 -1.6149 -0.8326 -0.6627
   79MOL    H1429810   2.317   2.364   5.254 -2.7774  1.2213 -0.2705
   79MOL    H1529811   2.501   2.502   5.190 -0.2340  1.0911  0.5668
   79MOL    H1629812   2.572   2.519   5.346 -0.4629  0.2408  1.0563
   79MOL    H1729813   2.521   2.242   5.224 -0.2176  0.7085 -2.3885
   79MOL    H1829814   2.677   2.329   5.222 -0.3587  0.8598 -0.0860
   79MOL    H1929815   2.587   2.270   5.373 -2.5005 -0.0126  0.5613
   79MOL    H2029816   2.155   2.474   5.564  0.7191 -1.6747 -0.6245
   79MOL    C2129817   2.024   2.571   5.141  0.0573 -1.0602 -0.2894
   79MOL    C2229818   1.984   2.505   5.011  0.0079  0.3080  0.1303
   79MOL    C2329819   1.893   2.611   4.928  0.4359 -0.2387 -1.2088
   79MOL    C2429820   1.846   2.547   4.802  0.6067  0.6345 -0.0415
   79MOL    C2529821   1.746   2.651   4.740 -0.2161 -0.0771 -0.4225
   79MOL    C2629822   1.705   2.615   4.599  0.1305  0.4429  0.2658
   79MOL    O2729823   2.098   2.485   4.929 -0.2532 -0.1122 -0.2296
   79MOL    H2829824   1.941   2.620   5.193  1.2670  0.7199 -0.0180
   79MOL    H2929825   2.106   2.640   5.122 -2.2782  1.6889 -0.8219
   79MOL    H3029826   1.938   2.408   5.029  0.6448  0.0937  0.6371
   79MOL    H3129827   1.947   2.704   4.911 -1.8534  1.7886  1.9288
   79MOL    H3229828   1.811   2.633   4.996  0.3933 -1.3029 -0.9018
   79MOL    H3329829   1.793   2.452   4.812  2.8262 -0.5075  1.4019
   79MOL    H3429830   1.934   2.522   4.743 -0.4477  0.1173 -1.4212
   79MOL    H3529831   1.656   2.679   4.795 -0.4798  2.5596 -2.0984
   79MOL    H3629832   1.797   2.747   4.732 -0.9100  0.5131  1.8390
   79MOL    H3729833   1.600   2.638   4.583 -0.0167 -0.3797  0.0642
   79MOL    H3829834   1.715   2.509   4.579  3.1226  1.2044 -2.7602
   79MOL    H3929835   1.769   2.669   4.528  1.5977 -0.0730  1.1760
   79MOL    C4029836   2.201   2.402   4.989 -0.6309 -0.4801  0.1452
   79MOL    C4129837   2.303   2.371   4.878  0.8186 -0.4727 -0.1061
   79MOL    C4229838   2.404   2.264   4.921  0.0572  0.0165 -0.0261
   79MOL    C4329839   2.505   2.220   4.812  0.3116 -0.4277  0.7888
   79MOL    C4429840   2.602   2.118   4.879  0.3786 -0.4984  0.0543
   79MOL    C4529841   2.684   2.055   4.769 -1.2434  0.2403 -0.0099
   79MOL    O4629842   2.388   2.487   4.875  0.2320  0.1892 -0.1426
   79MOL    H4729843   2.166   2.308   5.031 -0.4711 -1.7226 -2.3949
   79MOL    H4829844   2.254   2.454   5.069  0.8651 -0.9480 -0.5205
   79MOL    H4929845   2.268   2.351   4.776  1.3824 -1.6956 -0.0645
   79MOL    H5029846   2.461   2.303   5.005 -0.8031  2.3117 -0.4667
   79MOL    H5129847   2.359   2.179   4.972 -0.8052  0.7855  0.5056
   79MOL    H5229848   2.545   2.308   4.762 -0.0353  0.9743  2.9400
   79MOL    H5329849   2.464   2.167   4.726  3.2242  0.5638 -1.3191
   79MOL    H5429850   2.659   2.183   4.945 -1.5270 -0.7690  2.0363
   79MOL    H5529851   2.547   2.044   4.937 -0.3325  0.3975  0.5334
   79MOL    H5629852   2.770   2.003   4.809 -0.9973 -0.3809 -1.3194
   79MOL    H5729853   2.621   1.977   4.726  0.9304 -0.6099 -1.7385
   79MOL    H5829854   2.742   2.104   4.691  0.8974 -2.5529 -0.2757
   79MOL    C5929855   2.348   2.590   4.781  0.7904 -0.3436 -0.3899
   79MOL    C6029856   2.464   2.692   4.766  0.3927  0.0043 -0.0825
   79MOL    C6129857   2.461   2.779   4.638  0.1953  0.1515  0.5979
   79MOL    C6229858   2.484   2.704   4.506  0.2571 -0.2174 -0.5657
   79MOL    C6329859   2.492   2.788   4.386 -0.5971 -0.0761 -0.0294
   79MOL    C6429860   2.561   2.705   4.265  0.6357 -0.5260 -0.0685
   79MOL    O6529861   2.475   2.794   4.875 -0.2318  0.1019  0.2337
   79MOL    H6629862   2.252   2.640   4.792  0.4102 -1.0878 -0.2983
   79MOL    H6729863   2.337   2.538   4.686  0.6387  0.1290 -0.6320
   79MOL    H6829864   2.559   2.639   4.771  0.8685  1.0173  2.0308
   79MOL    H6929865   2.534   2.859   4.655  1.4644 -0.7622 -0.4604
   79MOL    H7029866   2.363   2.826   4.629  0.2496 -0.1897 -2.0380
   79MOL    H7129867   2.400   2.634   4.504 -1.2294  1.3912  1.5570
   79MOL    H7229868   2.576   2.647   4.514  1.2292  1.2931 -0.7610
   79MOL    H7329869   2.553   2.876   4.406 -0.1858  0.5009 -3.5409
   79MOL    H7429870   2.391   2.820   4.362 -0.5321  0.8032  0.8291
   79MOL    H7529871   2.554   2.747   4.165 -2.1919 -0.2315  0.1910
   79MOL    H7629872   2.667   2.698   4.286  0.1685  1.2620  3.2686
   79MOL    H7729873   2.521   2.605   4.252 -1.1288  0.4960 -2.9338
   79MOL    C7829874   2.489   2.750   5.009 -0.2578 -0.9842 -0.9944
   79MOL    C7929875   2.492   2.871   5.108 -0.2436  0.8053  0.6004
   79MOL    C8029876   2.552   2.836   5.246  0.5697  0.4872  0.4265
   79MOL    C8129877   2.551   2.950   5.350 -0.3702  0.0194  0.4044
   79MOL    C8229878   2.596   2.900   5.488  0.0499 -0.6867  0.4730
   79MOL    C8329879   2.582   3.010   5.592 -0.8399 -1.4873 -0.0358
   79MOL    O8429880   2.359   2.921   5.126  0.2035 -0.0438 -0.4229
   79MOL    H8529881   2.583   2.698   5.029 -0.5507 -0.6211  1.3784
   79MOL    H8629882   2.412   2.675   5.027 -0.4690 -0.2303  1.3350
   79MOL    H8729883   2.555   2.951   5.070  2.0318 -1.2796 -0.1656
   79MOL    H8829884   2.487   2.756   5.283 -0.6418  0.3480 -1.8847
   79MOL    H8929885   2.651   2.793   5.237  0.6757 -0.4469  4.6440
   79MOL    H9029886   2.447   2.984   5.358 -0.2892  0.2454  0.4823
   79MOL    H9129887   2.624   3.026   5.324  1.8116 -1.5086  1.8810
   79MOL    H9229888   2.544   2.808   5.518 -0.3222 -0.0751  1.7293
   79MOL    H9329889   2.699   2.865   5.488  0.0893 -0.5693  0.1562
   79MOL    H9429890   2.480   3.046   5.592  0.0710  1.2092  0.3675
   79MOL    H9529891   2.638   3.100   5.569 -2.6402  0.2878  2.2902
   79MOL    H9629892   2.626   2.988   5.690 -1.5736  0.0495  0.6579
   79MOL    C9729893   2.309   2.992   5.020 -0.0802  0.1682  0.4243
   79MOL    C9829894   2.192   3.070   5.079 -0.4730 -0.1299  0.1614
   79MOL    C9929895   2.095   2.967   5.145 -0.1769  0.3828 -0.1758
   79MOL   C10029896   1.973   3.036   5.203  0.7434 -0.2148 -0.1277
   79MOL   C10129897   1.864   2.932   5.245  0.4057  0.7342 -1.1124
   79MOL   C10229898   1.742   2.977   5.323  0.1688 -0.3128  0.1398
   79MOL   O10329899   2.232   3.166   5.180 -0.0293 -0.3661  0.2981
   79MOL   H10429900   2.281   2.928   4.936  0.0940  2.8137 -1.7168
   79MOL   H10529901   2.387   3.062   4.989 -0.8916  1.3228  0.9472
   79MOL   H10629902   2.144   3.113   4.992  2.6203  0.5942 -1.2497
   79MOL   H10729903   2.134   2.906   5.226  1.0677  0.5698 -0.6319
   79MOL   H10829904   2.074   2.904   5.059  0.2129  0.8425 -0.6081
   79MOL   H10929905   1.925   3.104   5.133 -0.0601  0.9982  1.5684
   79MOL   H11029906   1.993   3.100   5.289 -0.7005  1.6663 -1.1441
   79MOL   H11129907   1.921   2.860   5.304 -0.8894 -0.3507 -1.1675
   79MOL   H11229908   1.836   2.876   5.156 -2.6902  0.5841 -0.0919
   79MOL   H11329909   1.678   3.044   5.265  0.0110 -0.1675  0.4825
   79MOL   H11429910   1.672   2.902   5.362 -2.6904 -0.1459 -4.2885
   79MOL   H11529911   1.786   3.016   5.414 -0.7529  0.2258  0.3637
   79MOL   C11629912   2.244   3.301   5.132 -0.4005  0.0223  0.4349
   79MOL   C11729913   2.351   3.397   5.203  0.1939 -0.2237 -0.0069
   79MOL   C11829914   2.317   3.541   5.164 -0.1471 -0.0835 -0.3435
   79MOL   C11929915   2.388   3.650   5.257 -0.6558  0.2684  0.0436
   79MOL   C12029916   2.351   3.798   5.250 -0.4564 -0.3996  0.4810
   79MOL   C12129917   2.203   3.827   5.280  0.6250  0.5376  0.0289
   79MOL   O12229918   2.480   3.375   5.145  0.5658 -0.7470  0.0643
   79MOL   H12329919   2.266   3.301   5.026 -0.0534 -1.9206  0.4930
   79MOL   H12429920   2.147   3.350   5.140 -1.2417 -1.6322  0.5095
   79MOL   H12529921   2.349   3.378   5.310  0.6271  0.5901  0.1475
   79MOL   H12629922   2.351   3.558   5.061 -0.4042  1.6200 -0.1646
   79MOL   H12729923   2.208   3.550   5.169 -0.2095  1.3531 -2.9908
   79MOL   H12829924   2.492   3.649   5.226 -0.3642 -0.4145  1.0354
   79MOL   H12929925   2.372   3.617   5.360 -2.0759 -1.9350 -0.8286
   79MOL   H13029926   2.405   3.861   5.321  0.8129 -0.5961 -0.3008
   79MOL   H13129927   2.375   3.833   5.150  0.1677  1.4833  1.2584
   79MOL   H13229928   2.174   3.812   5.384 -0.7536  0.1800 -0.3971
   79MOL   H13329929   2.182   3.931   5.254 -2.9244 -0.2814 -0.6550
   79MOL   H13429930   2.139   3.760   5.222  1.2638  0.6541 -0.8320
   79MOL   C13529931   2.550   3.270   5.208 -0.8792  0.3830 -0.0887
   79MOL   C13629932   2.689   3.251   5.140 -0.6336 -0.1770  0.6571
   79MOL   C13729933   2.767   3.382   5.134 -0.3634  0.9998  0.5717
   79MOL   C13829934   2.912   3.366   5.086  0.1357  0.0116  0.1297
   79MOL   C13929935   2.994   3.493   5.115 -0.7526 -0.0293  0.2751
   79MOL   C14029936   2.968   3.615   5.022  0.2589 -0.7071 -0.3292
   79MOL   O14129937   2.664   3.185   5.016  0.4488 -0.5823  0.2104
   79MOL   H14229938   2.570   3.288   5.314 -0.6014 -0.6545  0.0371
   79MOL   H14329939   2.491   3.179   5.197  0.7178 -0.7869  0.8921
   79MOL   H14429940   2.737   3.181   5.208 -1.3314 -0.7227  0.5970
   79MOL   H14529941   2.714   3.452   5.070 -0.6747  0.7222  0.5229
   79MOL   H14629942   2.756   3.431   5.230 -1.4408  1.3111  0.2905
   79MOL   H14729943   2.920   3.334   4.982  0.7852  0.9001 -0.1094
   79MOL   H14829944   2.950   3.286   5.148 -1.0247 -1.1287 -0.6064
   79MOL   H14929945   3.096   3.454   5.114 -1.1070 -0.9896 -1.1318
   79MOL   H15029946   2.978   3.514   5.220 -1.1685  1.5566 -0.0953
   79MOL   H15129947   3.052   3.683   5.032 -0.8031  0.1520  3.3744
   79MOL   H15229948   2.955   3.589   4.917 -0.7103  0.6655 -0.5561
   79MOL   H15329949   2.875   3.667   5.045 -0.0007 -1.2671 -0.0793
   79MOL   C15429950   2.626   3.267   4.911  0.0731  0.1928  0.2861
   79MOL   C15529951   2.598   3.179   4.787  0.4912  0.3452  0.1972
   79MOL   C15629952   2.529   3.246   4.664 -0.3490  0.1454  0.1236
   79MOL   C15729953   2.473   3.149   4.563 -0.1137 -0.1584  0.1710
   79MOL   C15829954   2.399   3.222   4.448 -0.4512  0.1596 -0.5260
   79MOL   C15929955   2.420   3.155   4.311 -0.7652 -0.0896  0.7378
   79MOL   O16029956   2.716   3.126   4.733  0.0754  0.2372 -0.2709
   79MOL   H16129957   2.703   3.341   4.893  0.6382 -0.1087  1.3954
   79MOL   H16229958   2.532   3.320   4.930  0.0286  0.3002 -0.2278
   79MOL   H16329959   2.538   3.094   4.818  1.8745 -0.4604  0.6917
   79MOL   H16429960   2.606   3.312   4.623 -0.1609 -0.1821 -0.0475
   79MOL   H16529961   2.455   3.313   4.709  0.4902  1.6469 -0.6723
   79MOL   H16629962   2.409   3.072   4.606  0.0171  0.9340  2.4254
   79MOL   H16729963   2.555   3.092   4.520 -0.5034 -0.2227 -0.4933
   79MOL   H16829964   2.296   3.247   4.476 -0.5022 -0.9303  0.2800
   79MOL   H16929965   2.445   3.320   4.439 -1.7949  0.8603  0.0197
   79MOL   H17029966   2.371   3.059   4.294 -0.0638 -0.5660  1.3979
   79MOL   H17129967   2.525   3.145   4.285 -1.1235 -1.3576 -0.3138
   79MOL   H17229968   2.387   3.220   4.230 -1.9337 -2.5764 -0.8684
   79MOL   C17329969   2.772   3.006   4.789  0.0555  1.1809 -0.0800
   79MOL   C17429970   2.895   2.955   4.709 -0.2897 -0.6281 -0.0142
   79MOL   C17529971   2.866   2.924   4.562 -0.6833  0.9220 -0.6338
   79MOL   C17629972   2.966   2.835   4.482 -0.3095 -0.2625 -0.3062
   79MOL   C17729973   2.976   2.863   4.330  0.0573 -0.1038 -0.0914
   79MOL   C17829974   3.067   2.979   4.307 -0.5413  0.1825  0.0921
   79MOL   O17929975   3.017   3.035   4.717 -0.3830 -0.1065  0.0700
   79MOL   H18029976   2.706   2.921   4.805  2.5820 -0.7895  0.1853
   79MOL   H18129977   2.820   3.035   4.882 -0.4898  0.1361  0.5254
   79MOL   H18229978   2.935   2.865   4.754 -0.3079 -0.5670  0.1254
   79MOL   H18329979   2.764   2.887   4.559 -1.3165  2.5995 -0.5921
   79MOL   H18429980   2.854   3.012   4.499 -1.0799  0.3616 -1.3397
   79MOL   H18529981   3.063   2.836   4.533 -1.6519  0.4388  2.3177
   79MOL   H18629982   2.941   2.730   4.498 -0.4830 -0.2356 -0.4030
   79MOL   H18729983   3.011   2.769   4.289  1.1936  0.3793 -0.2504
   79MOL   H18829984   2.875   2.871   4.291  0.4554  2.7170 -0.6789
   79MOL   H18929985   3.023   3.065   4.358  2.1147  0.5200  1.8837
   79MOL   H19029986   3.077   2.993   4.199  0.6668 -0.2048  0.1462
   79MOL   H19129987   3.167   2.959   4.345 -0.1836 -0.9377 -1.3778
   79MOL   C19229988   3.006   3.172   4.682 -0.1697  0.4487  0.9789
   79MOL   C19329989   3.147   3.236   4.694  0.2470  0.3845  0.2021
   79MOL   C19429990   3.129   3.387   4.689  0.3931 -0.3678 -0.2593
   79MOL   C19529991   3.260   3.467   4.694 -0.3885 -0.1025 -0.2228
   79MOL   C19629992   3.234   3.615   4.664 -1.2114  0.0329  0.1033
   79MOL   C19729993   3.363   3.700   4.689 -0.5155  0.6467 -0.1552
   79MOL   O19829994   3.224   3.192   4.578  0.0260  0.2138  0.3371
   79MOL   H19929995   2.969   3.182   4.580 -0.7124  0.5515  1.1830
   79MOL   H20029996   2.942   3.226   4.753 -1.1158  0.0694  0.4270
   79MOL   H20129997   3.199   3.213   4.787  0.8730 -1.2998 -0.5370
   79MOL   H20229998   3.083   3.411   4.593 -0.2585  2.8481  0.8079
   79MOL   H20329999   3.074   3.436   4.769  1.2439  2.5739 -1.3970
   79MOL   H20430000   3.334   3.425   4.626  1.2644  0.2674  1.2695
   79MOL   H20530001   3.299   3.458   4.796  0.1506 -0.1622 -0.4303
   79MOL   H20630002   3.199   3.602   4.562  0.2891 -1.5697 -0.2285
   79MOL   H20730003   3.154   3.651   4.729 -0.5750 -0.9453  1.4562
   79MOL   H20830004   3.449   3.681   4.624 -1.2907 -1.4643 -0.6220
   79MOL   H20930005   3.356   3.808   4.685 -2.5814  0.5665  0.7690
   79MOL   H21030006   3.395   3.678   4.791  0.3313 -0.4120 -0.6403
   79MOL   C21130007   3.292   3.069   4.595 -0.6380  0.3288 -0.0775
   79MOL   C21230008   3.429   3.109   4.656  0.0698 -0.1385 -0.3187
   79MOL   C21330009   3.522   3.186   4.558 -0.8483  0.3987 -0.2172
   79MOL   C21430010   3.659   3.213   4.619 -0.0397  0.4908 -0.1144
   79MOL   C21530011   3.774   3.281   4.542  0.8970  0.3651  0.8071
   79MOL   C21630012   3.732   3.396   4.456  0.6345 -0.1855 -0.4188
   79MOL   O21730013   3.486   2.986   4.704 -0.3883 -0.3425  0.0330
   79MOL   H21830014   3.318   3.016   4.503  1.8377  0.0511  0.7474
   79MOL   H21930015   3.241   3.001   4.665  0.8152 -0.0782  0.6009
   79MOL   H22030016   3.415   3.165   4.748  0.2281 -2.9484  1.4851
   79MOL   H22130017   3.542   3.119   4.474  0.9472 -0.0945  0.5847
   79MOL   H22230018   3.477   3.276   4.515  1.4741  2.0918  0.7693
   79MOL   H22330019   3.639   3.270   4.710 -0.0384 -1.1812  0.9470
   79MOL   H22430020   3.703   3.119   4.652 -3.1654  0.4044  4.3256
   79MOL   H22530021   3.856   3.318   4.603  0.1009  1.5943  1.1463
   79MOL   H22630022   3.817   3.209   4.473 -1.7740 -1.2201  0.7366
   79MOL   H22730023   3.700   3.479   4.520  0.1896 -0.7870  0.1430
   79MOL   H22830024   3.666   3.375   4.372 -0.1443  2.5196 -0.5322
   79MOL   H22930025   3.819   3.420   4.395 -0.3003 -0.7593 -2.0236
   79MOL   C23030026   3.456   2.945   4.834 -0.3804 -0.1130 -0.3094
   79MOL   C23130027   3.458   2.791   4.831  0.5624  0.2371  0.5000
   79MOL   C23230028   3.341   2.730   4.749 -0.0118 -0.1211  0.6082
   79MOL   C23330029   3.361   2.586   4.712  0.2976  0.7994  0.6198
   79MOL   C23430030   3.257   2.529   4.609 -0.1111 -0.5108 -0.5288
   79MOL   C23530031   3.318   2.394   4.566  0.2380  0.3259  0.9773
   79MOL   O23630032   3.448   2.746   4.964  0.1784  0.6519 -0.2309
   79MOL   H23730033   3.529   2.998   4.896 -1.1223 -2.1760  2.4355
   79MOL   H23830034   3.362   2.995   4.861  0.0964 -0.1424  1.5222
   79MOL   H23930035   3.551   2.755   4.786  1.5418  1.0362  1.8437
   79MOL   H24030036   3.359   2.780   4.653  2.3955 -1.4137  0.3382
   79MOL   H24130037   3.242   2.762   4.782  0.8453  0.6417  2.4916
   79MOL   H24230038   3.349   2.538   4.809  1.1875 -1.5946 -0.4203
   79MOL   H24330039   3.462   2.569   4.676 -0.0113 -1.9858  0.9266
   79MOL   H24430040   3.168   2.509   4.669  1.2523 -2.9600  0.7320
   79MOL   H24530041   3.257   2.609   4.535 -0.3626  0.0938  0.1139
   79MOL   H24630042   3.317   2.325   4.651 -0.7772  0.8741  1.4275
   79MOL   H24730043   3.423   2.396   4.537  0.3331 -1.4089  1.1168
   79MOL   H24830044   3.261   2.347   4.486  0.9146 -0.8497  1.1631
   79MOL   C24930045   3.573   2.749   5.030 -0.0140 -1.0388 -0.3242
   79MOL   C25030046   3.556   2.773   5.181  0.2915  0.0071  0.0043
   79MOL   C25130047   3.694   2.793   5.254 -0.2988  0.5887  0.0478
   79MOL   C25230048   3.785   2.670   5.245  0.2195 -0.3381 -0.4051
   79MOL   C25330049   3.914   2.685   5.335  0.2312 -0.8772  0.4257
   79MOL   C25430050   4.021   2.769   5.276 -0.0111 -0.0757  0.5951
   79MOL   O25530051   3.496   2.660   5.243  0.2752 -0.0358  0.0950
   79MOL   H25630052   3.624   2.658   4.997  2.0457  0.3326 -0.9965
   79MOL   H25730053   3.642   2.821   4.987 -0.9091  1.3787  2.1255
   79MOL   H25830054   3.509   2.869   5.203  2.6614  1.6203 -1.6822
   79MOL   H25930055   3.736   2.889   5.224 -1.7624  1.5044  0.8612
   79MOL   H26030056   3.677   2.805   5.362 -0.2363  0.0093  0.1241
   79MOL   H26130057   3.721   2.586   5.271  1.6376 -1.0909  0.7426
   79MOL   H26230058   3.808   2.645   5.141 -0.7247  2.4469 -1.3400
   79MOL   H26330059   3.883   2.725   5.432  1.4866 -0.3494  0.6209
   79MOL   H26430060   3.951   2.584   5.353 -1.0296 -1.5175 -0.4874
   79MOL   H26530061   4.045   2.728   5.177  0.5365 -0.2152  0.7842
   79MOL   H26630062   4.111   2.773   5.337 -1.0233 -0.1924  2.1218
   79MOL   H26730063   3.983   2.869   5.257 -0.0625 -0.0722  0.7185
   79MOL   C26830064   3.397   2.699   5.337 -0.3679 -0.4869  0.2885
   79MOL   C26930065   3.316   2.574   5.398  0.6729  0.5951  0.2556
   79MOL   C27030066   3.186   2.621   5.457 -0.8446  0.4516 -0.0408
   79MOL   C27130067   3.097   2.507   5.480 -0.7432 -0.0881 -0.0316
   79MOL   C27230068   2.973   2.562   5.552 -0.0744 -0.0055 -0.2068
   79MOL   C27330069   2.869   2.458   5.559  0.4142  0.1586  0.2999
   79MOL   O27430070   3.394   2.520   5.506 -0.0552  0.4259  0.3858
   79MOL   H27530071   3.327   2.761   5.281 -1.2406 -1.9220 -0.2476
   79MOL   H27630072   3.434   2.764   5.416  0.2493  0.4797 -0.7785
   79MOL   H27730073   3.292   2.498   5.324  1.0455 -0.6250  1.3769
   79MOL   H27830074   3.204   2.689   5.540 -0.8163  1.6458 -1.0166
   79MOL   H27930075   3.138   2.688   5.386  2.1985  1.6355 -1.0486
   79MOL   H28030076   3.063   2.453   5.391  0.3475  0.4943 -0.8178
   79MOL   H28130077   3.148   2.431   5.539 -1.4062  0.8606  1.8108
   79MOL   H28230078   2.983   2.589   5.657 -3.1793  1.5217 -0.2480
   79MOL   H28330079   2.921   2.646   5.506  0.8343 -0.9104 -2.9926
   79MOL   H28430080   2.837   2.416   5.464  2.9055 -0.5956 -0.2574
   79MOL   H28530081   2.902   2.379   5.626  1.0194  1.3339  1.4050
   79MOL   H28630082   2.784   2.486   5.620 -0.0496  1.0541 -0.7501
   79MOL   C28730083   3.496   2.427   5.457  0.1111  0.2320  0.0197
   79MOL   C28830084   3.547   2.351   5.580 -0.1738  0.0642 -0.0200
   79MOL   C28930085   3.650   2.248   5.531 -0.2112 -0.0949 -0.1438
   79MOL   C29030086   3.789   2.310   5.525 -0.4984 -0.2588  0.0287
   79MOL   C29130087   3.852   2.339   5.656 -0.5014 -0.7280  0.1537
   79MOL   C29230088   3.999   2.402   5.655 -0.4722  0.2726  1.2362
   79MOL   O29330089   3.438   2.280   5.638  0.2705  0.1884 -0.3643
   79MOL   H29430090   3.581   2.483   5.419 -0.6350  0.1698 -1.7997
   79MOL   H29530091   3.449   2.358   5.387 -0.1525  0.8176 -0.3838
   79MOL   H29630092   3.595   2.429   5.640 -0.1143 -1.3092  1.7810
   79MOL   H29730093   3.648   2.163   5.599  0.0223  0.0280  0.0173
   79MOL   H29830094   3.619   2.198   5.439 -1.8431 -1.7327  1.2577
   79MOL   H29930095   3.861   2.245   5.474 -0.3642 -1.4974  1.7621
   79MOL   H30030096   3.785   2.398   5.461  0.7811 -1.9711 -2.5187
   79MOL   H30130097   3.866   2.251   5.718 -1.8664 -1.4388 -0.5308
   79MOL   H30230098   3.795   2.408   5.719 -0.3177  0.4878 -0.9917
   79MOL   H30330099   4.051   2.405   5.751 -1.4983 -3.2767  1.9919
   79MOL   H30430100   4.060   2.339   5.592 -1.6833  0.0541  0.2637
   79MOL   H30530101   4.000   2.501   5.609 -0.5207 -0.1416  0.3364
   79MOL   C30630102   3.387   2.347   5.748  0.1625 -0.3450  0.4004
   79MOL   C30730103   3.278   2.268   5.832 -0.6205 -0.0122  0.0523
   79MOL   C30830104   3.159   2.365   5.866 -0.1101 -0.1045 -0.0266
   79MOL   C30930105   3.054   2.320   5.973  0.2980  0.5828  0.4647
   79MOL   C31030106   2.952   2.435   5.996 -0.1104  0.6193  0.3686
   79MOL   C31130107   2.836   2.402   6.089  0.6899  0.0509 -0.1113
   79MOL   O31230108   3.337   2.205   5.946 -0.4929 -0.7747  0.5190
   79MOL   H31330109   3.468   2.360   5.820 -0.4895 -1.0951  1.2736
   79MOL   H31430110   3.364   2.450   5.719  0.7624 -0.8080 -1.7622
   79MOL   H31530111   3.220   2.204   5.765 -3.1973  0.1780  2.0155
   79MOL   H31630112   3.113   2.416   5.781  1.4256 -0.4785 -1.1081
   79MOL   H31730113   3.208   2.452   5.909 -1.0914  0.7542 -0.6079
   79MOL   H31830114   2.995   2.243   5.925  0.6350 -1.0250  2.5779
   79MOL   H31930115   3.102   2.284   6.064  0.4817 -0.0201  0.1351
   79MOL   H32030116   2.908   2.464   5.900 -0.8012 -0.8786  0.2239
   79MOL   H32130117   3.007   2.521   6.035  0.2645  0.1771  0.8116
   79MOL   H32230118   2.879   2.373   6.185  4.5718  1.5625 -1.2902
   79MOL   H32330119   2.775   2.493   6.092  1.8144  0.8785 -1.7172
   79MOL   H32430120   2.764   2.330   6.049 -1.3531  1.5982  0.6714
   79MOL   C32530121   3.402   2.084   5.919  0.7709 -0.3945 -0.1311
   79MOL   C32630122   3.454   2.021   6.051  0.3378 -0.7219 -0.0294
   79MOL   C32730123   3.561   2.110   6.128 -0.2640  0.2056 -0.0307
   79MOL   C32830124   3.698   2.128   6.056 -0.5620 -0.2795 -0.1856
   79MOL   C32930125   3.795   2.218   6.137 -0.4593 -0.3865 -0.2995
   79MOL   C33030126   3.925   2.235   6.052  0.5722 -0.4708  0.6937
   79MOL   O33130127   3.523   1.896   6.025 -0.3636  0.5426  0.2353
   79MOL   H33230128   3.484   2.105   5.850  2.8889 -2.8878  1.5256
   79MOL   H33330129   3.345   2.011   5.862  4.4777 -3.5110 -0.0221
   79MOL   H33430130   3.374   2.001   6.121 -0.1326  0.5290 -0.1963
   79MOL   H33530131   3.507   2.199   6.160  1.3003  0.8963  0.7331
   79MOL   H33630132   3.582   2.058   6.222 -0.0956 -0.2821 -0.3345
   79MOL   H33730133   3.747   2.033   6.034 -1.2755 -0.6752 -0.0573
   79MOL   H33830134   3.687   2.168   5.955  0.4589 -0.8015 -0.5175
   79MOL   H33930135   3.746   2.314   6.155 -1.9746 -0.5671 -3.2488
   79MOL   H34030136   3.822   2.183   6.237  3.6921 -0.7513 -1.4329
   79MOL   H34130137   3.903   2.282   5.956  1.1972 -0.7600  0.4038
   79MOL   H34230138   4.017   2.283   6.086  1.2178 -0.0847 -1.4869
   79MOL   H34330139   3.966   2.136   6.033 -0.8620 -0.9586  0.1071
   79MOL   C34430140   3.454   1.781   6.051 -0.0655 -0.7852 -0.2767
   79MOL   C34530141   3.545   1.661   6.047 -0.6851 -0.5680 -0.3249
   79MOL   C34630142   3.619   1.641   5.919 -0.4064  0.7767 -0.6757
   79MOL   C34730143   3.702   1.513   5.921  0.4189 -0.3195  0.8776
   79MOL   C34830144   3.621   1.392   5.851 -0.1569  0.1452 -0.8804
   79MOL   C34930145   3.701   1.268   5.808 -0.2736  0.7513  0.8703
   79MOL   O35030146   3.637   1.653   6.157  0.0152  0.2316 -0.0385
   79MOL   H35130147   3.372   1.756   5.983  0.1443 -0.6141 -0.5953
   79MOL   H35230148   3.405   1.779   6.148  1.6670 -1.4922  0.5923
   79MOL   H35330149   3.486   1.570   6.050  0.2471 -1.1512  0.7750
   79MOL   H35430150   3.678   1.729   5.894  0.8723 -0.3451 -1.7258
   79MOL   H35530151   3.555   1.644   5.831  0.6976  0.3943 -1.5104
   79MOL   H35630152   3.752   1.485   6.013  1.1343 -2.3933 -0.0911
   79MOL   H35730153   3.793   1.525   5.861  0.0707  0.0449  0.4197
   79MOL   H35830154   3.573   1.424   5.758  0.9274  0.4307 -1.3509
   79MOL   H35930155   3.537   1.367   5.915  0.5224 -2.3699 -0.9260
   79MOL   H36030156   3.756   1.217   5.887  0.7863  2.8800  1.5508
   79MOL   H36130157   3.768   1.288   5.724 -2.3751 -2.2482 -1.6454
   79MOL   H36230158   3.627   1.200   5.764  1.8348 -2.4732  2.1010
   79MOL   C36330159   3.733   1.757   6.178  0.0606 -0.2671  0.5047
   79MOL   C36430160   3.837   1.711   6.288  0.5240 -0.5171  0.2472
   79MOL   C36530161   3.939   1.827   6.321  0.6466 -0.2839  0.5535
   79MOL   C36630162   4.049   1.850   6.222  0.5447  0.2480  0.3232
   79MOL   C36730163   4.125   1.983   6.241  0.1684 -0.4523  0.3984
   79MOL   C36830164   4.229   2.003   6.136  0.1546  0.3048 -0.2152
   79MOL   O36930165   3.768   1.703   6.409  0.0326  0.5328 -0.2698
   79MOL   H37030166   3.676   1.844   6.210 -0.9587 -0.4310 -0.8221
   79MOL   H37130167   3.784   1.789   6.087  1.5439  0.4851  1.5782
   79MOL   H37230168   3.889   1.617   6.269 -0.1349 -0.5277 -1.6161
   79MOL   H37330169   3.888   1.919   6.350  0.2391 -0.8710  1.7089
   79MOL   H37430170   3.992   1.803   6.412  2.3261  1.3947  0.0414
   79MOL   H37530171   4.120   1.767   6.224  0.9695  0.6080  0.3087
   79MOL   H37630172   4.018   1.834   6.118 -0.5022  4.5172 -0.0786
   79MOL   H37730173   4.054   2.065   6.233 -1.6070 -1.9864 -0.1067
   79MOL   H37830174   4.168   1.984   6.341  0.6659 -2.3064  0.2290
   79MOL   H37930175   4.311   1.932   6.148  0.1190  0.3394  0.2202
   79MOL   H38030176   4.197   2.019   6.033 -0.6142  1.2779  0.1618
   79MOL   H38130177   4.280   2.098   6.154 -0.6610  0.5122  1.0815
   79MOL   H38230178   3.710   1.628   6.400  0.0315  0.7649 -2.3651
   80MOL     C130179   6.169   3.090   6.171 -0.1556 -0.2802 -0.7024
   80MOL     C230180   6.298   3.115   6.090  0.2515  0.1952  0.2896
   80MOL     C330181   6.298   3.031   5.968 -0.1801 -0.7131  0.3468
   80MOL     C430182   6.431   3.050   5.891  0.3397  0.1050 -0.6180
   80MOL     C530183   6.460   2.948   5.784 -0.1798  0.6699  0.4616
   80MOL     C630184   6.554   2.831   5.828 -0.2930  0.6181  0.1795
   80MOL     O730185   6.304   3.249   6.061 -0.0400  0.4211 -0.2490
   80MOL     H830186   6.174   3.006   6.239  2.4595  1.2315  1.0765
   80MOL     H930187   6.089   3.075   6.099 -1.4215  3.3523 -0.1868
   80MOL    H1030188   6.387   3.098   6.150 -0.8021 -1.6949  1.3580
   80MOL    H1130189   6.288   2.928   6.003  0.6528 -1.3275 -1.1472
   80MOL    H1230190   6.213   3.052   5.904  0.5333 -0.2609 -0.4598
   80MOL    H1330191   6.435   3.150   5.849 -2.5653 -0.7357 -3.0650
   80MOL    H1430192   6.510   3.049   5.966  1.0395  2.4578 -1.2969
   80MOL    H1530193   6.365   2.909   5.748  0.1933 -1.0928  1.3103
   80MOL    H1630194   6.506   2.994   5.697  0.1063  0.4716  0.5072
   80MOL    H1730195   6.652   2.861   5.864  0.3017 -1.1900  0.1027
   80MOL    H1830196   6.503   2.782   5.911  2.5847 -2.3134  0.2900
   80MOL    H1930197   6.554   2.759   5.746  2.4079  0.1846  0.5308
   80MOL    H2030198   6.148   3.184   6.223 -1.5735 -0.3074 -1.2008
   80MOL    C2130199   6.415   3.326   6.098 -1.1166  0.4798 -0.1773
   80MOL    C2230200   6.402   3.459   6.035  0.2284  0.6936  0.1903
   80MOL    C2330201   6.253   3.521   6.034 -0.3217 -0.3408  0.2001
   80MOL    C2430202   6.243   3.637   5.928  0.0145 -0.4512 -0.1915
   80MOL    C2530203   6.102   3.690   5.918 -0.7891 -0.8289 -0.8158
   80MOL    C2630204   6.087   3.823   5.833 -0.2520 -1.2584 -0.3370
   80MOL    O2730205   6.489   3.544   6.104 -0.2899  0.0504  0.6182
   80MOL    H2830206   6.427   3.342   6.205  2.2610  1.6465 -0.6978
   80MOL    H2930207   6.508   3.293   6.053 -1.9050  0.9454 -2.2049
   80MOL    H3030208   6.426   3.446   5.929  0.7374  1.7214  0.1716
   80MOL    H3130209   6.234   3.563   6.133  3.0191 -1.5611  1.4316
   80MOL    H3230210   6.178   3.444   6.017 -1.0480  0.2243  0.8355
   80MOL    H3330211   6.287   3.623   5.830  0.6464  0.2969 -0.0281
   80MOL    H3430212   6.314   3.709   5.969 -0.1715 -1.5138  2.0832
   80MOL    H3530213   6.051   3.611   5.863  0.0215  0.0198 -2.8376
   80MOL    H3630214   6.064   3.726   6.013  0.1569  0.0982 -0.7879
   80MOL    H3730215   6.155   3.900   5.871  1.0737 -1.7763 -1.6438
   80MOL    H3830216   5.989   3.869   5.846 -0.4851 -2.0979  0.9600
   80MOL    H3930217   6.093   3.818   5.725 -0.4390 -1.4435 -0.3365
   80MOL    C4030218   6.629   3.530   6.065 -0.2617 -0.0476 -0.3559
   80MOL    C4130219   6.713   3.623   6.141  0.0420  0.1535  1.1627
   80MOL    C4230220   6.841   3.667   6.069 -0.4294  0.1239 -0.4189
   80MOL    C4330221   6.933   3.761   6.158  0.5304  0.2675 -0.4096
   80MOL    C4430222   7.073   3.781   6.092  0.2799 -0.0100 -0.1957
   80MOL    C4530223   7.158   3.887   6.167 -0.0993  0.9693  0.3069
   80MOL    O4630224   6.757   3.578   6.270  0.6562 -0.0208 -0.6649
   80MOL    H4730225   6.638   3.548   5.958  0.4507  1.5368 -0.0462
   80MOL    H4830226   6.657   3.428   6.089 -1.0348 -0.6440 -1.9268
   80MOL    H4930227   6.661   3.719   6.147  0.3021  0.3888 -0.3262
   80MOL    H5030228   6.898   3.590   6.018  0.5513  0.6556 -0.1209
   80MOL    H5130229   6.804   3.736   5.992 -1.7992 -0.4730 -0.3141
   80MOL    H5230230   6.951   3.733   6.261 -1.7013  1.3155  0.2973
   80MOL    H5330231   6.888   3.860   6.171 -1.6414 -0.2940 -3.1541
   80MOL    H5430232   7.116   3.681   6.085 -0.6469 -0.5904  1.9424
   80MOL    H5530233   7.055   3.819   5.991  0.9633 -0.1176 -0.3608
   80MOL    H5630234   7.216   3.938   6.091 -1.4716  1.2485 -0.5708
   80MOL    H5730235   7.094   3.962   6.215 -0.8159 -0.7716  2.1193
   80MOL    H5830236   7.233   3.851   6.237 -0.9625  0.7356  1.1332
   80MOL    C5930237   6.671   3.622   6.375  0.0600  0.6168  0.1900
   80MOL    C6030238   6.729   3.544   6.501 -0.0352 -0.6863  0.3511
   80MOL    C6130239   6.716   3.646   6.622 -0.3074  0.0985 -0.3523
   80MOL    C6230240   6.778   3.596   6.748 -0.0850  0.1520 -0.7926
   80MOL    C6330241   6.776   3.704   6.861 -0.4249  0.1762 -0.0305
   80MOL    C6430242   6.816   3.650   7.001  0.0173 -0.4200 -0.1648
   80MOL    O6530243   6.653   3.432   6.529  0.0307 -0.7629 -0.2766
   80MOL    H6630244   6.568   3.603   6.345 -0.6462  4.1334  0.1944
   80MOL    H6730245   6.680   3.729   6.389  0.1164  0.6217  0.1183
   80MOL    H6830246   6.834   3.515   6.494  0.6052  0.4155  4.2059
   80MOL    H6930247   6.608   3.655   6.636 -0.0672 -0.6896  2.2237
   80MOL    H7030248   6.744   3.749   6.600  1.1639 -0.7096 -2.3801
   80MOL    H7130249   6.879   3.555   6.736  0.1526  0.1029  1.2033
   80MOL    H7230250   6.733   3.500   6.774  0.3777 -0.1319 -1.0291
   80MOL    H7330251   6.680   3.755   6.870 -0.0638  0.7057  0.8033
   80MOL    H7430252   6.855   3.776   6.837 -1.4727  1.0823 -0.8453
   80MOL    H7530253   6.822   3.732   7.072 -1.6217  0.1689 -0.6795
   80MOL    H7630254   6.749   3.569   7.031 -1.0635  1.0833  1.5614
   80MOL    H7730255   6.913   3.602   6.989  0.3903  0.3727 -0.2884
   80MOL    C7830256   6.661   3.329   6.433  0.6804 -0.0825 -0.3635
   80MOL    C7930257   6.562   3.214   6.471  0.4748 -0.4848  0.1617
   80MOL    C8030258   6.575   3.082   6.387 -0.8271 -0.0106  0.2134
   80MOL    C8130259   6.477   2.967   6.428  0.2316 -0.2560  1.0391
   80MOL    C8230260   6.505   2.832   6.367  0.2999  0.7713 -0.4207
   80MOL    C8330261   6.517   2.829   6.212  0.0015  0.0032  1.0325
   80MOL    O8430262   6.434   3.268   6.450  0.4167 -0.1091 -0.3272
   80MOL    H8530263   6.756   3.278   6.419  0.1055 -1.3981  0.4499
   80MOL    H8630264   6.640   3.365   6.332 -1.1709 -0.8242 -0.2678
   80MOL    H8730265   6.569   3.177   6.573  2.7682 -1.1195 -0.1954
   80MOL    H8830266   6.557   3.101   6.281 -0.4955 -1.2264 -0.0649
   80MOL    H8930267   6.677   3.045   6.389 -0.5897  0.7218  2.3644
   80MOL    H9030268   6.374   2.992   6.400  0.7811  1.5158  0.5420
   80MOL    H9130269   6.473   2.953   6.536 -1.1838  1.6932  1.2715
   80MOL    H9230270   6.595   2.786   6.407 -0.7578 -0.9142  0.1021
   80MOL    H9330271   6.418   2.771   6.394  2.4685 -0.6086  3.8509
   80MOL    H9430272   6.426   2.864   6.162  1.1529  2.4101  0.5546
   80MOL    H9530273   6.529   2.725   6.178 -1.1248 -0.3410  1.6479
   80MOL    H9630274   6.607   2.882   6.183 -0.0865 -0.9535 -1.1568
   80MOL    C9730275   6.375   3.329   6.567 -0.1215 -0.0149  0.6551
   80MOL    C9830276   6.226   3.351   6.542  0.2219 -0.3740  0.1257
   80MOL    C9930277   6.197   3.452   6.429 -0.3209 -0.0074 -0.7684
   80MOL   C10030278   6.049   3.491   6.432  0.0687  0.1875 -0.0487
   80MOL   C10130279   6.002   3.587   6.321 -0.2861  0.5684  0.5004
   80MOL   C10230280   6.051   3.737   6.330 -0.5006  0.9788  0.7863
   80MOL   O10330281   6.167   3.225   6.519  0.0065 -0.6436  0.2625
   80MOL   H10430282   6.432   3.419   6.592 -0.2336  0.2396  0.0020
   80MOL   H10530283   6.378   3.273   6.660  2.4571 -0.2037  0.4748
   80MOL   H10630284   6.184   3.394   6.633 -0.6764 -0.9384 -0.0188
   80MOL   H10730285   6.226   3.402   6.336  0.6779  0.5177 -0.7455
   80MOL   H10830286   6.258   3.542   6.436 -0.1807 -0.1780  0.2716
   80MOL   H10930287   6.036   3.541   6.528  0.2610 -1.3490  0.7969
   80MOL   H11030288   5.978   3.408   6.428  0.4152 -0.0813 -0.7502
   80MOL   H11130289   5.896   3.595   6.343 -0.8098  0.3769 -1.8305
   80MOL   H11230290   6.002   3.545   6.220  1.2154 -1.4375  1.2913
   80MOL   H11330291   6.037   3.782   6.429 -1.7482  0.0353  1.0530
   80MOL   H11430292   6.157   3.747   6.307 -0.1429  0.3859  2.0968
   80MOL   H11530293   6.003   3.805   6.260 -0.1999 -0.7837 -1.1933
   80MOL   C11630294   6.152   3.144   6.639 -1.2120 -0.2685  0.7406
   80MOL   C11730295   6.043   3.040   6.612 -0.4256  0.0717  0.1180
   80MOL   C11830296   5.905   3.097   6.634 -0.0098  0.4916  0.2962
   80MOL   C11930297   5.787   3.013   6.602 -0.0415  0.1227  0.2352
   80MOL   C12030298   5.760   2.979   6.448 -0.0982 -0.1870 -0.1293
   80MOL   C12130299   5.821   2.849   6.392 -0.0681  0.0784  0.4001
   80MOL   O12230300   6.080   2.923   6.698  0.1277 -0.6503 -0.0161
   80MOL   H12330301   6.251   3.098   6.644 -1.0809  0.0270  0.8995
   80MOL   H12430302   6.122   3.204   6.725  1.5738  0.1986  1.4379
   80MOL   H12530303   6.068   3.007   6.511  0.3634  2.6647 -0.5682
   80MOL   H12630304   5.890   3.137   6.734 -0.0350  1.8688 -0.2540
   80MOL   H12730305   5.894   3.191   6.580 -1.7612 -0.6944 -1.4672
   80MOL   H12830306   5.699   3.058   6.646 -0.4622 -0.2475 -0.2245
   80MOL   H12930307   5.792   2.921   6.661 -0.3464  0.3705  0.6424
   80MOL   H13030308   5.657   2.984   6.411  0.5018  3.0059 -1.5761
   80MOL   H13130309   5.799   3.062   6.389 -2.2520  1.1919  0.3405
   80MOL   H13230310   5.775   2.762   6.440 -2.8654 -0.0183 -2.2875
   80MOL   H13330311   5.803   2.840   6.285  2.3054  0.6075 -0.0608
   80MOL   H13430312   5.930   2.844   6.393  0.1872  3.9414  0.6866
   80MOL   C13530313   6.052   2.950   6.839  0.2885  0.7233 -0.2793
   80MOL   C13630314   6.092   2.832   6.925 -0.0259 -0.6747  0.2442
   80MOL   C13730315   6.032   2.844   7.066 -0.2615 -0.3598  0.4761
   80MOL   C13830316   6.059   2.720   7.153 -0.2865  0.9058  0.7447
   80MOL   C13930317   5.996   2.735   7.295  0.8721  0.5349 -1.2901
   80MOL   C14030318   6.018   2.613   7.390 -0.2807 -0.2239  0.2506
   80MOL   O14130319   6.234   2.809   6.935  0.5039 -0.6516 -0.1555
   80MOL   H14230320   6.084   3.047   6.877  0.7514  1.0078 -1.3688
   80MOL   H14330321   5.944   2.935   6.845  0.5522 -0.7194  1.4371
   80MOL   H14430322   6.045   2.742   6.885 -0.3055 -1.4870  2.3270
   80MOL   H14530323   6.074   2.931   7.119  0.1447 -0.0865 -0.2900
   80MOL   H14630324   5.926   2.866   7.060  0.1617  1.4690 -0.7048
   80MOL   H14730325   6.167   2.714   7.150 -0.3716 -0.2619 -0.7286
   80MOL   H14830326   6.020   2.632   7.102  0.1072 -0.1210  2.1636
   80MOL   H14930327   5.891   2.761   7.290  0.7183  0.4067  0.7529
   80MOL   H15030328   6.052   2.814   7.346 -0.1786 -0.2708  1.2105
   80MOL   H15130329   6.116   2.619   7.437 -0.0355 -1.0123 -0.1595
   80MOL   H15230330   5.945   2.628   7.470  0.5810 -0.1476  1.0230
   80MOL   H15330331   5.998   2.516   7.345 -0.9544  0.6985 -1.4923
   80MOL   C15430332   6.297   2.742   6.818  0.5499 -0.1329 -0.0583
   80MOL   C15530333   6.439   2.691   6.852  0.1598  0.0170  0.3195
   80MOL   C15630334   6.533   2.810   6.852  0.2610  0.1946 -0.1815
   80MOL   C15730335   6.676   2.779   6.883 -0.4314  0.3873  0.5228
   80MOL   C15830336   6.761   2.913   6.878  0.2809 -0.1770 -0.2712
   80MOL   C15930337   6.898   2.884   6.946  0.2206  0.1792  0.0671
   80MOL   O16030338   6.450   2.631   6.978 -0.3907  0.3768 -0.5469
   80MOL   H16130339   6.297   2.807   6.731  0.3834 -0.6324 -0.4337
   80MOL   H16230340   6.237   2.654   6.797  0.3915  0.2025 -1.0456
   80MOL   H16330341   6.480   2.625   6.775 -0.0059 -0.5261  0.6996
   80MOL   H16430342   6.500   2.880   6.929  0.1833  0.5899 -0.5691
   80MOL   H16530343   6.530   2.854   6.752 -0.5669 -1.1649 -0.7548
   80MOL   H16630344   6.719   2.708   6.814 -1.4078 -0.4170  0.7229
   80MOL   H16730345   6.680   2.742   6.985 -0.1075 -0.7555  0.0947
   80MOL   H16830346   6.778   2.943   6.775  1.9123  3.5623  1.0014
   80MOL   H16930347   6.712   3.000   6.922  1.7198  0.8011 -0.5781
   80MOL   H17030348   6.972   2.962   6.928  1.0932 -0.4377  0.9376
   80MOL   H17130349   6.949   2.794   6.914  0.8898  1.2094 -1.8264
   80MOL   H17230350   6.878   2.884   7.053  0.1700 -1.2210  0.0636
   80MOL   C17330351   6.393   2.502   7.002 -0.3707 -0.6744 -0.2867
   80MOL   C17430352   6.446   2.459   7.143  0.0308 -0.3217  0.0068
   80MOL   C17530353   6.340   2.392   7.225 -0.0266  0.0015 -1.0524
   80MOL   C17630354   6.281   2.256   7.169  0.3505 -1.2106 -0.0768
   80MOL   C17730355   6.181   2.196   7.272  0.4125 -0.0406  0.2845
   80MOL   C17830356   6.145   2.049   7.246  0.4906  0.2491 -0.1648
   80MOL   O17930357   6.565   2.379   7.145 -0.1320 -0.0668  0.5952
   80MOL   H18030358   6.416   2.422   6.931  3.2079  1.2004 -1.3794
   80MOL   H18130359   6.288   2.530   7.010 -0.0238  0.2881  1.1528
   80MOL   H18230360   6.481   2.551   7.189 -3.0559  0.6452  0.5865
   80MOL   H18330361   6.366   2.380   7.330 -2.2795 -1.7325 -0.6492
   80MOL   H18430362   6.254   2.459   7.220 -0.7312 -0.5705  2.1389
   80MOL   H18530363   6.217   2.283   7.085 -0.5675  0.8397  1.2469
   80MOL   H18630364   6.361   2.184   7.149  0.5170 -0.8125 -0.8826
   80MOL   H18730365   6.207   2.201   7.378  1.9668 -1.1733 -0.0225
   80MOL   H18830366   6.091   2.256   7.259 -1.1063 -2.3843 -0.2390
   80MOL   H18930367   6.075   2.023   7.325  1.5505 -0.5206  0.5440
   80MOL   H19030368   6.228   1.978   7.258 -0.1342 -0.3146  0.9337
   80MOL   H19130369   6.098   2.040   7.148  1.8204 -1.6261 -0.6650
   80MOL   C19230370   6.676   2.438   7.074  0.5544 -0.1555  1.4139
   80MOL   C19330371   6.798   2.350   7.104 -0.4100 -0.7484  0.3391
   80MOL   C19430372   6.924   2.437   7.071  0.4278  0.0970  0.5880
   80MOL   C19530373   7.045   2.374   7.126  0.7072  0.3826 -0.4040
   80MOL   C19630374   7.093   2.238   7.069  0.4421 -0.1194  0.2489
   80MOL   C19730375   7.094   2.230   6.913 -0.7923 -1.0831  0.1709
   80MOL   O19830376   6.798   2.238   7.015 -0.9352 -0.1697  0.0860
   80MOL   H19930377   6.653   2.436   6.967  0.9941  0.1655  1.3116
   80MOL   H20030378   6.701   2.539   7.108  0.0530  1.1932 -1.9911
   80MOL   H20130379   6.795   2.322   7.209  0.5927 -1.8068  0.0950
   80MOL   H20230380   6.940   2.477   6.971 -0.2537 -0.0749  0.4008
   80MOL   H20330381   6.913   2.524   7.136 -2.4673  0.7187 -0.6194
   80MOL   H20430382   7.033   2.361   7.234  0.7955 -1.1133 -0.5677
   80MOL   H20530383   7.118   2.452   7.109 -0.9438  1.6748 -1.7577
   80MOL   H20630384   7.189   2.212   7.112 -0.6593 -2.6399  1.2799
   80MOL   H20730385   7.033   2.155   7.107 -0.8870 -0.2197 -1.9696
   80MOL   H20830386   6.996   2.248   6.870  0.4502  2.5285 -1.3255
   80MOL   H20930387   7.155   2.313   6.879 -1.7166  0.4070  2.0682
   80MOL   H21030388   7.125   2.130   6.880 -2.6874 -2.0365  1.1881
   80MOL   C21130389   6.740   2.126   7.079  1.0948  0.8314 -0.1122
   80MOL   C21230390   6.751   1.990   7.004  0.1232 -0.2970 -0.5907
   80MOL   C21330391   6.669   1.880   7.072 -0.4163 -0.6042  0.5863
   80MOL   C21430392   6.516   1.882   7.035  0.2850 -0.0819  0.3067
   80MOL   C21530393   6.454   1.745   7.030 -0.4670  0.2382  0.2361
   80MOL   C21630394   6.301   1.754   7.021  0.0201 -0.5766 -0.6494
   80MOL   O21730395   6.894   1.959   7.021  0.0922 -0.3763  0.0828
   80MOL   H21830396   6.635   2.157   7.084  0.9420  0.0176  2.2763
   80MOL   H21930397   6.785   2.124   7.179  2.6183  0.8761 -0.7877
   80MOL   H22030398   6.721   1.986   6.899  1.0608 -0.7434 -0.8498
   80MOL   H22130399   6.715   1.787   7.039 -0.3504 -0.9491  1.6312
   80MOL   H22230400   6.691   1.876   7.179  1.6831  4.8052  0.5428
   80MOL   H22330401   6.461   1.932   7.115 -0.1547 -0.4900  0.2615
   80MOL   H22430402   6.508   1.935   6.940 -0.6731 -0.3186  0.2452
   80MOL   H22530403   6.485   1.691   6.940  0.5370 -1.2146  1.4164
   80MOL   H22630404   6.479   1.685   7.118  0.4396 -0.0926 -0.2487
   80MOL   H22730405   6.267   1.661   6.974 -0.1020 -1.0535  0.3520
   80MOL   H22830406   6.280   1.834   6.950 -0.4116  1.1059  1.3231
   80MOL   H22930407   6.240   1.771   7.110 -1.6808 -0.6867 -1.7666
   80MOL   C23030408   6.952   1.897   6.911 -0.3743 -0.7150  0.3432
   80MOL   C23130409   7.092   1.830   6.945  0.1288  0.5722 -0.1170
   80MOL   C23230410   7.169   1.818   6.823  0.0812 -0.8887 -0.6015
   80MOL   C23330411   7.312   1.773   6.849 -0.1460  0.7065 -0.4758
   80MOL   C23430412   7.396   1.777   6.723  0.5059 -0.6750  0.2735
   80MOL   C23530413   7.534   1.702   6.737  0.0878 -0.3990 -0.0718
   80MOL   O23630414   7.081   1.700   7.003 -0.1388  0.6910 -0.1252
   80MOL   H23730415   6.891   1.827   6.853 -0.2839  0.7867 -1.6212
   80MOL   H23830416   6.959   1.967   6.828  0.5622  0.6917  1.5809
   80MOL   H23930417   7.154   1.897   7.005  0.1138  0.1636  0.3622
   80MOL   H24030418   7.169   1.915   6.773 -0.0250 -0.5696  0.0160
   80MOL   H24130419   7.119   1.750   6.754  0.2447 -1.5152 -0.1154
   80MOL   H24230420   7.302   1.675   6.895 -0.5763 -0.2533 -2.5379
   80MOL   H24330421   7.358   1.839   6.922  0.6063  0.1492 -0.4444
   80MOL   H24430422   7.334   1.733   6.645  0.3350 -1.4851  0.8660
   80MOL   H24530423   7.417   1.883   6.707 -2.1157 -0.1708 -0.0628
   80MOL   H24630424   7.609   1.724   6.661  0.8351  2.5232  1.4555
   80MOL   H24730425   7.506   1.597   6.724  1.1976 -0.1929 -5.2093
   80MOL   H24830426   7.584   1.702   6.833 -1.2863  2.0823  0.6699
   80MOL   C24930427   7.033   1.690   7.134 -0.2312 -0.2757 -0.3519
   80MOL   C25030428   7.081   1.547   7.183 -0.7024  0.3172 -0.3312
   80MOL   C25130429   6.970   1.468   7.241  0.0241 -0.1221 -0.1509
   80MOL   C25230430   6.856   1.404   7.146  0.5897  0.3731 -0.1473
   80MOL   C25330431   6.722   1.370   7.227  0.2236 -0.0974  0.2249
   80MOL   C25430432   6.652   1.494   7.291 -0.6698 -0.1905 -0.3986
   80MOL   O25530433   7.167   1.569   7.293  0.0941  0.2952  0.4656
   80MOL   H25630434   7.077   1.773   7.190 -1.8421  0.1516  0.2989
   80MOL   H25730435   6.925   1.696   7.130 -0.2828 -0.3935  0.7915
   80MOL   H25830436   7.129   1.488   7.104 -1.5993 -1.1804  0.2238
   80MOL   H25930437   7.019   1.391   7.300 -1.0197 -0.6133  0.0881
   80MOL   H26030438   6.929   1.532   7.320 -2.3352  0.0724 -1.4794
   80MOL   H26130439   6.840   1.472   7.062  1.8549  0.3410 -0.4176
   80MOL   H26230440   6.899   1.313   7.103  2.5096  0.1568  2.1597
   80MOL   H26330441   6.656   1.317   7.159  3.5480 -3.6079 -0.4434
   80MOL   H26430442   6.737   1.289   7.298 -1.1474  0.5692  1.2863
   80MOL   H26530443   6.678   1.495   7.397  0.9323 -0.2447 -0.7854
   80MOL   H26630444   6.544   1.475   7.293 -0.3543 -2.1608 -0.2797
   80MOL   H26730445   6.676   1.592   7.250 -3.3417  0.0820 -1.4240
   80MOL   C26830446   7.292   1.629   7.258  0.0100 -0.2906 -0.6496
   80MOL   C26930447   7.388   1.619   7.376 -1.1590 -0.6641  0.0019
   80MOL   C27030448   7.488   1.742   7.364  0.3981  0.2678 -0.7568
   80MOL   C27130449   7.582   1.760   7.487  0.0125 -0.3280 -0.0715
   80MOL   C27230450   7.525   1.747   7.625  0.2410  1.0949 -0.4642
   80MOL   C27330451   7.405   1.843   7.638 -0.0887  0.0758  0.7413
   80MOL   O27430452   7.472   1.500   7.382  0.0309 -0.3926  0.8217
   80MOL   H27530453   7.278   1.730   7.220 -3.7534 -0.9535 -1.2268
   80MOL   H27630454   7.333   1.575   7.172 -0.5149 -1.2659 -0.3020
   80MOL   H27730455   7.339   1.612   7.473 -1.5398  2.3635  0.0764
   80MOL   H27830456   7.554   1.736   7.278 -0.5035  0.6604 -1.4794
   80MOL   H27930457   7.431   1.835   7.354 -0.6740 -0.4260 -1.0933
   80MOL   H28030458   7.665   1.692   7.468 -0.1830  0.0494 -2.3980
   80MOL   H28130459   7.634   1.855   7.479  0.8983 -0.8241 -0.2285
   80MOL   H28230460   7.490   1.648   7.654  2.1138  0.4223 -0.4475
   80MOL   H28330461   7.605   1.757   7.697 -1.4414 -0.2416  1.6391
   80MOL   H28430462   7.337   1.829   7.722  0.7424  0.7078  1.5255
   80MOL   H28530463   7.442   1.945   7.650 -0.3534  0.2541  0.0557
   80MOL   H28630464   7.340   1.855   7.551 -0.2075 -0.2486  0.7853
   80MOL   C28730465   7.410   1.382   7.421 -0.3524 -0.4896 -0.4721
   80MOL   C28830466   7.499   1.251   7.407  0.8703  0.2218 -0.7178
   80MOL   C28930467   7.416   1.122   7.417  0.6770 -0.5906 -0.5358
   80MOL   C29030468   7.479   1.002   7.364  0.3210 -0.5159 -0.6060
   80MOL   C29130469   7.382   0.886   7.356  0.0387 -0.2358 -0.1033
   80MOL   C29230470   7.470   0.775   7.302  0.1470 -0.1736  0.2116
   80MOL   O29330471   7.600   1.242   7.510  0.3759  0.3549  0.5835
   80MOL   H29430472   7.314   1.379   7.368 -1.2291  1.1873  0.9873
   80MOL   H29530473   7.388   1.407   7.524  0.7370 -1.7353  0.0744
   80MOL   H29630474   7.554   1.246   7.313  1.6297 -1.5335 -0.2037
   80MOL   H29730475   7.388   1.117   7.522 -1.4113  0.4504 -1.0278
   80MOL   H29830476   7.326   1.134   7.357  1.4293  0.1582 -1.5159
   80MOL   H29930477   7.509   1.030   7.263 -1.5302  3.1512 -0.2502
   80MOL   H30030478   7.572   0.976   7.413  0.0453 -0.9887 -0.3316
   80MOL   H30130479   7.305   0.903   7.280  2.4396  0.6797 -2.4113
   80MOL   H30230480   7.335   0.855   7.449  0.0239 -2.5085 -0.8159
   80MOL   H30330481   7.570   0.762   7.341  2.2236 -0.1381 -4.7276
   80MOL   H30430482   7.422   0.679   7.322  0.5542 -0.4910 -0.3231
   80MOL   H30530483   7.495   0.794   7.198  0.9973  0.5415  0.5374
   80MOL   C30630484   7.714   1.329   7.488 -0.0585  0.7210 -0.0667
   80MOL   C30730485   0.045   1.307   7.586  0.0173  0.4867 -0.2081
   80MOL   C30830486   0.128   1.440   7.589 -0.1628  0.5396  0.3436
   80MOL   C30930487   0.235   1.437   7.702  0.1950  0.3485 -0.2043
   80MOL   C31030488   0.313   1.569   7.715 -0.1486 -0.1633  0.0046
   80MOL   C31130489   0.239   1.686   7.778  0.4177  0.3660  0.5157
   80MOL   O31230490   0.124   1.194   7.557 -0.3738  0.0905 -0.6178
   80MOL   H31330491   7.753   1.313   7.388  0.2743  2.1877 -0.1822
   80MOL   H31430492   7.684   1.433   7.481  2.2644  1.3869 -0.8122
   80MOL   H31530493   0.003   1.280   7.683 -3.5683  1.1503 -1.4939
   80MOL   H31630494   0.056   1.520   7.609 -1.5002 -0.0382 -1.8872
   80MOL   H31730495   0.177   1.468   7.495 -1.0956  3.8490  0.7616
   80MOL   H31830496   0.181   1.425   0.010  0.8719 -1.0334  0.0248
   80MOL   H31930497   0.297   1.348   7.693  1.4569  1.1366  0.5734
   80MOL   H32030498   0.344   1.599   7.614 -1.0830 -0.8796 -0.5003
   80MOL   H32130499   0.403   1.549   7.773 -0.8915  1.3944  1.7207
   80MOL   H32230500   0.308   1.763   0.029 -0.6026  0.6786  1.8382
   80MOL   H32330501   0.161   1.714   7.707  0.3070  0.2063  0.5745
   80MOL   H32430502   0.185   1.634   0.072  0.4863  1.8030  1.5180
   80MOL   C32530503   0.062   1.072   7.566 -0.2221  0.1284  0.1602
   80MOL   C32630504   0.164   0.952   7.591 -0.0785  0.2663  0.4125
   80MOL   C32730505   0.124   0.817   7.533  0.2639  0.3996  0.0309
   80MOL   C32830506   0.202   0.696   7.576 -0.4832 -0.4644  0.4366
   80MOL   C32930507   0.333   0.681   7.496 -0.0681  0.5745 -0.4329
   80MOL   C33030508   0.328   0.664   7.343  0.2412 -0.8202  0.0312
   80MOL   O33130509   0.174   0.928   7.734  0.0910  0.9249 -0.0625
   80MOL   H33230510   0.002   1.052   7.477 -1.3987  0.2480  0.9081
   80MOL   H33330511   7.763   1.070   7.635 -1.0002  0.9179 -0.7564
   80MOL   H33430512   0.261   0.970   7.544  0.7688 -1.3182  1.4931
   80MOL   H33530513   0.021   0.803   7.564 -1.0422  3.0871 -2.7428
   80MOL   H33630514   0.116   0.826   7.424 -1.7477  1.9469  0.2701
   80MOL   H33730515   0.234   0.716   7.679  1.0862  0.8303 -0.2822
   80MOL   H33830516   0.140   0.607   7.583 -0.9285 -0.0344  2.3340
   80MOL   H33930517   0.401   0.762   7.521 -0.1058  0.5312 -0.1772
   80MOL   H34030518   0.378   0.590   7.538 -1.8078 -0.5583 -0.9794
   80MOL   H34130519   0.422   0.661   7.287  0.5360  2.5549  0.2383
   80MOL   H34230520   0.261   0.585   7.311 -1.1785 -0.5631  2.3161
   80MOL   H34330521   0.286   0.758   7.309  1.3061 -0.1641  0.5005
   80MOL   C34430522   0.270   1.019   0.009  0.1179  0.2109  0.7201
   80MOL   C34530523   0.265   0.990   0.157 -0.7376 -1.0848  0.0121
   80MOL   C34630524   0.349   0.868   0.199  1.0457  0.4865 -0.7217
   80MOL   C34730525   0.330   0.852   0.352 -0.2136  0.4458  0.0258
   80MOL   C34830526   0.379   0.717   0.398  0.1853  0.2729 -0.6372
   80MOL   C34930527   0.393   0.724   0.546 -0.1813 -0.4654  0.1809
   80MOL   O35030528   0.331   1.095   0.221  0.4134 -0.0256  0.3078
   80MOL   H35130529   0.233   1.120   7.777  0.7585  0.0959 -1.3861
   80MOL   H35230530   0.369   1.005   7.752 -0.8794  0.8376 -1.8642
   80MOL   H35330531   0.165   0.978   0.201 -0.4421  2.5028  1.8571
   80MOL   H35430532   0.454   0.876   0.170  0.9813  0.3592 -0.9865
   80MOL   H35530533   0.310   0.784   0.142  1.2535 -1.2672  1.6342
   80MOL   H35630534   0.226   0.856   0.383 -0.6792 -2.4939 -1.0055
   80MOL   H35730535   0.386   0.935   0.396 -2.4113  0.8317  2.1890
   80MOL   H35830536   0.467   0.686   0.342  1.2291  1.1026  0.5101
   80MOL   H35930537   0.314   0.633   0.372  1.8514 -0.8716 -1.2467
   80MOL   H36030538   0.295   0.744   0.588 -0.6754 -2.2803 -0.0467
   80MOL   H36130539   0.461   0.801   0.582 -2.6860  2.1766 -0.5475
   80MOL   H36230540   0.435   0.633   0.590 -0.1530 -1.4579 -1.8318
   80MOL   C36330541   0.240   1.195   0.263  0.3616 -0.1578  0.0335
   80MOL   C36430542   0.322   1.288   0.357  0.2388  0.6107 -0.3065
   80MOL   C36530543   0.394   1.402   0.290 -0.8757  0.7112 -0.3372
   80MOL   C36630544   0.497   1.481   0.376  0.4993  0.6060 -0.3110
   80MOL   C36730545   0.563   1.602   0.303  0.5062 -0.3335  0.0580
   80MOL   C36830546   0.660   1.679   0.385  0.0270 -0.4118 -0.4697
   80MOL   O36930547   0.236   1.363   0.442 -0.1921  0.3162  0.7981
   80MOL   H37030548   0.163   1.151   0.327  1.3013 -0.2450  1.1221
   80MOL   H37130549   0.187   1.247   0.183  1.7839 -0.5774 -1.1938
   80MOL   H37230550   0.386   1.228   0.420  0.4554  0.9050 -0.2460
   80MOL   H37330551   0.446   1.363   0.203  1.7105  1.1521  0.9542
   80MOL   H37430552   0.322   1.475   0.251  1.0405  3.4109  0.9626
   80MOL   H37530553   0.450   1.509   0.470 -0.1815 -0.7385 -0.2402
   80MOL   H37630554   0.576   1.414   0.410  2.0161  2.7011  0.3599
   80MOL   H37730555   0.620   1.561   0.220 -1.7536 -0.3102 -1.5769
   80MOL   H37830556   0.493   1.672   0.258  0.9707 -1.6300 -2.7786
   80MOL   H37930557   0.762   1.640   0.379 -0.1071 -0.7850 -0.2821
   80MOL   H38030558   0.668   1.779   0.341 -2.4410 -0.7103 -1.6824
   80MOL   H38130559   0.634   1.682   0.490 -1.6640  2.0025 -0.9079
   80MOL   H38230560   0.164   1.308   0.468 -1.2240  1.3296  0.1250
   81MOL     C130561   4.264   3.775   3.642  0.3746 -0.4323  0.5246
   81MOL     C230562   4.266   3.810   3.785 -0.6387  0.4011  0.3000
   81MOL     C330563   4.121   3.824   3.841  0.2225  0.4321  0.1297
   81MOL     C430564   4.056   3.952   3.785  0.0562  0.7466  0.2374
   81MOL     C530565   3.918   3.981   3.842 -0.6307  0.4377  0.3987
   81MOL     C630566   3.868   4.121   3.797  0.1837  0.2555 -0.4516
   81MOL     O730567   4.329   3.698   3.852  0.3005  0.1129 -0.3687
   81MOL     H830568   4.364   3.746   3.612 -1.0309 -3.0784 -1.9268
   81MOL     H930569   4.235   3.862   3.582 -0.0156 -1.2509 -0.4912
   81MOL    H1030570   4.326   3.899   3.801 -1.1826  0.7386  0.4741
   81MOL    H1130571   4.062   3.733   3.828  0.8247 -0.1169  1.1127
   81MOL    H1230572   4.107   3.841   3.948 -2.3569  0.6583 -0.2105
   81MOL    H1330573   4.128   4.031   3.808 -1.3803  1.8386  1.0964
   81MOL    H1430574   4.051   3.950   3.677  0.2469  0.9852  0.2238
   81MOL    H1530575   3.847   3.899   3.826  0.4535 -0.3481 -0.4557
   81MOL    H1630576   3.928   3.979   3.950 -0.2203 -1.0651  0.3400
   81MOL    H1730577   3.764   4.128   3.829 -0.0752  0.0051 -1.2332
   81MOL    H1830578   3.923   4.194   3.857 -1.6302  1.0016  0.3411
   81MOL    H1930579   3.882   4.153   3.694 -0.0340  1.2602 -0.1786
   81MOL    H2030580   4.202   3.688   3.619  0.0345  0.0369 -0.3661
   81MOL    C2130581   4.356   3.719   3.987 -0.7855  0.2575 -0.1223
   81MOL    C2230582   4.409   3.581   4.048  0.6672  0.3066  0.5304
   81MOL    C2330583   4.484   3.597   4.177 -0.1665 -0.6750  0.0542
   81MOL    C2430584   4.529   3.463   4.234 -0.7569 -0.8773  0.0930
   81MOL    C2530585   4.642   3.479   4.337 -0.3362 -0.0954  0.2361
   81MOL    C2630586   4.695   3.335   4.369  0.6859  0.7120 -0.0223
   81MOL    O2730587   4.286   3.515   4.075  0.0881 -0.3811 -0.0198
   81MOL    H2830588   4.423   3.804   3.994  1.2863 -1.2685 -0.8441
   81MOL    H2930589   4.270   3.753   4.044 -1.7668  0.8824 -1.9177
   81MOL    H3030590   4.475   3.533   3.976  1.2344  0.6537  0.8141
   81MOL    H3130591   4.434   3.659   4.251  0.9809 -0.2069  0.4461
   81MOL    H3230592   4.570   3.658   4.147 -0.6110 -0.5824 -1.0255
   81MOL    H3330593   4.543   3.391   4.154  1.4718 -0.6490  0.2567
   81MOL    H3430594   4.444   3.420   4.286 -0.4930 -0.8962  0.5072
   81MOL    H3530595   4.711   3.554   4.296 -1.5824  0.4577 -0.9155
   81MOL    H3630596   4.595   3.522   4.425  1.9429  0.9100  0.9883
   81MOL    H3730597   4.732   3.289   4.278 -0.1961 -0.0382 -0.0137
   81MOL    H3830598   4.625   3.261   4.409  0.3222  0.7155 -0.6510
   81MOL    H3930599   4.789   3.336   4.424  1.2901 -0.3488 -1.0091
   81MOL    C4030600   4.264   3.405   3.995 -0.2712  0.6249 -0.4374
   81MOL    C4130601   4.130   3.335   4.035 -0.4877 -0.2681  0.2834
   81MOL    C4230602   4.157   3.217   4.129  0.8984  0.2229  0.2837
   81MOL    C4330603   4.031   3.161   4.204 -0.2467  0.0564 -0.7995
   81MOL    C4430604   4.070   3.044   4.292  1.0811  0.6067 -0.1685
   81MOL    C4530605   3.948   2.966   4.342  0.6217  0.1232  0.8622
   81MOL    O4630606   4.064   3.286   3.918  0.4021  0.1197  0.2037
   81MOL    H4730607   4.338   3.327   4.014  0.7864  1.6383 -0.3689
   81MOL    H4830608   4.275   3.437   3.892  2.4058 -1.3005 -0.8055
   81MOL    H4930609   4.066   3.408   4.086  2.3364  0.6868  2.5748
   81MOL    H5030610   4.199   3.135   4.070  2.0197  1.4185 -0.5964
   81MOL    H5130611   4.238   3.243   4.197  2.2801 -2.3353 -0.3150
   81MOL    H5230612   3.953   3.136   4.132 -1.6667  0.4330  0.5933
   81MOL    H5330613   3.977   3.232   4.266 -0.4283  0.2718 -1.1969
   81MOL    H5430614   4.142   2.979   4.244 -0.1188 -0.3267 -0.7282
   81MOL    H5530615   4.125   3.074   4.381  3.0739 -0.7761 -0.9083
   81MOL    H5630616   3.884   3.024   4.408  0.3547 -1.4337  1.9871
   81MOL    H5730617   3.895   2.908   4.267 -0.0978  0.4644  1.1096
   81MOL    H5830618   3.984   2.891   4.412  0.9724 -0.4313  0.1002
   81MOL    C5930619   3.980   3.381   3.849  0.5101 -0.6222 -0.0033
   81MOL    C6030620   3.928   3.310   3.720  0.1788 -0.4311  0.5358
   81MOL    C6130621   3.832   3.202   3.758  0.4901  0.2316  0.5721
   81MOL    C6230622   3.784   3.135   3.622  0.4736  0.1276  0.0335
   81MOL    C6330623   3.649   3.063   3.617 -0.3794 -0.1306 -0.5827
   81MOL    C6430624   3.634   2.939   3.712 -0.4328  1.4420 -0.0997
   81MOL    O6530625   3.874   3.409   3.632  0.8607 -0.1012  0.1117
   81MOL    H6630626   4.045   3.466   3.828 -0.9215  0.6849  0.8043
   81MOL    H6730627   3.893   3.399   3.912  0.9598  0.3221  0.3547
   81MOL    H6830628   4.023   3.271   3.683 -0.4683 -0.6355 -0.9399
   81MOL    H6930629   3.743   3.247   3.804  0.6019  1.2313 -0.1945
   81MOL    H7030630   3.877   3.126   3.822  1.5402 -0.1311 -0.5834
   81MOL    H7130631   3.864   3.071   3.585  1.5604  1.6015 -0.2274
   81MOL    H7230632   3.778   3.215   3.548 -1.2061  0.7283  0.7873
   81MOL    H7330633   3.633   3.032   3.513 -1.0807 -0.8584 -0.2669
   81MOL    H7430634   3.565   3.131   3.634 -1.7891 -2.1143  0.7065
   81MOL    H7530635   3.709   2.862   3.693 -1.3722  1.3294 -3.8040
   81MOL    H7630636   3.640   2.965   3.817 -1.2395 -2.0654  0.9074
   81MOL    H7730637   3.538   2.891   3.691  1.3494 -1.5255 -1.8030
   81MOL    C7830638   3.976   3.484   3.563 -0.1637 -0.3676  0.1350
   81MOL    C7930639   3.911   3.589   3.470 -0.3821  0.1963 -0.0356
   81MOL    C8030640   3.997   3.638   3.359  0.3339  0.2920 -0.4357
   81MOL    C8130641   3.925   3.731   3.261 -0.0882  0.4519 -0.1093
   81MOL    C8230642   4.004   3.740   3.128 -0.2114  0.7338 -0.2485
   81MOL    C8330643   3.970   3.856   3.033 -0.6158  0.3111  0.3862
   81MOL    O8430644   3.868   3.703   3.545 -0.4033 -0.4820 -0.0420
   81MOL    H8530645   4.030   3.416   3.497 -1.5479  0.3017 -1.7314
   81MOL    H8630646   4.043   3.531   3.634 -0.1829 -1.4775  0.8998
   81MOL    H8730647   3.827   3.536   3.424  1.2261 -0.8187 -1.9010
   81MOL    H8830648   4.083   3.685   3.407  1.4048 -0.8613 -1.1788
   81MOL    H8930649   4.047   3.557   3.306  0.3155 -1.6389  2.4232
   81MOL    H9030650   3.918   3.827   3.313 -0.0973 -0.3029  1.2718
   81MOL    H9130651   3.821   3.717   3.231  0.2493 -1.0068 -0.6548
   81MOL    H9230652   4.112   3.744   3.144 -0.4723 -0.9129  2.2016
   81MOL    H9330653   3.991   3.651   3.067 -0.6041  0.8687 -0.3600
   81MOL    H9430654   4.013   3.860   2.933 -2.3153  4.4274 -0.2634
   81MOL    H9530655   3.994   3.953   3.075 -1.0297  0.3047  0.6317
   81MOL    H9630656   3.863   3.844   3.013 -0.5391  1.2143 -0.6153
   81MOL    C9730657   3.730   3.703   3.601  0.3314  0.2712  0.4838
   81MOL    C9830658   3.618   3.694   3.494  0.3119 -0.9301 -0.0882
   81MOL    C9930659   3.540   3.560   3.499 -0.1786 -0.3680  0.0481
   81MOL   C10030660   3.455   3.542   3.634 -0.3117  0.3881 -0.0242
   81MOL   C10130661   3.408   3.395   3.644  0.4516  0.1764  0.1235
   81MOL   C10230662   3.345   3.372   3.774  0.3205 -0.6106 -0.3516
   81MOL   O10330663   3.530   3.800   3.515  0.4438  0.3696 -0.4944
   81MOL   H10430664   3.714   3.792   3.661 -0.5627  0.8770 -0.6439
   81MOL   H10530665   3.717   3.626   3.677  0.0712 -0.9743 -0.7962
   81MOL   H10630666   3.657   3.694   3.393 -1.6686  0.0396 -0.8809
   81MOL   H10730667   3.611   3.479   3.480 -1.1851 -1.5137  1.0844
   81MOL   H10830668   3.476   3.556   3.410 -1.7771  1.5806  1.0821
   81MOL   H10930669   3.371   3.611   3.641 -0.7522  0.0367 -1.5341
   81MOL   H11030670   3.519   3.545   3.722 -0.7788 -0.8513  0.3663
   81MOL   H11130671   3.495   3.334   3.621  0.4435  0.7694 -1.5826
   81MOL   H11230672   3.344   3.374   3.557  0.1696 -2.3389  0.9038
   81MOL   H11330673   3.282   3.285   3.756 -0.0002  0.0971 -2.8204
   81MOL   H11430674   3.423   3.348   3.846  0.2536  2.3855  0.7924
   81MOL   H11530675   3.284   3.452   3.814  1.2240  0.1933 -0.5657
   81MOL   C11630676   3.575   3.911   3.441 -0.2137  0.1695  0.3924
   81MOL   C11730677   3.474   4.018   3.486  0.0879  0.3794  0.2277
   81MOL   C11830678   3.495   4.063   3.638 -0.6155  0.3167 -0.3337
   81MOL   C11930679   3.419   4.185   3.681  0.3857 -0.5601  0.5660
   81MOL   C12030680   3.379   4.189   3.831  0.7029  0.1769  0.0157
   81MOL   C12130681   3.337   4.326   3.888 -0.3649 -0.3952  0.2934
   81MOL   O12230682   3.333   3.990   3.461  0.3500 -0.0621 -0.5492
   81MOL   H12330683   3.676   3.947   3.459 -0.2296  0.7545 -0.6410
   81MOL   H12430684   3.569   3.895   3.333  0.8501  2.7384 -0.0833
   81MOL   H12530685   3.502   4.099   3.419  3.9798 -0.5002  0.6913
   81MOL   H12630686   3.464   3.989   3.713  0.5618  2.0687  1.9254
   81MOL   H12730687   3.601   4.082   3.656 -0.8352  0.9517  0.3209
   81MOL   H12830688   3.332   4.198   3.618  1.2690  1.3648 -0.2948
   81MOL   H12930689   3.471   4.276   3.650 -0.5365  0.0318  0.7312
   81MOL   H13030690   3.292   4.123   3.833 -0.4122  1.5816 -1.3346
   81MOL   H13130691   3.460   4.134   3.880  1.0850 -0.8898 -1.7747
   81MOL   H13230692   3.408   4.402   3.854 -0.6839 -0.8065 -1.3777
   81MOL   H13330693   3.250   4.373   3.842  1.4933  0.9974 -1.9158
   81MOL   H13430694   3.329   4.330   3.996 -2.6450 -1.3261  0.1880
   81MOL   C13530695   3.258   3.898   3.535 -0.1279 -0.2131  0.0501
   81MOL   C13630696   3.104   3.924   3.549  0.9224 -0.1325 -0.2783
   81MOL   C13730697   3.040   3.833   3.656  0.0436  0.5610  0.7228
   81MOL   C13830698   3.072   3.861   3.806  0.3660 -0.1810 -0.4630
   81MOL   C13930699   2.975   3.787   3.905 -0.5288 -0.8656 -0.0963
   81MOL   C14030700   3.016   3.651   3.954  0.1463  0.0123 -0.0762
   81MOL   O14130701   3.032   3.903   3.423  0.4026  0.0088 -0.0603
   81MOL   H14230702   3.272   3.800   3.490 -3.4191 -0.3549 -0.8310
   81MOL   H14330703   3.287   3.885   3.640 -0.5643 -1.7494 -0.0050
   81MOL   H14430704   3.094   4.029   3.577  0.8015  0.0418 -0.9522
   81MOL   H14530705   2.934   3.837   3.634  0.5324  3.9691 -1.5156
   81MOL   H14630706   3.069   3.733   3.626 -0.4879  0.4417  0.6114
   81MOL   H14730707   3.065   3.968   3.828 -0.0905 -0.0618 -1.1882
   81MOL   H14830708   3.174   3.837   3.834  0.6868  0.7012 -0.8647
   81MOL   H14930709   2.871   3.786   3.875 -0.5635  0.0286 -0.0468
   81MOL   H15030710   2.969   3.848   3.996 -2.1542 -0.7544 -0.2623
   81MOL   H15130711   3.111   3.660   4.006  2.3302 -0.5167 -3.7285
   81MOL   H15230712   2.953   3.602   4.028  0.0804 -1.4808 -1.0833
   81MOL   H15330713   3.032   3.570   3.882  1.8435  1.1014 -0.9696
   81MOL   C15430714   3.038   4.023   3.344 -0.1697  0.2360 -0.3649
   81MOL   C15530715   2.969   3.984   3.209 -0.2470 -0.5032  0.2708
   81MOL   C15630716   2.890   4.106   3.152 -0.1444 -0.8909 -0.5273
   81MOL   C15730717   2.788   4.076   3.042  0.2602 -0.3319  0.1012
   81MOL   C15830718   2.746   4.204   2.965 -0.0718  0.6072 -0.1785
   81MOL   C15930719   2.645   4.295   3.042 -0.1102 -0.2497  0.3579
   81MOL   O16030720   3.062   3.922   3.123 -0.3750 -0.0530  0.2842
   81MOL   H16130721   3.141   4.059   3.333  0.0577 -0.8260 -2.0086
   81MOL   H16230722   2.981   4.093   3.404 -0.4181  1.0099 -1.4846
   81MOL   H16330723   2.886   3.923   3.244  1.4234 -2.3865  1.0480
   81MOL   H16430724   2.963   4.178   3.115 -2.4218  1.3165 -0.8343
   81MOL   H16530725   2.843   4.161   3.232 -0.1777  0.1722 -1.2701
   81MOL   H16630726   2.695   4.027   3.072 -0.2554 -1.3139 -2.9308
   81MOL   H16730727   2.834   4.007   2.971 -1.3686 -0.5515 -0.7675
   81MOL   H16830728   2.822   4.272   2.926  0.3780  0.6185  0.6955
   81MOL   H16930729   2.689   4.166   2.881  1.7282 -0.7608 -0.8172
   81MOL   H17030730   2.555   4.242   3.074 -0.8680  1.1408  0.5879
   81MOL   H17130731   2.610   4.378   2.981  1.3064  0.8792  1.0382
   81MOL   H17230732   2.682   4.336   3.136 -2.1740  3.1743 -0.2416
   81MOL   C17330733   3.086   3.783   3.139 -0.0710  0.3969 -0.2923
   81MOL   C17430734   3.182   3.717   3.033  0.2773  0.0190  0.2482
   81MOL   C17530735   3.251   3.582   3.075 -0.1068 -0.9200 -0.2867
   81MOL   C17630736   3.379   3.543   2.992  0.8851 -0.3683  0.0141
   81MOL   C17730737   3.504   3.627   3.020 -0.0346 -0.6065  0.5496
   81MOL   C17830738   3.626   3.579   2.944  0.7881  0.2792  0.3622
   81MOL   O17930739   3.113   3.699   2.912  0.0234  0.2223 -0.3917
   81MOL   H18030740   2.993   3.727   3.134 -0.4571  0.9888  0.2215
   81MOL   H18130741   3.136   3.781   3.236 -1.3902  2.2125  0.4534
   81MOL   H18230742   3.265   3.784   3.011 -0.6990  0.5137 -2.1460
   81MOL   H18330743   3.285   3.593   3.178  0.9448  1.7868 -0.8883
   81MOL   H18430744   3.178   3.501   3.077 -0.0695 -0.9783 -1.2514
   81MOL   H18530745   3.404   3.441   3.020  1.7524 -0.6637 -1.7977
   81MOL   H18630746   3.343   3.547   2.889  1.2505  1.7068 -0.0504
   81MOL   H18730747   3.492   3.730   2.987 -0.7457 -0.0792  2.3725
   81MOL   H18830748   3.530   3.638   3.125 -3.4144 -0.9656  1.5098
   81MOL   H18930749   3.718   3.610   2.992  1.4145 -1.1635  0.1259
   81MOL   H19030750   3.629   3.609   2.839 -0.1275  0.1956  0.3008
   81MOL   H19130751   3.637   3.470   2.944  0.0772  0.1972 -0.0917
   81MOL   C19230752   3.064   3.824   2.851  0.5362  0.8242 -0.4513
   81MOL   C19330753   3.172   3.930   2.812  0.1477  0.2932  0.1231
   81MOL   C19430754   3.121   4.083   2.830 -0.5141 -0.0483  0.0307
   81MOL   C19530755   3.233   4.190   2.787 -0.4222  0.8274  0.4254
   81MOL   C19630756   3.194   4.334   2.822 -0.0982 -0.6465  0.6162
   81MOL   C19730757   3.305   4.438   2.802  0.4043  0.0228 -0.0462
   81MOL   O19830758   3.193   3.907   2.675  0.3464  0.0934 -0.1242
   81MOL   H19930759   3.019   3.782   2.761  0.3435  0.6094 -0.2540
   81MOL   H20030760   2.980   3.868   2.904  0.1086 -1.3207  0.7187
   81MOL   H20130761   3.266   3.920   2.867 -0.6705  0.1871  1.5369
   81MOL   H20230762   3.035   4.090   2.764  0.3059  0.4897 -1.0068
   81MOL   H20330763   3.088   4.095   2.933 -0.4847 -0.6634  0.1113
   81MOL   H20430764   3.256   4.185   2.681  2.9859 -1.1635  1.1735
   81MOL   H20530765   3.319   4.147   2.838 -0.8021 -0.0400  0.3470
   81MOL   H20630766   3.108   4.361   2.761  0.3899  1.1061  0.6780
   81MOL   H20730767   3.166   4.332   2.927  1.1786  0.7731  1.0069
   81MOL   H20830768   3.265   4.531   2.843  3.3094  0.9143  0.9397
   81MOL   H20930769   3.397   4.416   2.857 -0.8417 -2.1857  1.2001
   81MOL   H21030770   3.330   4.441   2.696 -1.9644  2.8961 -0.5857
   81MOL   C21130771   3.264   3.785   2.634 -0.1298 -0.1174  0.3596
   81MOL   C21230772   3.329   3.810   2.498 -0.4929  0.3491  0.1070
   81MOL   C21330773   3.393   3.668   2.464  0.7473  0.3808  0.9669
   81MOL   C21430774   3.482   3.675   2.335 -0.3925 -0.3491  0.1887
   81MOL   C21530775   3.564   3.539   2.315 -0.0466 -0.4350  0.0350
   81MOL   C21630776   3.639   3.526   2.183 -0.2691 -0.3845 -0.1083
   81MOL   O21730777   3.428   3.912   2.525  0.3547 -0.2526 -0.1870
   81MOL   H21830778   3.199   3.699   2.642 -2.6981  1.6033 -1.3768
   81MOL   H21930779   3.351   3.770   2.698 -0.6077 -1.5876  0.6836
   81MOL   H22030780   3.254   3.839   2.425  0.4967  1.7222 -0.4001
   81MOL   H22130781   3.450   3.630   2.549  0.5544 -0.1866  0.8484
   81MOL   H22230782   3.310   3.600   2.446  2.5378 -1.0051 -2.5122
   81MOL   H22330783   3.412   3.691   2.253  0.7458  2.4565 -0.2805
   81MOL   H22430784   3.560   3.751   2.337 -0.7804  0.0637 -0.5618
   81MOL   H22530785   3.628   3.524   2.401 -0.9524  0.2917  0.8490
   81MOL   H22630786   3.492   3.457   2.312 -0.3301 -0.1537 -1.9456
   81MOL   H22730787   3.580   3.563   2.100  0.1597 -0.9542 -0.6728
   81MOL   H22830788   3.647   3.423   2.149 -1.6374 -0.3913 -0.4474
   81MOL   H22930789   3.736   3.574   2.193 -0.8032  0.4009  1.6290
   81MOL   C23030790   3.419   4.031   2.460 -0.2053  0.3269  0.0545
   81MOL   C23130791   3.551   4.117   2.494 -1.0347 -0.3390  0.5401
   81MOL   C23230792   3.561   4.263   2.428 -0.4641 -0.4754 -0.8294
   81MOL   C23330793   3.680   4.353   2.479  0.1043  0.4174  0.4853
   81MOL   C23430794   3.697   4.485   2.406  0.4307  0.7464 -0.5212
   81MOL   C23530795   3.729   4.461   2.255 -0.7013  0.1201 -0.6947
   81MOL   O23630796   3.665   4.039   2.448  0.1503  0.2488  0.0007
   81MOL   H23730797   3.403   4.008   2.355  1.6458  0.5065 -0.2760
   81MOL   H23830798   3.334   4.090   2.494 -1.1009 -0.1029 -1.4333
   81MOL   H23930799   3.556   4.120   2.603  0.2836 -0.6064  0.4886
   81MOL   H24030800   3.477   4.324   2.463 -0.0591  0.1357 -0.9293
   81MOL   H24130801   3.551   4.262   2.320 -1.7816 -0.2836 -0.7180
   81MOL   H24230802   3.770   4.291   2.469  0.6427  1.6649 -3.3948
   81MOL   H24330803   3.654   4.369   2.584 -1.1639 -1.8789  0.5478
   81MOL   H24430804   3.597   4.529   2.411 -0.4430 -1.2133 -0.2234
   81MOL   H24530805   3.767   4.560   2.442  0.7378 -0.0881  0.6402
   81MOL   H24630806   3.646   4.459   2.184  1.5549  2.4399 -3.5003
   81MOL   H24730807   3.797   4.377   2.243  0.8766  0.9232  2.0901
   81MOL   H24830808   3.767   4.555   2.216 -0.3396  0.1551 -0.2614
   81MOL   C24930809   3.759   3.999   2.549 -0.5669  0.5798 -0.1009
   81MOL   C25030810   3.861   3.902   2.484 -0.6884 -0.2196  0.1278
   81MOL   C25130811   3.912   3.803   2.589  0.2049  0.3791  0.5139
   81MOL   C25230812   4.007   3.694   2.524  0.2366  0.3202 -0.0061
   81MOL   C25330813   3.946   3.609   2.405  0.6568 -0.1759  0.0113
   81MOL   C25430814   4.012   3.475   2.396  0.3415 -0.5560  0.0766
   81MOL   O25530815   3.972   3.977   2.422 -0.0220  0.4138  0.2275
   81MOL   H25630816   3.808   4.088   2.587 -0.8584  0.2309  1.1105
   81MOL   H25730817   3.697   3.951   2.625 -2.0161  2.4857 -0.0414
   81MOL   H25830818   3.801   3.838   2.419  2.0539 -2.6435 -0.1074
   81MOL   H25930819   3.967   3.849   2.672 -2.1809 -0.0551  2.3845
   81MOL   H26030820   3.819   3.760   2.625  0.0724  0.5061  0.3228
   81MOL   H26130821   4.098   3.743   2.490  0.6639 -1.8021 -2.0540
   81MOL   H26230822   4.034   3.626   2.605  0.2325 -0.1419 -0.3878
   81MOL   H26330823   3.838   3.597   2.417  0.6023 -1.2036 -1.3848
   81MOL   H26430824   3.962   3.655   2.307 -1.5697 -2.5286 -1.5254
   81MOL   H26530825   4.017   3.435   2.498 -1.4927  0.9295  0.7700
   81MOL   H26630826   4.117   3.481   2.366  0.7277  2.0948  1.7362
   81MOL   H26730827   3.975   3.390   2.339 -3.3351 -0.1592  1.7339
   81MOL   C26830828   3.927   4.055   2.311 -0.5007 -0.0402  0.0897
   81MOL   C26930829   4.044   4.074   2.211 -0.2312  0.5074  0.4874
   81MOL   C27030830   4.108   3.946   2.150  1.1323 -0.4508 -0.4718
   81MOL   C27130831   4.015   3.860   2.068 -0.0522 -0.1362  0.4864
   81MOL   C27230832   4.093   3.738   2.018  0.7097 -0.9574  0.0162
   81MOL   C27330833   4.010   3.664   1.912  0.8358 -0.2486 -0.5091
   81MOL   O27430834   4.164   4.150   2.247 -0.0960 -0.6941  0.0755
   81MOL   H27530835   3.895   4.155   2.340 -1.2475 -0.2530  0.0140
   81MOL   H27630836   3.848   4.003   2.257 -0.4702  0.7347 -0.7082
   81MOL   H27730837   3.997   4.130   2.130 -1.0757 -2.0654 -0.8251
   81MOL   H27830838   4.181   3.974   2.073 -0.3435  0.6887 -1.4795
   81MOL   H27930839   4.154   3.899   2.237  0.3826 -0.6438 -0.1839
   81MOL   H28030840   3.930   3.820   2.124 -0.9013  0.2814 -0.4954
   81MOL   H28130841   3.974   3.915   1.984 -0.7534  0.5479  1.2661
   81MOL   H28230842   4.181   3.774   1.965  0.3825 -0.3031 -0.0901
   81MOL   H28330843   4.122   3.676   2.102  1.4241 -1.3330 -0.5041
   81MOL   H28430844   3.981   3.715   1.820  1.5167  1.0587 -0.0068
   81MOL   H28530845   4.053   3.569   1.881 -0.6303 -0.5630 -1.6512
   81MOL   H28630846   3.921   3.626   1.962  2.1932 -2.5593  0.1846
   81MOL   C28730847   4.144   4.284   2.270 -0.7763  0.0330  0.9155
   81MOL   C28830848   4.276   4.343   2.339  0.1986 -0.0961  0.6616
   81MOL   C28930849   4.414   4.309   2.276  0.2506  0.1173 -0.2666
   81MOL   C29030850   4.531   4.382   2.352 -0.2438  0.5414 -0.1518
   81MOL   C29130851   4.646   4.381   2.253  0.6292 -0.0916 -0.8418
   81MOL   C29230852   4.715   4.248   2.238  0.0924 -0.7831 -0.3336
   81MOL   O29330853   4.289   4.319   2.475 -0.0408 -0.0322  0.5040
   81MOL   H29430854   4.058   4.300   2.334 -0.1940  2.5929  1.1018
   81MOL   H29530855   4.132   4.341   2.177  3.0077  1.4809  1.2081
   81MOL   H29630856   4.279   4.451   2.324  0.2854  0.0271  1.5289
   81MOL   H29730857   4.422   4.200   2.285  1.9856  0.2692  0.0919
   81MOL   H29830858   4.401   4.329   2.170 -2.3259 -0.8526 -0.1877
   81MOL   H29930859   4.507   4.487   2.365  0.5797  0.7495 -0.2808
   81MOL   H30030860   4.552   4.327   2.444 -2.9883  1.3204  0.9714
   81MOL   H30130861   4.720   4.451   2.291  0.5443 -0.4373 -0.0267
   81MOL   H30230862   4.607   4.421   2.159  1.0615  0.9673 -0.5663
   81MOL   H30330863   4.777   4.262   2.150  1.4535  2.4530  1.0567
   81MOL   H30430864   4.783   4.238   2.323  1.9912 -1.1679 -1.8558
   81MOL   H30530865   4.644   4.166   2.233 -1.8567  0.8708 -0.4833
   81MOL   C30630866   4.245   4.185   2.517 -0.6005  0.4657 -0.2861
   81MOL   C30730867   4.290   4.156   2.663  0.1443  0.2651 -0.2547
   81MOL   C30830868   4.282   4.003   2.693  0.3904  0.8985 -0.2309
   81MOL   C30930869   4.339   3.973   2.836  0.1223 -0.2270 -0.4471
   81MOL   C31030870   4.392   3.839   2.849 -0.3154  0.4016  0.7431
   81MOL   C31130871   4.457   3.822   2.991  0.8300  0.1075  0.7063
   81MOL   O31230872   4.204   4.211   2.761  0.6019  0.0945 -0.4322
   81MOL   H31330873   4.136   4.174   2.517 -0.5161 -0.4300 -1.8228
   81MOL   H31430874   4.285   4.120   2.440 -1.7534  0.1357 -0.6073
   81MOL   H31530875   4.390   4.201   2.666 -0.2186  1.0530  0.1548
   81MOL   H31630876   4.337   3.941   2.622 -1.1157 -1.1836  0.3829
   81MOL   H31730877   4.185   3.957   2.675  0.9780 -0.7335  0.6827
   81MOL   H31830878   4.418   4.046   2.857 -0.9110  0.7509  0.0589
   81MOL   H31930879   4.267   4.000   2.913  0.5635  1.6029 -0.6436
   81MOL   H32030880   4.467   3.813   2.774 -0.6031 -0.0344  0.6029
   81MOL   H32130881   4.315   3.767   2.824  0.0451  0.8180 -1.6346
   81MOL   H32230882   4.407   3.873   3.073 -0.4163 -0.7375  0.4832
   81MOL   H32330883   4.456   3.718   3.022  1.3299 -0.4862 -1.2010
   81MOL   H32430884   4.560   3.859   2.994  1.3275 -0.5457 -4.1212
   81MOL   C32530885   4.203   4.351   2.777  0.0482 -0.3401  0.0890
   81MOL   C32630886   4.079   4.417   2.719  0.3096 -0.3280 -0.1030
   81MOL   C32730887   4.105   4.559   2.674 -0.1026 -0.7799 -0.3153
   81MOL   C32830888   4.001   4.612   2.575  0.1180 -0.7182  0.0010
   81MOL   C32930889   4.043   4.751   2.531 -0.5148  0.2375  0.0164
   81MOL   C33030890   3.939   4.826   2.457  0.0477 -0.4223 -0.0623
   81MOL   O33130891   3.973   4.423   2.815 -0.0873  0.4639  0.3802
   81MOL   H33230892   4.298   4.400   2.756 -0.2392 -0.9238 -2.8459
   81MOL   H33330893   4.201   4.368   2.884 -0.0344  1.0955 -0.1224
   81MOL   H33430894   4.038   4.370   2.629 -1.0547 -0.6142  0.6648
   81MOL   H33530895   4.102   4.614   2.767  1.2730  1.1756 -1.4124
   81MOL   H33630896   4.204   4.570   2.631 -0.3731  0.7771 -0.5469
   81MOL   H33730897   3.999   4.540   2.493  0.0386 -0.3391 -0.3367
   81MOL   H33830898   3.906   4.603   2.628 -0.0769 -3.5184 -0.7580
   81MOL   H33930899   4.076   4.800   2.622  0.0493 -0.2302  0.0688
   81MOL   H34030900   4.142   4.744   2.484 -1.5420  0.7353 -2.2906
   81MOL   H34130901   3.969   4.930   2.446  3.3677 -1.3541 -0.5273
   81MOL   H34230902   3.929   4.777   2.360  1.1044 -2.6207  0.9029
   81MOL   H34330903   3.846   4.821   2.513  1.0945 -1.9724  1.5965
   81MOL   C34430904   3.908   4.298   2.829 -0.5695 -0.0390  0.8297
   81MOL   C34530905   3.771   4.326   2.902  0.3887  0.2248  0.0206
   81MOL   C34630906   3.710   4.189   2.938  0.2566  0.2564  0.5209
   81MOL   C34730907   3.574   4.205   3.016 -0.3957 -0.1349  0.5220
   81MOL   C34830908   3.517   4.070   3.056  0.6394  0.1449  0.0055
   81MOL   C34930909   3.386   4.080   3.137  0.5372  0.1882 -0.1726
   81MOL   O35030910   3.802   4.397   3.018 -0.8322 -0.2662  0.1390
   81MOL   H35130911   3.970   4.216   2.865 -0.6577 -0.3413  0.3010
   81MOL   H35230912   3.876   4.268   2.729  2.0411 -1.2072  0.3149
   81MOL   H35330913   3.704   4.374   2.830 -1.4987 -0.4669  1.2716
   81MOL   H35430914   3.779   4.131   3.001  2.0911 -0.4232 -2.0425
   81MOL   H35530915   3.693   4.129   2.849 -2.8883  0.2955  1.0574
   81MOL   H35630916   3.507   4.256   2.946 -0.0277 -0.5844 -0.1633
   81MOL   H35730917   3.584   4.271   3.103  1.5275  0.5142 -0.1566
   81MOL   H35830918   3.588   4.022   3.123  0.7925  0.1646 -0.1403
   81MOL   H35930919   3.501   4.005   2.970 -0.1722  0.1006  0.1831
   81MOL   H36030920   3.314   4.146   3.087  0.0384 -1.4282 -1.6108
   81MOL   H36130921   3.401   4.129   3.234  0.7714  2.2864 -1.2356
   81MOL   H36230922   3.336   3.984   3.134 -2.1620  1.5016  1.0217
   81MOL   C36330923   3.771   4.535   3.021  0.4230 -0.3305  0.6908
   81MOL   C36430924   3.877   4.607   3.111  0.7383 -0.1182 -0.5904
   81MOL   C36530925   3.899   4.531   3.245  0.6653 -0.0092 -0.2746
   81MOL   C36630926   3.768   4.529   3.329  0.3181 -0.3028 -0.2236
   81MOL   C36730927   3.790   4.437   3.451  0.1385  0.1809  0.4718
   81MOL   C36830928   3.654   4.367   3.491 -0.6454 -0.2151  0.8729
   81MOL   O36930929   3.995   4.616   3.038  0.0086  0.1315  0.3600
   81MOL   H37030930   3.668   4.539   3.055  0.1137  1.6725 -0.3997
   81MOL   H37130931   3.781   4.570   2.918  0.0456 -0.2912  0.6683
   81MOL   H37230932   3.835   4.705   3.133 -0.4757 -0.5813 -0.7979
   81MOL   H37330933   3.922   4.428   3.218 -1.4324 -0.1303 -1.7413
   81MOL   H37430934   3.982   4.578   3.296 -0.7247  2.2905 -0.0539
   81MOL   H37530935   3.739   4.629   3.359 -0.2286 -0.6616  0.4490
   81MOL   H37630936   3.692   4.483   3.266  0.5090 -1.6763  0.5281
   81MOL   H37730937   3.859   4.358   3.421  0.3270  0.8897 -1.0073
   81MOL   H37830938   3.835   4.483   3.539  1.9190 -1.6639  0.5610
   81MOL   H37930939   3.596   4.434   3.554 -0.0901 -0.1481  1.3304
   81MOL   H38030940   3.598   4.339   3.403 -0.7935  1.0370  0.5686
   81MOL   H38130941   3.668   4.277   3.552 -2.2726 -0.4925  0.8434
   81MOL   H38230942   3.981   4.610   2.944  3.1623  1.0543 -0.2415
   82MOL     C130943   6.413   3.537   0.211 -0.2328 -0.2293 -0.3469
   82MOL     C230944   6.521   3.598   0.116 -0.3524 -0.4162 -0.0487
   82MOL     C330945   6.587   3.726   0.175 -0.5330  0.3083 -0.8451
   82MOL     C430946   6.501   3.858   0.163 -0.2650 -0.2708  0.2180
   82MOL     C530947   6.587   3.979   0.204 -0.4446 -0.1320 -0.2497
   82MOL     C630948   6.503   4.105   0.175 -0.2960  0.9406 -0.1025
   82MOL     O730949   6.619   3.497   0.092  0.1770  0.3564  0.0454
   82MOL     H830950   6.334   3.602   0.247  0.0203  1.2005 -2.2785
   82MOL     H930951   6.467   3.518   0.304  1.5185 -0.2414 -1.3313
   82MOL    H1030952   6.462   3.627   0.028 -0.3682  0.0658  0.1217
   82MOL    H1130953   6.608   3.721   0.281 -1.2461  1.2483 -0.6500
   82MOL    H1230954   6.685   3.728   0.127 -0.3712  0.5895 -0.5022
   82MOL    H1330955   6.464   3.864   0.060 -3.1630  0.0925  1.2579
   82MOL    H1430956   6.419   3.844   0.232 -1.5583  0.7376 -1.0947
   82MOL    H1530957   6.604   3.979   0.311  2.3065 -1.1349 -0.6332
   82MOL    H1630958   6.683   3.985   0.153 -0.7443  2.2555 -0.5648
   82MOL    H1730959   6.488   4.111   0.067  0.9589 -0.1015 -0.3473
   82MOL    H1830960   6.407   4.108   0.227 -0.1069  0.4351  0.2753
   82MOL    H1930961   6.566   4.185   0.213  0.6466  0.2498 -0.1866
   82MOL    H2030962   6.366   3.441   0.187 -2.2216  0.1283  1.9085
   82MOL    C2130963   6.595   3.429   7.755  0.3776 -0.0750 -0.2299
   82MOL    C2230964   6.713   3.337   7.715  0.2773  0.1047  0.1793
   82MOL    C2330965   6.719   3.221   0.025 -0.1099  0.3336  0.1790
   82MOL    C2430966   6.841   3.124   7.781 -0.0447  0.2532  0.5646
   82MOL    C2530967   6.833   2.987   0.071  0.8495  0.1382 -0.5428
   82MOL    C2630968   6.952   2.898   0.056 -0.4319  0.5693  0.4976
   82MOL    O2730969   6.689   3.294   7.583  0.6586  0.4985  0.2132
   82MOL    H2830970   6.505   3.368   7.757  2.0779 -2.6938 -1.0247
   82MOL    H2930971   6.596   3.504   7.676 -0.6908 -1.6356 -1.7702
   82MOL    H3030972   6.805   3.394   7.729  0.4573 -0.6329  2.0658
   82MOL    H3130973   6.627   3.164   0.014 -0.4663  1.0757 -0.8182
   82MOL    H3230974   6.730   3.264   0.124 -1.8122  2.6665 -0.6046
   82MOL    H3330975   6.937   3.172   0.015  0.9887 -0.5006 -2.4991
   82MOL    H3430976   6.839   3.092   7.677  1.8598  0.3113  0.4927
   82MOL    H3530977   6.820   3.006   0.177  3.5337 -0.8298 -0.0120
   82MOL    H3630978   6.735   2.942   0.052  0.7476  0.1659 -0.0874
   82MOL    H3730979   6.948   2.807   0.117 -0.9612 -0.6494 -1.3220
   82MOL    H3830980   7.030   2.969   0.084 -0.8627  1.7010 -1.1420
   82MOL    H3930981   6.979   2.873   7.740  1.8645 -0.8659  1.4221
   82MOL    C4030982   6.790   3.311   7.486 -0.0280  0.1916 -0.0146
   82MOL    C4130983   6.759   3.237   7.353 -0.0133  1.4379  0.2797
   82MOL    C4230984   6.726   3.089   7.362 -0.3489  0.0020  0.3849
   82MOL    C4330985   6.843   2.995   7.385 -0.0044 -1.0607 -0.4853
   82MOL    C4430986   6.826   2.853   7.417  0.1855 -0.1121 -0.1511
   82MOL    C4530987   6.778   2.763   7.304  1.1717 -0.0682  0.2766
   82MOL    O4630988   6.865   3.251   7.274 -0.0433  0.1980  0.1806
   82MOL    H4730989   6.875   3.261   7.532  2.0176 -2.0634 -5.7032
   82MOL    H4830990   6.814   3.416   7.471 -2.9831  1.0795  1.2291
   82MOL    H4930991   6.666   3.286   7.322 -0.7067  0.2860  0.5163
   82MOL    H5030992   6.663   3.089   7.451 -0.9697 -0.7240 -0.0413
   82MOL    H5130993   6.667   3.061   7.274 -0.8461  0.9205  0.4262
   82MOL    H5230994   6.895   3.029   7.474  0.0906  0.2246 -1.0204
   82MOL    H5330995   6.924   3.005   7.313 -1.0822 -0.6724 -1.6639
   82MOL    H5430996   6.921   2.815   7.454  1.0869  2.5395  0.3862
   82MOL    H5530997   6.758   2.850   7.502 -0.4635  1.6674 -0.5772
   82MOL    H5630998   6.860   2.749   7.233  0.8619 -2.4587  0.3472
   82MOL    H5730999   6.741   2.666   7.335 -0.5598  0.6900  0.6476
   82MOL    H5831000   6.687   2.804   7.260  1.5806  2.0704  1.3747
   82MOL    C5931001   6.839   3.254   7.137  0.0130  0.0598  0.9278
   82MOL    C6031002   6.978   3.273   7.060  0.2480 -0.2063  0.3360
   82MOL    C6131003   6.952   3.281   6.907 -0.0304 -0.1748  0.2271
   82MOL    C6231004   7.076   3.259   6.819 -0.7879 -0.0314 -0.6384
   82MOL    C6331005   7.051   3.254   6.663  0.3143 -0.7722  0.0138
   82MOL    C6431006   7.004   3.115   6.619 -0.1033  0.8290  0.3701
   82MOL    O6531007   7.024   3.398   7.097  0.2298 -0.4886  0.2631
   82MOL    H6631008   6.786   3.349   7.134  0.1971  0.1000 -1.5263
   82MOL    H6731009   6.779   3.167   7.110 -0.5536  0.3944  1.0928
   82MOL    H6831010   7.039   3.185   7.081  2.3131  1.3680  1.0750
   82MOL    H6931011   6.908   3.375   6.874 -1.9434 -1.6653 -1.6233
   82MOL    H7031012   6.877   3.206   6.881  1.8561 -2.4066  1.0754
   82MOL    H7131013   7.128   3.173   6.859 -0.5104  0.7764  0.7741
   82MOL    H7231014   7.132   3.352   6.831  0.2939 -0.5336 -1.7218
   82MOL    H7331015   7.143   3.294   6.620  0.7057  0.0125  1.5564
   82MOL    H7431016   6.974   3.327   6.637  2.0561  0.7584 -0.9353
   82MOL    H7531017   6.957   3.112   6.520 -0.6184  1.3988  0.5896
   82MOL    H7631018   7.082   3.040   6.611 -0.7226  0.2274 -0.0573
   82MOL    H7731019   6.926   3.071   6.681  0.9795  0.3476  1.4014
   82MOL    C7831020   7.147   3.382   7.163 -1.1950  0.4257 -0.4626
   82MOL    C7931021   7.222   3.518   7.202  0.1487  0.3682  0.1443
   82MOL    C8031022   7.376   3.500   7.213  0.8532  0.1111  0.0900
   82MOL    C8131023   7.452   3.633   7.245 -0.3977 -0.1484 -0.1600
   82MOL    C8231024   7.602   3.616   7.237 -0.2439 -0.0048 -0.2466
   82MOL    C8331025   7.659   3.612   7.096  0.5567  0.3719 -0.4506
   82MOL    O8431026   7.193   3.561   7.338  0.1548 -0.1120 -0.0393
   82MOL    H8531027   7.207   3.332   7.087  0.2088 -0.3448  1.1178
   82MOL    H8631028   7.150   3.314   7.248 -0.8331  1.4789  0.3798
   82MOL    H8731029   7.213   3.594   7.125  1.9264 -0.5474 -1.0154
   82MOL    H8831030   7.400   3.429   7.292 -2.9913 -1.8751 -0.4018
   82MOL    H8931031   7.409   3.461   7.116  1.1483  0.0194  0.2259
   82MOL    H9031032   7.436   3.664   7.348  0.1697 -0.5335  0.0469
   82MOL    H9131033   7.414   3.719   7.190 -0.2544  0.1668  0.2361
   82MOL    H9231034   7.647   3.708   7.276 -0.0379  0.2742 -1.1174
   82MOL    H9331035   7.634   3.528   7.292  0.5770  0.3885 -0.0745
   82MOL    H9431036   7.609   3.541   7.030  0.5543 -0.0619  0.0158
   82MOL    H9531037   7.757   3.566   7.102 -1.3598 -3.6789  2.2523
   82MOL    H9631038   7.663   3.713   7.054  1.3736  1.1353  1.4030
   82MOL    C9731039   7.062   3.608   7.351 -0.0451  0.3278 -0.7784
   82MOL    C9831040   7.042   3.682   7.489 -0.6097 -0.1123  0.3006
   82MOL    C9931041   6.901   3.733   7.524 -0.2899  0.2375  0.8053
   82MOL   C10031042   6.886   3.813   7.653 -0.0168  0.4372  0.6629
   82MOL   C10131043   6.963   3.941   7.667 -0.3554 -0.0410  0.5641
   82MOL   C10231044   6.898   4.028   7.773 -0.5949 -0.1092  0.1114
   82MOL   O10331045   7.089   3.593   7.597  0.2667 -0.1554 -0.1553
   82MOL   H10431046   6.989   3.527   7.353  1.8283 -1.3808  0.0234
   82MOL   H10531047   7.040   3.668   7.263  1.4000  0.3104 -1.1602
   82MOL   H10631048   7.107   3.769   7.486 -0.1045 -0.4918  0.2381
   82MOL   H10731049   6.833   3.648   7.530  0.0756 -0.3024 -2.0973
   82MOL   H10831050   6.862   3.782   7.434 -1.6238  1.8237  2.2067
   82MOL   H10931051   6.893   3.745   7.738  0.7365 -0.3494 -0.0173
   82MOL   H11031052   6.780   3.837   7.656 -0.9062 -2.9804 -0.6446
   82MOL   H11131053   6.955   3.984   7.567 -1.0095 -2.9771 -0.6672
   82MOL   H11231054   7.068   3.920   7.687 -0.6045 -0.0117  1.9209
   82MOL   H11331055   6.806   4.068   7.730  0.4529  1.5295 -0.6822
   82MOL   H11431056   6.900   3.979   0.084  0.0966 -0.8175 -0.2518
   82MOL   H11531057   6.964   4.114   0.001 -0.5486 -0.1317  0.0351
   82MOL   C11631058   7.223   3.578   7.630 -0.5590 -0.2027 -0.1336
   82MOL   C11731059   7.252   3.684   7.736  0.0846 -0.0994  0.6256
   82MOL   C11831060   7.408   3.697   7.779 -0.3870 -0.1262  0.0140
   82MOL   C11931061   7.497   3.741   7.662  0.4096  1.2492 -0.0985
   82MOL   C12031062   7.643   3.744   7.704 -0.2343 -0.2332  0.1386
   82MOL   C12131063   7.728   3.777   7.581 -0.1839  0.0678 -0.2772
   82MOL   O12231064   7.174   3.643   0.060 -0.6452  0.1566 -0.7978
   82MOL   H12331065   7.245   3.481   7.676 -1.6213 -0.2779  0.2327
   82MOL   H12431066   7.288   3.592   7.544  2.2271  1.0103  2.0954
   82MOL   H12531067   7.226   3.780   7.692  0.2538 -0.3671 -0.0659
   82MOL   H12631068   7.408   3.771   0.074 -1.3157 -1.4684  1.2893
   82MOL   H12731069   7.449   3.605   0.035  0.0763 -1.9695 -4.3319
   82MOL   H12831070   7.458   3.832   7.616 -1.1885  0.2479 -0.7540
   82MOL   H12931071   7.494   3.664   7.584  0.5843  2.2710 -1.1245
   82MOL   H13031072   7.659   3.813   0.001  1.0143 -0.4547  0.0900
   82MOL   H13131073   7.665   3.650   7.754 -2.2191 -0.4275  0.6990
   82MOL   H13231074   7.712   3.884   7.563  4.0484  0.5923 -1.3710
   82MOL   H13331075   0.049   3.763   7.600 -0.5073 -1.2265  0.6839
   82MOL   H13431076   7.702   3.713   7.497  2.0045 -1.2258 -0.0100
   82MOL   C13531077   7.153   3.738   0.160 -0.0889 -0.4040  0.1710
   82MOL   C13631078   7.019   3.711   0.222 -0.3152 -0.5529  0.0674
   82MOL   C13731079   7.001   3.824   0.327 -0.0101  0.3372  0.0910
   82MOL   C13831080   6.895   3.795   0.433 -0.3781 -0.3704 -0.0890
   82MOL   C13931081   6.887   3.888   0.559 -0.1228  0.2136  0.3154
   82MOL   C14031082   6.885   4.033   0.520  0.4253  0.1800 -0.4606
   82MOL   O14131083   7.026   3.591   0.295  0.2022  0.3905 -0.3492
   82MOL   H14231084   7.232   3.731   0.235 -0.7035 -2.1422  0.6876
   82MOL   H14331085   7.150   3.840   0.121 -1.1768  0.4708  2.4004
   82MOL   H14431086   6.941   3.715   0.146 -0.2018 -1.1036 -0.0744
   82MOL   H14531087   7.099   3.827   0.375 -0.0439 -2.1515  0.3958
   82MOL   H14631088   6.977   3.921   0.284  0.0586  0.9775  1.4898
   82MOL   H14731089   6.909   3.692   0.468 -0.7672 -1.5552 -3.1828
   82MOL   H14831090   6.792   3.791   0.397 -0.7885  0.9034  0.8995
   82MOL   H14931091   6.983   3.874   0.610 -1.0470 -1.3637  1.6598
   82MOL   H15031092   6.806   3.857   0.625  0.1897 -0.9404  0.1743
   82MOL   H15131093   6.972   4.077   0.471  3.2112 -2.1924  2.2268
   82MOL   H15231094   6.795   4.059   0.464  0.2412 -1.1279 -0.7805
   82MOL   H15331095   6.862   4.096   0.607  0.0824  0.6302 -0.8760
   82MOL   C15431096   6.907   3.515   0.277 -0.2416  0.0456  0.5564
   82MOL   C15531097   6.897   3.381   0.363 -0.1082  0.2538  0.2141
   82MOL   C15631098   7.031   3.317   0.329  0.3523 -0.5422 -0.2820
   82MOL   C15731099   7.035   3.167   0.367  0.4988  0.3372 -0.0732
   82MOL   C15831100   7.184   3.130   0.390  0.2258 -0.3223  0.6698
   82MOL   C15931101   7.209   2.977   0.388 -0.4592  0.6138 -0.2862
   82MOL   O16031102   6.877   3.406   0.504  0.2622 -0.3195  0.1819
   82MOL   H16131103   6.908   3.484   0.172 -0.5618  1.6380  0.0617
   82MOL   H16231104   6.817   3.575   0.283 -0.3237 -0.0651  0.4457
   82MOL   H16331105   6.824   3.315   0.317  0.0910 -0.9503  1.5845
   82MOL   H16431106   7.108   3.380   0.375  1.0825 -0.9640 -0.9303
   82MOL   H16531107   7.052   3.333   0.224  3.2183  0.9338  0.4415
   82MOL   H16631108   6.998   3.109   0.282 -1.6931  0.7456  0.5862
   82MOL   H16731109   6.969   3.130   0.445  1.6663 -2.5678 -0.3982
   82MOL   H16831110   7.253   3.182   0.324  0.0067  0.4188  1.0173
   82MOL   H16931111   7.214   3.162   0.490  0.3366  0.6442  0.3264
   82MOL   H17031112   7.161   2.936   0.477  1.1964 -0.1121  0.3038
   82MOL   H17131113   7.314   2.955   0.409 -1.3393 -2.1487  1.5067
   82MOL   H17231114   7.177   2.938   0.291 -1.2189 -0.8387  0.5264
   82MOL   C17331115   6.747   3.446   0.539  0.2417  0.0431  0.3042
   82MOL   C17431116   6.743   3.458   0.694 -0.2944  1.4316 -0.7136
   82MOL   C17531117   6.632   3.560   0.732  0.1985  0.5908  0.6611
   82MOL   C17631118   6.495   3.499   0.698  0.6722  0.4167 -0.1800
   82MOL   C17731119   6.373   3.594   0.698  0.5130 -0.6730 -0.0877
   82MOL   C17831120   6.245   3.518   0.689 -0.1178  0.4242  0.4510
   82MOL   O17931121   6.696   3.330   0.752 -0.4270 -0.1720 -0.6086
   82MOL   H18031122   6.672   3.380   0.493  0.0853  1.9910 -2.3523
   82MOL   H18131123   6.743   3.550   0.509  0.6502  0.7761  2.7346
   82MOL   H18231124   6.837   3.482   0.744 -0.0094 -3.4537  1.3343
   82MOL   H18331125   6.647   3.573   0.839  1.9146 -0.9026  0.6169
   82MOL   H18431126   6.654   3.656   0.685  1.2010  0.4413  0.8110
   82MOL   H18531127   6.497   3.458   0.597  0.1105  1.0390 -0.4499
   82MOL   H18631128   6.481   3.413   0.763 -0.0398  0.4342 -0.3067
   82MOL   H18731129   6.366   3.660   0.784 -1.1317 -3.2351  1.8131
   82MOL   H18831130   6.381   3.662   0.613 -0.8577 -0.9255 -0.4373
   82MOL   H18931131   6.158   3.576   0.658  0.3511  0.3060 -1.1192
   82MOL   H19031132   6.222   3.481   0.789 -0.7324  0.3367  0.2780
   82MOL   H19131133   6.254   3.432   0.621  0.7434 -0.9090  2.2044
   82MOL   C19231134   6.806   3.233   0.749  0.2506 -0.3996 -0.0302
   82MOL   C19331135   6.785   3.127   0.864  0.2063 -0.3467 -0.3430
   82MOL   C19431136   6.909   3.046   0.904  0.6209  0.3779 -0.0234
   82MOL   C19531137   6.976   2.968   0.792 -0.2236 -0.0167 -0.1018
   82MOL   C19631138   7.063   2.864   0.859  0.1023 -0.4245  0.9487
   82MOL   C19731139   7.131   2.776   0.753 -0.3283 -0.4945 -0.2177
   82MOL   O19831140   6.687   3.023   0.839 -0.3653 -0.0572 -0.7917
   82MOL   H19931141   6.809   3.178   0.655  0.0867  1.3401 -1.0860
   82MOL   H20031142   6.901   3.278   0.776  1.7669 -2.2479 -2.1376
   82MOL   H20131143   6.749   3.182   0.950 -0.8781 -0.0915 -0.9472
   82MOL   H20231144   6.976   3.101   0.970  0.4407  0.2214  0.2942
   82MOL   H20331145   6.871   2.981   0.982 -1.3169 -0.0491 -1.3017
   82MOL   H20431146   7.033   3.038   0.731 -0.5230  0.3571  0.0462
   82MOL   H20531147   6.901   2.912   0.735 -0.4388  0.4082 -0.2429
   82MOL   H20631148   7.136   2.916   0.920 -2.0559  2.3237  1.2995
   82MOL   H20731149   7.001   2.800   0.923 -2.4638  1.5715  0.5288
   82MOL   H20831150   7.219   2.722   0.788 -0.6648 -1.2596 -0.5419
   82MOL   H20931151   7.059   2.707   0.708 -1.1874  0.6380 -0.5921
   82MOL   H21031152   7.169   2.843   0.677 -0.1328 -0.4954 -0.1221
   82MOL   C21131153   6.553   3.067   0.815  0.0892 -0.7416 -0.2312
   82MOL   C21231154   6.455   2.945   0.804 -0.7001 -0.6916 -0.6662
   82MOL   C21331155   6.331   2.979   0.721  0.3159 -0.2060  0.3364
   82MOL   C21431156   6.240   2.852   0.700  0.4638  0.1562  1.0189
   82MOL   C21531157   6.106   2.879   0.625 -0.4947  0.3367 -0.7078
   82MOL   C21631158   6.116   2.942   0.487 -0.2539 -0.9320  0.3885
   82MOL   O21731159   6.406   2.912   0.936  0.6619 -0.3356 -0.0728
   82MOL   H21831160   6.560   3.127   0.725  1.9863 -1.2657 -0.4501
   82MOL   H21931161   6.523   3.136   0.894 -1.6869 -0.3347 -1.2304
   82MOL   H22031162   6.518   2.870   0.755 -0.5305 -0.1973 -1.2244
   82MOL   H22131163   6.282   3.050   0.788  0.4108 -1.8840  2.2491
   82MOL   H22231164   6.368   3.020   0.627  0.1384  2.1834  1.2798
   82MOL   H22331165   6.309   2.794   0.639  1.9045  0.1526  2.6223
   82MOL   H22431166   6.225   2.797   0.793 -1.0442  0.4379  0.9466
   82MOL   H22531167   6.055   2.784   0.610 -0.5172 -0.2782  2.8728
   82MOL   H22631168   6.035   2.940   0.682 -1.4156 -0.3117 -1.1380
   82MOL   H22731169   6.180   3.027   0.507 -0.9981 -0.4044  0.5314
   82MOL   H22831170   6.025   2.990   0.452 -0.1067 -1.7352 -1.1271
   82MOL   H22931171   6.161   2.883   0.407  1.0250  1.0247 -0.3780
   82MOL   C23031172   6.500   2.829   1.004  0.5021 -0.0206 -0.0201
   82MOL   C23131173   6.422   2.811   1.138  0.0487  0.4829 -0.0928
   82MOL   C23231174   6.294   2.729   1.133 -0.1577 -0.5531 -0.2953
   82MOL   C23331175   6.248   2.694   1.273 -0.3984 -0.4053  0.4472
   82MOL   C23431176   6.143   2.577   1.278 -0.1603  0.1368 -0.1872
   82MOL   C23531177   6.085   2.553   1.419 -0.3989 -0.1585 -0.1934
   82MOL   O23631178   6.397   2.936   1.203 -0.2482 -0.0919 -0.9021
   82MOL   H23731179   6.533   2.735   0.959  2.5099  0.0562  1.2195
   82MOL   H23831180   6.590   2.890   1.016 -0.5952  1.4460  1.0645
   82MOL   H23931181   6.481   2.752   1.208 -0.8026 -0.2722  0.0001
   82MOL   H24031182   6.317   2.638   1.078  0.4531 -0.2855 -0.4877
   82MOL   H24131183   6.226   2.789   1.073  2.0937  1.2417 -1.1544
   82MOL   H24231184   6.201   2.784   1.313  0.5318  1.0410 -1.6084
   82MOL   H24331185   6.326   2.655   1.338  0.1490  0.2324  0.1803
   82MOL   H24431186   6.059   2.614   1.219 -0.8125 -1.0482 -0.0203
   82MOL   H24531187   6.177   2.484   1.232 -2.2089 -1.4302  1.3311
   82MOL   H24631188   6.047   2.648   1.456  1.9407 -0.1371  2.2836
   82MOL   H24731189   6.159   2.512   1.487 -1.5664 -1.1072  0.5181
   82MOL   H24831190   6.006   2.478   1.421  1.4996 -2.1851  0.5843
   82MOL   C24931191   6.499   2.982   1.295  0.1304  0.0945 -0.3695
   82MOL   C25031192   6.481   3.132   1.333 -0.0185  0.1025 -0.4570
   82MOL   C25131193   6.508   3.214   1.208  1.1452 -0.2686 -0.4582
   82MOL   C25231194   6.482   3.361   1.219  0.4986  0.2159 -0.5799
   82MOL   C25331195   6.468   3.426   1.082 -0.3493  0.4306  0.7544
   82MOL   C25431196   6.468   3.572   1.078 -0.2281  0.0762  0.4911
   82MOL   O25531197   6.574   3.164   1.442 -0.2166 -0.2627  0.1952
   82MOL   H25631198   6.486   2.927   1.388 -0.5783 -1.5177 -1.4002
   82MOL   H25731199   6.600   2.958   1.260  0.4189  0.7300  0.0202
   82MOL   H25831200   6.377   3.145   1.362  0.7055  0.5879  1.9772
   82MOL   H25931201   6.615   3.202   1.186  1.0957  0.9555 -1.4268
   82MOL   H26031202   6.456   3.177   1.120  3.1648 -1.1930 -1.3186
   82MOL   H26131203   6.381   3.364   1.260  0.9173 -0.2828  0.5131
   82MOL   H26231204   6.551   3.401   1.294 -1.6400 -0.1834  1.6808
   82MOL   H26331205   6.554   3.387   1.027 -1.1664 -0.8941  0.4081
   82MOL   H26431206   6.386   3.390   1.021  0.8330 -0.8131 -0.1281
   82MOL   H26531207   6.428   3.625   0.991 -0.2820  1.8718  1.5668
   82MOL   H26631208   6.567   3.613   1.095  1.2906 -2.1628 -2.6078
   82MOL   H26731209   6.410   3.617   1.159 -1.2735  0.5802 -0.5192
   82MOL   C26831210   6.525   3.163   1.575  0.0639  0.0285 -0.2886
   82MOL   C26931211   6.640   3.206   1.667  0.1023 -0.0487  0.1965
   82MOL   C27031212   6.593   3.240   1.815 -0.1223  1.0903  0.1686
   82MOL   C27131213   6.713   3.266   1.903 -0.2116 -0.1388 -0.2373
   82MOL   C27231214   6.676   3.304   2.040  0.2422 -0.5143  0.4221
   82MOL   C27331215   6.800   3.344   2.126 -0.2483 -0.3335  0.4892
   82MOL   O27431216   6.703   3.327   1.627  0.3765  0.0866  0.7038
   82MOL   H27531217   6.486   3.064   1.596  0.9197 -0.9597 -3.1397
   82MOL   H27631218   6.446   3.236   1.591 -0.2332 -0.4032  0.2125
   82MOL   H27731219   6.714   3.126   1.672  0.6982  0.4051 -1.2412
   82MOL   H27831220   6.524   3.325   1.819 -0.1125  1.0151  3.0353
   82MOL   H27931221   6.525   3.160   1.845 -1.5455  1.4148 -2.0594
   82MOL   H28031222   6.769   3.173   1.899 -0.2502 -0.1533 -0.4493
   82MOL   H28131223   6.777   3.343   1.861 -2.9391  1.0929 -2.2524
   82MOL   H28231224   6.608   3.389   2.039  0.4363 -0.3276 -3.0332
   82MOL   H28331225   6.619   3.227   2.092 -0.8216 -1.0859 -1.5655
   82MOL   H28431226   6.848   3.436   2.093 -1.5784  0.0286 -0.5005
   82MOL   H28531227   6.772   3.354   2.231  0.7200 -0.7412  0.7877
   82MOL   H28631228   6.878   3.268   2.134 -0.0525 -0.5194 -2.7532
   82MOL   C28731229   6.825   3.310   1.550  0.5617 -0.5564  0.3283
   82MOL   C28831230   6.893   3.440   1.529 -0.3955  0.1269 -0.3359
   82MOL   C28931231   6.800   3.545   1.454 -0.0014  0.2220  0.0004
   82MOL   C29031232   6.846   3.691   1.428 -0.1464 -0.5275 -0.4470
   82MOL   C29131233   6.734   3.785   1.371 -0.4139 -1.0386  0.1349
   82MOL   C29231234   6.778   3.929   1.380 -0.3472 -0.2974 -0.2852
   82MOL   O29331235   7.013   3.424   1.462  0.0406  0.7388  0.1047
   82MOL   H29431236   6.801   3.250   1.461  0.1027  0.2546 -0.1021
   82MOL   H29531237   6.887   3.252   1.618 -1.1177 -1.0612  1.4664
   82MOL   H29631238   6.920   3.473   1.630  0.0695 -1.3323  0.0278
   82MOL   H29731239   6.776   3.511   1.353  0.5982  2.8555 -1.0977
   82MOL   H29831240   6.707   3.556   1.510  1.1771 -2.3142  2.5682
   82MOL   H29931241   6.886   3.722   1.524  0.1333 -1.9105 -0.1126
   82MOL   H30031242   6.943   3.689   1.377  0.8456  0.9439  1.3577
   82MOL   H30131243   6.639   3.785   1.424  0.2797  2.7571  1.5022
   82MOL   H30231244   6.703   3.757   1.270 -0.0053 -0.3394 -0.1901
   82MOL   H30331245   6.717   3.994   1.317  2.9087  1.4243 -1.7364
   82MOL   H30431246   6.770   3.971   1.480  1.6043  2.5760 -1.2730
   82MOL   H30531247   6.884   3.939   1.360 -0.6076  0.8242 -1.1521
   82MOL   C30631248   7.138   3.481   1.510 -0.1743  0.0234 -0.1264
   82MOL   C30731249   7.223   3.396   1.608  0.5997  0.1058  0.1122
   82MOL   C30831250   7.242   3.259   1.539 -0.0952  0.3662  0.6708
   82MOL   C30931251   7.341   3.156   1.609  0.6701  0.0028  0.6145
   82MOL   C31031252   7.332   3.014   1.548 -0.0812  0.6490  0.2875
   82MOL   C31131253   7.434   2.906   1.609 -0.0070 -1.3584  0.8524
   82MOL   O31231254   7.148   3.375   1.727 -0.1620 -0.6010  0.1026
   82MOL   H31331255   7.202   3.507   1.426 -0.3582 -1.6510 -0.7991
   82MOL   H31431256   7.112   3.580   1.548  0.1530 -0.7126  2.0656
   82MOL   H31531257   7.316   3.449   1.628 -0.1954  1.4978  0.1214
   82MOL   H31631258   7.274   3.275   1.436  0.6923 -0.2547  0.8189
   82MOL   H31731259   7.149   3.202   1.541 -0.1550  0.4924  1.7898
   82MOL   H31831260   7.442   3.187   1.583  1.1961 -2.9488 -1.1427
   82MOL   H31931261   7.334   3.159   1.718 -3.1581 -0.8884  0.4671
   82MOL   H32031262   7.346   3.022   1.440 -0.0963  0.1193  0.2462
   82MOL   H32131263   7.236   2.976   1.582  0.2061  0.1335  0.5371
   82MOL   H32231264   7.535   2.948   1.613  0.3515 -2.3018  1.8872
   82MOL   H32331265   7.410   2.863   1.706  1.9735 -2.3784  0.9180
   82MOL   H32431266   7.437   2.826   1.536  1.5629 -0.3196 -0.2609
   82MOL   C32531267   7.190   3.466   1.833 -0.1824 -0.2377  0.2947
   82MOL   C32631268   7.108   3.425   1.961 -0.1015 -0.4068 -0.4742
   82MOL   C32731269   7.124   3.535   2.065  0.0911  0.0467  0.3350
   82MOL   C32831270   7.031   3.656   2.052  0.0288 -0.2957  0.2272
   82MOL   C32931271   7.102   3.782   2.114 -0.1991 -0.2161  0.0519
   82MOL   C33031272   7.024   3.906   2.118 -0.1193 -0.0962 -0.1544
   82MOL   O33131273   7.158   3.304   2.020 -0.5130  0.7794  0.0200
   82MOL   H33231274   7.180   3.572   1.810  2.7289 -0.2636 -1.4479
   82MOL   H33331275   7.296   3.456   1.860 -0.1654 -3.0787 -0.6562
   82MOL   H33431276   7.008   3.418   1.920 -0.3534  2.1400 -0.3355
   82MOL   H33531277   7.100   3.491   2.162  2.1134  1.3548  1.4523
   82MOL   H33631278   7.225   3.576   2.063  0.3044 -0.5351 -1.9641
   82MOL   H33731279   7.007   3.673   1.947  0.5807  0.4873  0.2245
   82MOL   H33831280   6.935   3.652   2.103 -1.5682 -1.0682 -2.7323
   82MOL   H33931281   7.143   3.756   2.212  0.4930  0.2573 -0.1072
   82MOL   H34031282   7.182   3.804   2.043  0.4826 -1.0631  0.5403
   82MOL   H34131283   6.949   3.903   2.196 -0.9741  0.3010 -0.9519
   82MOL   H34231284   7.099   3.976   2.156  1.0658  0.4015 -3.2192
   82MOL   H34331285   6.980   3.949   2.028  3.0899 -0.8927 -2.1774
   82MOL   C34431286   7.143   3.181   1.945 -0.3710 -0.4464  0.3533
   82MOL   C34531287   7.099   3.075   2.056  0.3623 -0.0033  0.2677
   82MOL   C34631288   7.036   2.951   1.996 -0.5660  0.2138  0.9057
   82MOL   C34731289   7.099   2.882   1.871 -0.5453  0.0833 -0.1114
   82MOL   C34831290   7.056   2.732   1.856  0.1703 -0.0809  0.3366
   82MOL   C34931291   7.102   2.674   1.718 -0.0789  0.2052  0.3809
   82MOL   O35031292   7.219   3.036   2.115  0.7260  0.0099  0.4421
   82MOL   H35131293   7.226   3.152   1.881 -1.4566 -1.0611 -0.7943
   82MOL   H35231294   7.059   3.203   1.880 -1.1974 -1.9822  0.8743
   82MOL   H35331295   7.024   3.105   2.129  2.2062  0.3791  2.0313
   82MOL   H35431296   6.937   2.975   1.957 -2.1516 -1.3015  3.8264
   82MOL   H35531297   7.010   2.877   2.072 -0.9852 -1.5595 -0.9191
   82MOL   H35631298   7.206   2.885   1.891 -0.7723 -0.9989  1.3959
   82MOL   H35731299   7.079   2.938   1.780  1.0488 -0.2308 -0.6795
   82MOL   H35831300   6.950   2.719   1.878 -0.0688 -0.3950 -0.9472
   82MOL   H35931301   7.109   2.669   1.928 -2.1938 -1.1777  1.1518
   82MOL   H36031302   7.075   2.568   1.713 -1.1173  0.3747  1.9692
   82MOL   H36131303   7.205   2.685   1.685 -1.0939  0.4986 -2.8373
   82MOL   H36231304   7.050   2.727   1.638  0.9211 -0.4380 -0.7155
   82MOL   C36331305   7.260   3.103   2.229 -0.2152 -0.4301 -0.6603
   82MOL   C36431306   7.388   3.188   2.206 -0.5967 -0.0805 -0.6779
   82MOL   C36531307   7.481   3.110   2.114 -0.3898 -0.1495 -0.1908
   82MOL   C36631308   7.613   3.181   2.094  0.0826 -0.6214  0.6755
   82MOL   C36731309   7.700   3.106   1.993 -0.0405  0.4441  0.2933
   82MOL   C36831310   7.645   3.121   1.846  0.6535 -0.4146 -0.0129
   82MOL   O36931311   7.361   3.319   2.158 -1.2624  0.0880  0.6357
   82MOL   H37031312   7.284   3.011   2.283  0.1497 -0.8818 -1.5816
   82MOL   H37131313   7.182   3.157   2.283  1.1659 -1.2114  2.2219
   82MOL   H37231314   7.441   3.201   2.301 -0.1175 -0.4708 -0.8936
   82MOL   H37331315   7.496   3.006   2.143  1.1588  0.5470  1.5026
   82MOL   H37431316   7.437   3.098   2.014  1.6209 -0.8198 -1.0120
   82MOL   H37531317   7.594   3.280   2.051  0.1951 -0.8678  0.0553
   82MOL   H37631318   7.657   3.195   2.193  1.4856 -0.8461  0.0961
   82MOL   H37731319   0.018   3.138   1.992  0.1965 -0.3087  0.2736
   82MOL   H37831320   7.705   3.005   2.035  0.0051  1.0023  1.6644
   82MOL   H37931321   7.724   3.097   1.775 -0.0203  0.5840 -1.1198
   82MOL   H38031322   7.579   3.035   1.834  0.2684 -0.0951 -0.1912
   82MOL   H38131323   7.594   3.217   1.833 -1.4862 -1.3885  0.9440
   82MOL   H38231324   7.294   3.315   2.092 -0.2703  0.8913 -0.4447
   83MOL     C131325   1.014   0.148   2.239 -0.7102  0.2255 -0.1500
   83MOL     C231326   1.101   0.025   2.218  0.9166 -0.4407  0.2967
   83MOL     C331327   1.225   0.060   2.136 -0.1994 -0.8885  0.2207
   83MOL     C431328   1.198   0.084   1.987  0.0399  0.0418  0.3098
   83MOL     C531329   1.323   0.091   1.896 -0.6145 -0.3312 -0.2650
   83MOL     C631330   1.291   0.085   1.750 -0.2300  0.0705  0.1955
   83MOL     O731331   1.142   7.757   2.347  0.1103  0.6143  0.0731
   83MOL     H831332   1.054   0.221   2.309 -1.0385 -0.6361  0.9485
   83MOL     H931333   0.912   0.115   2.259 -0.2532 -1.4491 -0.5144
   83MOL    H1031334   1.047   7.734   2.162 -0.7429  0.5536  0.5056
   83MOL    H1131335   1.257   0.145   2.196  0.6165 -0.1486 -1.2593
   83MOL    H1231336   1.305   7.775   2.157  0.3784 -0.8164 -1.6874
   83MOL    H1331337   1.131   0.010   1.944  0.5444 -0.3465  0.1846
   83MOL    H1431338   1.144   0.178   1.986 -0.1973 -0.0879  1.0925
   83MOL    H1531339   1.388   0.179   1.903  0.7112 -1.3839  1.3095
   83MOL    H1631340   1.383   0.004   1.924 -0.3780  0.4385  1.7501
   83MOL    H1731341   1.241   7.773   1.746  0.2120 -0.1171 -0.8087
   83MOL    H1831342   1.220   0.162   1.721 -1.8037 -0.2645  2.9476
   83MOL    H1931343   1.378   0.082   1.684 -0.2974  0.2793  0.0977
   83MOL    H2031344   0.987   0.189   2.142  0.2456 -0.5127 -0.7309
   83MOL    C2131345   1.047   7.673   2.409  0.0786 -0.1984 -0.2121
   83MOL    C2231346   1.098   7.642   2.546 -0.5105 -0.0918 -0.5138
   83MOL    C2331347   0.985   7.589   2.641 -0.8331  0.1870 -0.0657
   83MOL    C2431348   1.049   7.554   2.777  0.2492 -0.1894 -0.0975
   83MOL    C2531349   0.949   7.541   2.898  0.5620 -1.1129 -0.0681
   83MOL    C2631350   1.014   7.463   3.010  0.9415 -0.4003  0.1050
   83MOL    O2731351   1.186   7.533   2.513  0.1787 -0.0701 -0.3894
   83MOL    H2831352   0.954   7.729   2.423  0.2741  0.5009 -1.6941
   83MOL    H2931353   1.024   7.585   2.349 -3.2831  1.0591 -0.8783
   83MOL    H3031354   1.155   7.729   2.578 -0.1152 -0.9488  1.1827
   83MOL    H3131355   0.933   7.503   2.600 -1.3987  0.5922 -0.2010
   83MOL    H3231356   0.912   7.670   2.644  1.6222  2.6707 -3.2938
   83MOL    H3331357   1.125   7.630   2.796  0.3314  0.2611 -2.0692
   83MOL    H3431358   1.114   7.466   2.774  2.8855  1.6282  1.4011
   83MOL    H3531359   0.901   7.628   2.943  0.2713 -0.8593 -0.8481
   83MOL    H3631360   0.864   7.481   2.865 -1.6924  0.9244  1.8015
   83MOL    H3731361   1.106   7.508   3.048  1.1661  0.9169 -1.9464
   83MOL    H3831362   1.042   7.365   2.969 -0.9997  0.0156 -2.2957
   83MOL    H3931363   0.945   7.447   3.093  0.2145  0.0702 -0.4042
   83MOL    C4031364   1.324   7.547   2.550 -0.2366 -0.0714 -0.3871
   83MOL    C4131365   1.396   7.407   2.544 -0.1995 -0.5696 -0.1714
   83MOL    C4231366   1.356   7.306   2.653  0.2968 -0.0579  0.1252
   83MOL    C4331367   1.405   7.345   2.795 -0.1949 -0.4900 -0.5813
   83MOL    C4431368   1.327   7.273   2.906  0.5593  0.4412  0.5998
   83MOL    C4531369   1.407   7.276   3.035 -1.3221 -0.1711 -0.4325
   83MOL    O4631370   1.537   7.428   2.547  0.1374  0.2661  0.1114
   83MOL    H4731371   1.317   7.593   2.649 -1.9237 -3.8860  1.4123
   83MOL    H4831372   1.369   7.612   2.476  1.8292 -0.3589  0.5793
   83MOL    H4931373   1.367   7.366   2.447 -0.3785  1.8748 -1.1900
   83MOL    H5031374   1.250   7.283   2.643  0.7416 -1.4831 -1.5852
   83MOL    H5131375   1.403   7.210   2.631 -1.8961 -1.3715  1.0399
   83MOL    H5231376   1.389   7.452   2.805  1.1090 -0.4317  1.1965
   83MOL    H5331377   1.513   7.343   2.806 -0.3017  0.2854  0.7334
   83MOL    H5431378   1.227   7.315   2.915 -0.2702 -1.7831  2.4940
   83MOL    H5531379   1.319   7.170   2.872  0.0079  1.0535 -1.1841
   83MOL    H5631380   1.381   7.194   3.102 -0.0474 -0.5219 -0.3543
   83MOL    H5731381   1.510   7.257   3.004 -0.9840 -0.5998  0.9031
   83MOL    H5831382   1.397   7.369   3.090  1.6692  0.0170 -0.1377
   83MOL    C5931383   1.620   7.320   2.498 -0.0150  0.2880 -0.8574
   83MOL    C6031384   1.756   7.366   2.443  0.1211 -0.1100  0.1569
   83MOL    C6131385   1.852   7.248   2.427  0.0784  0.1503  0.1658
   83MOL    C6231386   1.820   7.138   2.323  0.0239  0.3325 -0.3505
   83MOL    C6331387   1.936   7.032   2.310  0.9959 -0.0008  0.6494
   83MOL    C6431388   1.985   6.951   2.434 -0.3405  0.6226 -0.4938
   83MOL    O6531389   1.746   7.426   2.313  0.3785 -0.1123  0.1468
   83MOL    H6631390   1.570   7.252   2.430  2.4768 -2.1888 -0.3197
   83MOL    H6731391   1.636   7.251   2.581  0.5494  1.7271  0.2647
   83MOL    H6831392   1.797   7.437   2.514  0.5908 -0.4403  0.2196
   83MOL    H6931393   1.859   7.205   2.527 -0.1014 -0.9539 -0.2878
   83MOL    H7031394   1.948   7.295   2.410  0.0869  1.5122  3.4546
   83MOL    H7131395   1.807   7.182   2.224  1.4936  0.2624 -0.5813
   83MOL    H7231396   1.733   7.075   2.344 -0.4961  1.0886 -0.2258
   83MOL    H7331397   2.014   7.093   2.263  0.6472  0.3442  0.5222
   83MOL    H7431398   1.915   6.956   2.234  1.1226  0.4361  0.1711
   83MOL    H7531399   2.088   6.917   2.421 -1.1620 -2.0740 -0.3882
   83MOL    H7631400   1.982   7.002   2.530 -1.5530  1.3449 -0.9007
   83MOL    H7731401   1.928   6.858   2.428 -0.4295  0.6017  0.6177
   83MOL    C7831402   1.687   7.558   2.320  0.7047  0.9187 -0.7579
   83MOL    C7931403   1.705   7.642   2.194 -0.3202  0.2560  0.4320
   83MOL    C8031404   1.649   7.784   2.212 -0.0030 -0.3605  0.0945
   83MOL    C8131405   1.683   0.108   2.112  0.5206  0.6517  0.4491
   83MOL    C8231406   1.598   0.234   2.141 -0.8409  0.9957 -0.0385
   83MOL    C8331407   1.642   0.357   2.064 -0.1692 -0.3662 -0.2594
   83MOL    O8431408   1.623   7.597   2.088 -0.5189  0.4101 -0.0749
   83MOL    H8531409   1.730   7.615   2.402 -1.3141  0.1314  0.8952
   83MOL    H8631410   1.578   7.552   2.328  0.8223  2.7860  2.8958
   83MOL    H8731411   1.810   7.641   2.165 -0.3516 -0.0370  0.3273
   83MOL    H8831412   1.541   0.004   2.229  0.0679 -0.6345  0.6343
   83MOL    H8931413   1.696   0.028   2.306 -0.7205  0.7346  0.1240
   83MOL    H9031414   1.645   0.078   2.014 -1.1647  2.9389  0.3396
   83MOL    H9131415   1.792   0.119   2.114  0.4508  1.6379 -0.3118
   83MOL    H9231416   1.496   0.222   2.103 -0.3890 -1.9032 -0.4489
   83MOL    H9331417   1.590   0.266   2.245  2.1987  2.7561 -0.3066
   83MOL    H9431418   1.741   0.388   2.099  0.9279 -0.4111 -3.1930
   83MOL    H9531419   1.575   0.443   2.066 -0.4369 -0.5480 -1.4131
   83MOL    H9631420   1.653   0.339   1.957  0.6838  0.0851 -0.2555
   83MOL    C9731421   1.670   7.482   2.022  0.1606 -0.7442  0.0463
   83MOL    C9831422   1.568   7.459   1.908 -0.0966 -0.1209  0.2250
   83MOL    C9931423   1.627   7.373   1.790  0.1920 -0.0833 -0.1948
   83MOL   C10031424   1.530   7.344   1.670 -0.3945 -0.4724  0.3323
   83MOL   C10131425   1.592   7.266   1.544 -0.1297 -0.0285 -0.0899
   83MOL   C10231426   1.475   7.227   1.452 -0.4070  0.0919 -0.1251
   83MOL   O10331427   1.466   7.389   1.967  0.9893  0.2577  0.1040
   83MOL   H10431428   1.676   7.394   2.087  1.7784 -2.2137 -2.0149
   83MOL   H10531429   1.768   7.482   1.976  2.0900 -2.2807  3.9104
   83MOL   H10631430   1.535   7.558   1.875 -0.9397 -0.4966 -0.0779
   83MOL   H10731431   1.655   7.279   1.838  0.2628  0.8238  1.5836
   83MOL   H10831432   1.715   7.420   1.745  1.5542 -3.4910 -1.2562
   83MOL   H10931433   1.501   7.443   1.636  1.7335 -0.3778 -1.3005
   83MOL   H11031434   1.438   7.295   1.702  0.1613 -1.3900  0.5423
   83MOL   H11131435   1.659   7.187   1.577 -1.1344 -1.5552 -1.5876
   83MOL   H11231436   1.656   7.342   1.499 -0.4420 -1.4392 -3.0405
   83MOL   H11331437   1.511   7.169   1.367  1.7491 -0.9247  1.4580
   83MOL   H11431438   1.397   7.176   1.508 -0.5868 -1.1132 -1.4258
   83MOL   H11531439   1.426   7.315   1.411  1.2502  0.6595 -0.9273
   83MOL   C11631440   1.347   7.466   2.001 -0.5130  0.1511 -0.0145
   83MOL   C11731441   1.232   7.373   2.022  0.6756  0.1773 -0.6666
   83MOL   C11831442   1.111   7.454   2.063 -0.8620 -0.1210 -0.4441
   83MOL   C11931443   0.974   7.377   2.051 -0.4372 -0.1514  0.1764
   83MOL   C12031444   0.855   7.470   2.067  0.0405 -0.0768 -0.4818
   83MOL   C12131445   0.824   7.555   1.948  0.5723  0.5872 -0.6455
   83MOL   O12231446   1.246   7.271   2.120  0.0079  0.0048 -0.2223
   83MOL   H12331447   1.367   7.525   2.090  1.6104 -0.3827 -0.1101
   83MOL   H12431448   1.322   7.536   1.921  0.9353  0.9758  0.2559
   83MOL   H12531449   1.215   7.324   1.926  0.2381 -0.2217 -0.3888
   83MOL   H12631450   1.149   7.481   2.161  1.8316 -1.0189 -1.1998
   83MOL   H12731451   1.096   7.542   1.999  2.1374  0.0957 -0.9189
   83MOL   H12831452   0.978   7.291   2.118  0.8201  0.8977  1.4842
   83MOL   H12931453   0.965   7.338   1.950 -2.2423 -0.3660  0.4072
   83MOL   H13031454   0.772   7.400   2.072  0.5860 -0.6603  0.3897
   83MOL   H13131455   0.875   7.538   2.150  1.0301 -0.1460 -0.6624
   83MOL   H13231456   0.899   7.633   1.938 -1.5873  2.3835 -3.6501
   83MOL   H13331457   0.825   7.494   1.858  2.3334  0.8416 -0.8133
   83MOL   H13431458   0.734   7.608   1.978 -0.8307 -2.3723  0.5733
   83MOL   C13531459   1.279   7.135   2.070  0.4342  0.4442  0.2287
   83MOL   C13631460   1.363   7.050   2.171 -0.8086 -0.2657 -0.5220
   83MOL   C13731461   1.422   6.933   2.094 -0.6599 -0.4848 -0.4770
   83MOL   C13831462   1.532   6.865   2.174  0.4530 -0.6101 -0.8943
   83MOL   C13931463   1.605   6.767   2.081  0.1823  0.2612 -0.5736
   83MOL   C14031464   1.716   6.686   2.154  0.4834 -0.4086 -0.2625
   83MOL   O14131465   1.286   6.987   2.275  0.2366  0.3621  0.2219
   83MOL   H14231466   1.186   7.090   2.035  0.4847  0.6318 -0.1430
   83MOL   H14331467   1.330   7.149   1.975 -1.4687 -2.2239 -1.2545
   83MOL   H14431468   1.436   7.120   2.211 -1.7647  0.6428 -0.3532
   83MOL   H14531469   1.337   6.867   2.075  0.6748 -2.3747 -0.0722
   83MOL   H14631470   1.468   6.972   2.003 -0.0669 -0.6533 -0.2474
   83MOL   H14731471   1.490   6.819   2.264  0.2095  1.1219 -0.1082
   83MOL   H14831472   1.611   6.929   2.213 -0.9338 -0.9030  2.6780
   83MOL   H14931473   1.653   6.823   2.000 -0.1089  0.6926 -0.4483
   83MOL   H15031474   1.538   6.697   2.030  0.5130  1.2467 -2.4069
   83MOL   H15131475   1.669   6.602   2.207 -0.4413  0.4373  0.2645
   83MOL   H15231476   1.782   6.644   2.078  3.1062 -0.7379  2.0608
   83MOL   H15331477   1.782   6.733   2.227 -0.4808  0.4026  0.0871
   83MOL   C15431478   1.212   7.077   2.351  0.0573 -0.2464 -0.2326
   83MOL   C15531479   1.135   6.986   2.449  0.4289 -0.3405 -0.6367
   83MOL   C15631480   1.216   6.939   2.572 -0.3866  0.1504  0.0515
   83MOL   C15731481   1.141   6.815   2.642 -0.3452 -0.4991 -0.3448
   83MOL   C15831482   1.158   6.677   2.579 -0.1253 -0.1775 -0.1001
   83MOL   C15931483   1.048   6.572   2.606  0.0711 -0.1075 -0.3484
   83MOL   O16031484   1.028   7.053   2.506 -0.0853  0.6433 -0.0691
   83MOL   H16131485   1.144   7.140   2.293  0.3487  1.2076  0.9874
   83MOL   H16231486   1.270   7.147   2.411 -1.9228  0.6750  0.6443
   83MOL   H16331487   1.098   6.905   2.387  0.1949  0.3776 -1.4457
   83MOL   H16431488   1.237   7.018   2.645 -2.4660  2.0611 -1.3504
   83MOL   H16531489   1.318   6.916   2.542  0.7302  1.4066  2.6978
   83MOL   H16631490   1.038   6.836   2.673 -0.9854  0.3674 -2.9520
   83MOL   H16731491   1.199   6.819   2.734 -2.0116 -0.9347  0.7342
   83MOL   H16831492   1.174   6.688   2.472  1.6166 -1.1978  0.0390
   83MOL   H16931493   1.256   6.640   2.610  0.5991  0.1157 -1.9906
   83MOL   H17031494   1.040   6.563   2.714 -2.8326  2.0539 -0.3157
   83MOL   H17131495   1.060   6.478   2.552  1.7651 -0.1699  0.1184
   83MOL   H17231496   0.956   6.618   2.570 -0.7142  0.5124  2.3473
   83MOL   C17331497   0.903   7.050   2.441  0.3112 -0.4842  0.1724
   83MOL   C17431498   0.810   7.168   2.485  0.2251 -0.0715 -0.4818
   83MOL   C17531499   0.717   7.195   2.366 -0.0567 -0.1300  0.2866
   83MOL   C17631500   0.632   7.068   2.322  0.7250  0.1469 -0.4251
   83MOL   C17731501   0.588   7.067   2.173  0.1575  0.1577  0.3990
   83MOL   C17831502   0.481   6.963   2.144 -0.0208  0.1261  0.1721
   83MOL   O17931503   0.731   7.140   2.600 -0.2301 -0.3084  0.2721
   83MOL   H18031504   0.865   6.951   2.468 -0.1566 -0.4124 -0.2156
   83MOL   H18131505   0.917   7.053   2.333 -0.4626  1.9586  0.1258
   83MOL   H18231506   0.868   7.259   2.504 -0.2100  0.5237 -1.9050
   83MOL   H18331507   0.642   7.272   2.384  1.6632  2.0768 -1.5155
   83MOL   H18431508   0.772   7.229   2.278 -1.4070 -1.2399 -0.9919
   83MOL   H18531509   0.687   6.977   2.347  0.4622  0.4528  1.3606
   83MOL   H18631510   0.542   7.073   2.383  1.0741  1.0241  0.0349
   83MOL   H18731511   0.562   7.169   2.147  0.8821 -0.1860 -1.7236
   83MOL   H18831512   0.674   7.045   2.110 -0.8321  1.2167 -1.3438
   83MOL   H18931513   0.390   6.978   2.202  1.0376 -0.6109  2.0385
   83MOL   H19031514   0.500   6.867   2.192 -1.8114  0.6863  2.0667
   83MOL   H19131515   0.467   6.951   2.036 -0.1821  0.5570  0.1441
   83MOL   C19231516   0.793   7.075   2.707  0.4771  0.6468 -0.3658
   83MOL   C19331517   0.694   7.096   2.826 -0.8915 -0.0370  0.6506
   83MOL   C19431518   0.763   7.092   2.964 -0.1449 -0.2620  0.7803
   83MOL   C19531519   0.855   6.973   2.991 -0.3736 -0.3884  0.2181
   83MOL   C19631520   0.921   6.982   3.127 -0.0076 -0.1353  0.2606
   83MOL   C19731521   1.041   7.075   3.131  0.0236 -0.3892  0.2296
   83MOL   O19831522   0.612   6.983   2.831  0.3641  0.5508 -0.2050
   83MOL   H19931523   0.827   6.975   2.681 -0.0059  0.5807 -0.7564
   83MOL   H20031524   0.872   7.149   2.722 -0.6039  1.5070  1.0850
   83MOL   H20131525   0.639   7.190   2.822  0.8550  1.0325  1.2625
   83MOL   H20231526   0.817   7.186   2.977 -0.5676 -0.2393  2.5075
   83MOL   H20331527   0.680   7.103   3.034 -0.6463  2.3156 -0.1811
   83MOL   H20431528   0.936   6.973   2.917  1.3358  1.8739  1.9934
   83MOL   H20531529   0.799   6.880   2.982  0.8044 -1.0820 -0.0463
   83MOL   H20631530   0.848   7.018   3.199 -0.6180  0.9767 -0.8886
   83MOL   H20731531   0.964   6.887   3.158  0.5559  0.5065  1.4349
   83MOL   H20831532   1.113   7.056   3.052 -1.5007  0.5657 -1.4102
   83MOL   H20931533   1.007   7.178   3.122 -0.2343 -0.5345 -0.4502
   83MOL   H21031534   1.084   7.064   3.231  0.6214 -1.2133 -0.1034
   83MOL   C21131535   0.472   7.007   2.805 -0.3961  0.6345 -0.5061
   83MOL   C21231536   0.370   6.896   2.843 -0.0149  0.1404  0.2528
   83MOL   C21331537   0.221   6.912   2.783 -0.0605  0.6426  0.6768
   83MOL   C21431538   0.122   6.792   2.824  0.0649 -0.2418  0.1356
   83MOL   C21531539   7.760   6.828   2.797 -0.1366  0.8020  0.6160
   83MOL   C21631540   7.656   6.707   2.809  0.3291  0.1178  0.2787
   83MOL   O21731541   0.358   6.907   2.982  0.2039  0.3776 -0.4508
   83MOL   H21831542   0.463   7.021   2.697  0.5765 -0.2526 -0.7160
   83MOL   H21931543   0.440   7.098   2.856  0.4965  1.8350 -2.0596
   83MOL   H22031544   0.409   6.798   2.816  2.6919  1.0890  0.5204
   83MOL   H22131545   0.187   7.011   2.814 -1.2591  0.6229 -0.5070
   83MOL   H22231546   0.220   6.904   2.674 -1.2517  1.9014  0.5837
   83MOL   H22331547   0.143   6.699   2.772  1.3677 -0.9017  1.7778
   83MOL   H22431548   0.132   6.780   2.932  0.3961 -0.0229  0.1307
   83MOL   H22531549   7.725   6.906   2.865 -0.7360  1.4262 -0.3927
   83MOL   H22631550   7.752   6.875   2.699 -0.8366 -0.4803  0.0447
   83MOL   H22731551   7.694   6.620   2.756  0.7086 -1.2001  2.6386
   83MOL   H22831552   7.557   6.733   2.771  0.5707 -0.5950 -0.8662
   83MOL   H22931553   7.649   6.671   2.912 -1.6505 -2.0596 -0.5538
   83MOL   C23031554   0.459   6.839   3.061 -0.7244 -0.1353 -0.1487
   83MOL   C23131555   0.432   6.831   3.207  0.2336 -0.2181  0.4039
   83MOL   C23231556   0.566   6.807   3.276  0.5677  0.5478 -0.2398
   83MOL   C23331557   0.557   6.756   3.423  0.6372  0.0807 -0.7476
   83MOL   C23431558   0.677   6.785   3.510 -0.1316 -0.0674 -0.4940
   83MOL   C23531559   0.642   6.778   3.666 -0.0488  0.1921  0.0227
   83MOL   O23631560   0.358   6.712   3.238 -0.5283 -0.7226  0.2333
   83MOL   H23731561   0.466   6.739   3.019 -1.3154  0.5074 -1.8212
   83MOL   H23831562   0.552   6.895   3.046 -2.4857  2.7371 -0.8551
   83MOL   H23931563   0.391   6.927   3.240  1.3577 -0.5335  2.8279
   83MOL   H24031564   0.619   6.903   3.280  0.9676  0.3157  0.1168
   83MOL   H24131565   0.625   6.736   3.218  0.3288  2.6455 -3.1375
   83MOL   H24231566   0.516   6.658   3.448  3.9301 -1.4980 -1.1759
   83MOL   H24331567   0.483   6.819   3.472  1.8692 -1.0185  2.6965
   83MOL   H24431568   0.755   6.713   3.486  0.5739  0.9221 -1.2213
   83MOL   H24531569   0.716   6.887   3.501 -0.2226  0.1124  0.9174
   83MOL   H24631570   0.606   6.676   3.677 -1.2967  0.2886 -2.7469
   83MOL   H24731571   0.552   6.832   3.693 -0.3121 -1.2334  2.0320
   83MOL   H24831572   0.726   6.797   3.733  0.1158 -1.6172  0.3510
   83MOL   C24931573   0.218   6.725   3.227 -0.0248  0.0296  0.3154
   83MOL   C25031574   0.167   6.579   3.266 -0.6503  0.9293 -0.1979
   83MOL   C25131575   0.033   6.540   3.193  0.4398 -0.7978 -0.3303
   83MOL   C25231576   7.762   6.401   3.228  0.1441 -0.3579  0.1036
   83MOL   C25331577   7.629   6.357   3.170  0.3278 -0.0201 -0.2874
   83MOL   C25431578   7.561   6.246   3.248 -0.3980  0.1190  0.1645
   83MOL   O25531579   0.128   6.569   3.404 -0.1734  0.2972  0.3524
   83MOL   H25631580   0.185   6.807   3.291 -0.8688 -0.3102  0.3217
   83MOL   H25731581   0.187   6.738   3.123 -0.6141  0.8805  0.5916
   83MOL   H25831582   0.246   6.512   3.230 -0.0735  2.7252 -2.3947
   83MOL   H25931583   7.738   6.613   3.191  1.9353  0.9336  1.2417
   83MOL   H26031584   0.063   6.535   3.088 -1.2126 -1.9170 -0.7592
   83MOL   H26131585   0.032   6.317   3.188  0.6860 -0.3426  0.8011
   83MOL   H26231586   7.777   6.387   3.335 -1.7270 -1.6086  0.2218
   83MOL   H26331587   7.558   6.440   3.174  0.3624  0.0399 -1.0246
   83MOL   H26431588   7.656   6.325   3.070  2.9354 -1.1146  0.7117
   83MOL   H26531589   7.544   6.284   3.349  3.4174 -2.9861  2.0947
   83MOL   H26631590   7.625   6.159   3.264  1.0324  1.1671  0.2345
   83MOL   H26731591   7.468   6.213   3.202 -1.0654  0.2380  1.4029
   83MOL   C26831592   0.235   6.583   3.498 -0.0796 -0.2320 -0.8226
   83MOL   C26931593   0.178   6.566   3.640  0.4552 -0.1689 -0.0799
   83MOL   C27031594   0.119   6.424   3.661  0.3647 -0.8613 -0.5127
   83MOL   C27131595   0.102   6.381   3.807  0.8809 -0.2831  0.7012
   83MOL   C27231596   0.065   6.233   3.840 -0.1626  0.5933  0.5003
   83MOL   C27331597   7.716   6.200   3.787 -0.0451  0.5694  0.0525
   83MOL   O27431598   0.080   6.659   3.675  0.8767 -0.3562  0.3623
   83MOL   H27531599   0.269   6.686   3.485 -0.2929  0.0921  1.0547
   83MOL   H27631600   0.315   6.512   3.475 -1.2329 -0.2246 -5.3162
   83MOL   H27731601   0.253   6.574   3.718  1.4025  0.0777 -0.9967
   83MOL   H27831602   0.023   6.419   3.609  0.1931 -2.0126 -0.0994
   83MOL   H27931603   0.187   6.349   3.620  1.8336  1.0910 -1.7135
   83MOL   H28031604   0.189   6.411   3.866  0.8401 -0.6894  0.9651
   83MOL   H28131605   0.018   6.434   3.852  1.2748  1.4548 -0.5530
   83MOL   H28231606   0.140   6.160   3.813  1.0573  1.4428  1.5458
   83MOL   H28331607   0.061   6.207   3.945  0.1403 -1.1608  0.0920
   83MOL   H28431608   7.717   6.232   3.683 -0.5812 -1.2051 -0.5221
   83MOL   H28531609   7.706   6.091   3.793 -0.6940  0.6595  0.6222
   83MOL   H28631610   7.636   6.252   3.839 -0.8584  0.3427 -0.9546
   83MOL   C28731611   0.130   6.793   3.690 -0.0212 -0.4077  0.3527
   83MOL   C28831612   0.152   6.838   3.837  0.0636 -0.2089  0.0745
   83MOL   C28931613   0.133   6.995   3.851  0.4320  0.3288 -0.5045
   83MOL   C29031614   0.151   7.048   3.990 -0.1969  0.4462  0.3258
   83MOL   C29131615   0.125   7.201   3.982  0.3226  0.5616 -0.6561
   83MOL   C29231616   0.124   7.257   4.124  0.5887  0.0845 -0.1684
   83MOL   O29331617   0.278   6.802   3.878  0.3623 -0.3242 -0.3028
   83MOL   H29431618   0.051   6.854   3.645  0.9638 -0.4689 -1.4849
   83MOL   H29531619   0.221   6.817   3.637  0.1649  0.5032  1.0606
   83MOL   H29631620   0.070   6.790   3.891 -0.5758  1.6386  0.8015
   83MOL   H29731621   0.207   7.050   3.793 -0.0498  2.5172  0.8980
   83MOL   H29831622   0.030   7.018   3.823  0.7068  5.0236  1.8705
   83MOL   H29931623   0.088   7.002   4.066 -0.1139  0.5479  0.4575
   83MOL   H30031624   0.254   7.033   4.023 -0.2369  2.3449  1.3789
   83MOL   H30131625   0.035   7.224   3.924 -1.2896  3.1524  2.6653
   83MOL   H30231626   0.206   7.251   3.929  1.1315  1.1772  1.1030
   83MOL   H30331627   0.214   7.228   4.178  1.1537  0.6868 -0.7856
   83MOL   H30431628   0.121   7.366   4.118  0.2460  0.1475  1.0421
   83MOL   H30531629   0.043   7.229   4.192  0.3842  2.1246  0.4663
   83MOL   C30631630   0.270   6.707   3.985  0.6997 -0.1553 -0.0447
   83MOL   C30731631   0.409   6.678   4.049 -0.0013 -0.7421  0.0829
   83MOL   C30831632   0.396   6.579   4.164 -0.2496 -0.4805  0.2432
   83MOL   C30931633   0.528   6.540   4.231  0.2785 -0.1048 -0.3687
   83MOL   C31031634   0.526   6.419   4.325  0.3209  0.4941 -0.3634
   83MOL   C31131635   0.665   6.399   4.385 -0.3739 -0.2223  0.2895
   83MOL   O31231636   0.471   6.794   4.108  0.4748  0.2102  0.1130
   83MOL   H31331637   0.211   6.756   4.062  1.0649  0.3205 -0.0662
   83MOL   H31431638   0.209   6.620   3.961 -1.8149  1.1193  1.5240
   83MOL   H31531639   0.477   6.639   3.974 -0.9900 -0.0695 -1.1854
   83MOL   H31631640   0.345   6.494   4.120  0.0235  0.6547 -2.3967
   83MOL   H31731641   0.330   6.611   4.245  2.0722 -0.3588  2.1541
   83MOL   H31831642   0.598   6.523   4.149  0.1306 -1.1719 -0.2719
   83MOL   H31931643   0.571   6.627   4.280 -1.0690  0.9236 -0.9908
   83MOL   H32031644   0.498   6.324   4.279  1.0410  0.5904 -0.9972
   83MOL   H32131645   0.470   6.433   4.418 -0.2038 -2.1012 -0.2383
   83MOL   H32231646   0.665   6.331   4.471  3.6940  0.5099  0.9520
   83MOL   H32331647   0.735   6.372   4.306  0.9507  0.0870  1.3349
   83MOL   H32431648   0.702   6.495   4.422 -2.9003  1.2276 -0.8054
   83MOL   C32531649   0.559   6.869   4.029 -0.5244  0.0269  0.2865
   83MOL   C32631650   0.615   6.993   4.103 -0.1958  0.2135 -0.4360
   83MOL   C32731651   0.505   7.098   4.142 -0.6280  0.1494 -0.5588
   83MOL   C32831652   0.556   7.198   4.247  0.0658 -0.0672  0.3743
   83MOL   C32931653   0.667   7.294   4.204  0.9198  1.1627  0.1289
   83MOL   C33031654   0.701   7.386   4.329  0.0388  0.4466 -0.6820
   83MOL   O33131655   0.711   7.057   4.021  0.3589  0.6102  0.3859
   83MOL   H33231656   0.517   6.889   3.930  0.5852 -2.5703 -0.7470
   83MOL   H33331657   0.645   6.809   4.001 -0.4902 -0.3944  1.2831
   83MOL   H33431658   0.662   6.958   4.195  0.4210 -0.1945 -0.9045
   83MOL   H33531659   0.466   7.151   4.055  1.1778  1.2322 -0.7336
   83MOL   H33631660   0.418   7.040   4.174  0.1976 -0.4408  0.6460
   83MOL   H33731661   0.472   7.256   4.284  0.0876  0.0794  0.1923
   83MOL   H33831662   0.603   7.134   4.322  0.7780 -0.6655 -0.5589
   83MOL   H33931663   0.757   7.236   4.183  0.6800  0.5516  0.7577
   83MOL   H34031664   0.635   7.345   4.113 -0.1704 -1.4410 -0.9989
   83MOL   H34131665   0.770   7.466   4.299 -0.3080  0.7428 -0.6908
   83MOL   H34231666   0.609   7.419   4.377  1.2609  0.7234  1.5006
   83MOL   H34331667   0.752   7.329   4.407 -1.7111 -0.7012 -0.3605
   83MOL   C34431668   0.841   7.003   4.037  0.0132 -0.9192 -0.1121
   83MOL   C34531669   0.938   7.082   3.954 -0.5394  0.9355  0.1750
   83MOL   C34631670   1.082   7.020   3.970  0.4174 -0.3019 -0.3673
   83MOL   C34731671   1.199   7.096   3.895  0.5926  0.2052  0.1185
   83MOL   C34831672   1.330   7.047   3.955  0.4427  0.1153  1.4016
   83MOL   C34931673   1.462   7.109   3.893 -0.1832  0.0680  0.1062
   83MOL   O35031674   0.905   7.064   3.818 -0.1856  0.2300 -0.0152
   83MOL   H35131675   0.844   6.898   4.008  1.3748 -1.1160  0.6882
   83MOL   H35231676   0.872   7.007   4.141 -2.1474  0.1897  0.5112
   83MOL   H35331677   0.938   7.188   3.982 -2.1332  1.2368 -0.8803
   83MOL   H35431678   1.091   6.913   3.953 -0.0781 -0.5459  0.8846
   83MOL   H35531679   1.108   7.022   4.075 -0.4004  2.5958 -0.1666
   83MOL   H35631680   1.181   7.201   3.922 -1.0404 -0.1657  0.5210
   83MOL   H35731681   1.199   7.085   3.787  0.6472 -0.8535  0.2207
   83MOL   H35831682   1.341   6.939   3.964 -0.7357 -0.0417  1.0929
   83MOL   H35931683   1.315   7.097   4.051  1.9667  2.7387  0.3449
   83MOL   H36031684   1.469   7.218   3.891  1.6040 -0.0513 -1.4688
   83MOL   H36131685   1.473   7.072   3.791 -3.0420 -0.0999 -0.1637
   83MOL   H36231686   1.552   7.076   3.945  1.5082  1.4540 -1.8803
   83MOL   C36331687   0.908   7.178   3.730  0.2322 -0.4232 -0.4386
   83MOL   C36431688   0.764   7.238   3.704  0.5271  0.4381  0.4132
   83MOL   C36531689   0.664   7.139   3.636 -1.0686  0.1284 -0.5424
   83MOL   C36631690   0.519   7.183   3.633  0.3976 -0.2490 -0.1620
   83MOL   C36731691   0.440   7.088   3.547  0.3106 -0.3222 -0.6880
   83MOL   C36831692   0.311   7.158   3.502 -0.0817  0.1705 -0.2765
   83MOL   O36931693   0.711   7.288   3.824  0.1307  0.5843 -0.0764
   83MOL   H37031694   0.950   7.150   3.634  0.8516  0.0994 -0.3232
   83MOL   H37131695   0.969   7.261   3.766 -0.9213  0.6221 -0.8485
   83MOL   H37231696   0.781   7.319   3.633 -0.0542  0.7454  0.6205
   83MOL   H37331697   0.708   7.102   3.544 -1.0609 -3.3488  0.7646
   83MOL   H37431698   0.664   7.053   3.704 -1.5608  0.9812  0.5611
   83MOL   H37531699   0.465   7.186   3.728  0.3553  0.6042 -0.2099
   83MOL   H37631700   0.508   7.283   3.590 -2.2083 -0.1388  0.6471
   83MOL   H37731701   0.504   7.075   3.460  0.7277  1.9214 -0.7370
   83MOL   H37831702   0.416   6.997   3.601  1.4363  0.9519  2.0523
   83MOL   H37931703   0.257   7.180   3.595  1.5181  0.0497  0.7089
   83MOL   H38031704   0.329   7.247   3.443  2.0780 -2.1271 -3.2175
   83MOL   H38131705   0.259   7.088   3.437  0.0652 -1.7980  1.6585
   83MOL   H38231706   0.701   7.210   3.877  1.6817  0.2384 -0.2748
   84MOL     C131707   1.676   2.138   5.143  0.0415  0.1818  0.0352
   84MOL     C231708   1.694   2.167   5.291  0.3910 -0.0348  0.2509
   84MOL     C331709   1.560   2.153   5.362  0.0996  0.6401 -1.3184
   84MOL     C431710   1.577   2.191   5.517 -0.0662  0.0935  0.3693
   84MOL     C531711   1.444   2.205   5.593 -0.2813  0.4195  0.7205
   84MOL     C631712   1.460   2.250   5.740 -0.1220 -0.2243 -0.6318
   84MOL     O731713   1.788   2.070   5.346  0.3747  0.1859  0.2259
   84MOL     H831714   1.768   2.155   5.088  0.7236  0.7692  1.3324
   84MOL     H931715   1.602   2.206   5.099  0.0861  0.4430  0.3566
   84MOL    H1031716   1.737   2.266   5.309  1.6775 -0.3443 -1.0585
   84MOL    H1131717   1.498   2.225   5.309 -0.6853 -0.9737 -2.6296
   84MOL    H1231718   1.518   2.053   5.366  1.2361  0.2063  0.3189
   84MOL    H1331719   1.637   2.123   5.577 -0.8016 -0.3842  0.5755
   84MOL    H1431720   1.646   2.276   5.523 -1.0772  0.9567 -0.0974
   84MOL    H1531721   1.388   2.280   5.537 -1.8502 -0.7171  0.7404
   84MOL    H1631722   1.386   2.114   5.581 -1.7559  1.3860  0.3178
   84MOL    H1731723   1.496   2.353   5.740 -0.6531 -0.0261  1.6725
   84MOL    H1831724   1.373   2.224   5.800 -0.0405 -0.8928 -0.8000
   84MOL    H1931725   1.539   2.196   5.793 -0.8100  0.2470  0.8982
   84MOL    H2031726   1.636   2.037   5.130 -3.0901  1.4551 -0.8142
   84MOL    C2131727   1.922   2.096   5.307  0.4212 -1.1217  0.2859
   84MOL    C2231728   2.025   2.019   5.394 -0.6034 -0.2016  0.2594
   84MOL    C2331729   2.168   2.016   5.333 -0.4402  0.2713 -1.2628
   84MOL    C2431730   2.260   1.908   5.407 -0.2957 -0.3186 -0.6262
   84MOL    C2531731   2.409   1.899   5.357  0.2883  0.0912  0.0589
   84MOL    C2631732   2.488   1.783   5.424  0.6942 -0.1473 -0.3707
   84MOL    O2731733   2.046   2.066   5.520 -0.1145 -0.7618  0.0215
   84MOL    H2831734   1.931   2.068   5.202  0.6488  3.0924 -0.8856
   84MOL    H2931735   1.940   2.203   5.310 -0.5554 -0.9085 -0.9781
   84MOL    H3031736   1.998   1.913   5.392  0.0874 -0.3870  0.5914
   84MOL    H3131737   2.216   2.113   5.348 -2.2828  1.3565 -2.2240
   84MOL    H3231738   2.160   1.988   5.228 -1.9322  0.4375 -1.2128
   84MOL    H3331739   2.226   1.805   5.398  1.3998 -1.0768  1.3390
   84MOL    H3431740   2.273   1.932   5.513  2.5001 -1.8516 -0.5718
   84MOL    H3531741   2.417   1.881   5.250  2.0909  0.1561  0.1778
   84MOL    H3631742   2.450   1.995   5.387  0.5735 -0.0180  0.0213
   84MOL    H3731743   2.436   1.687   5.424 -1.3276  0.9270  1.0205
   84MOL    H3831744   2.507   1.810   5.528 -0.2854  0.0210 -0.2281
   84MOL    H3931745   2.582   1.763   5.372  2.2373 -0.0545  2.2945
   84MOL    C4031746   1.963   2.007   5.624  0.4777 -0.7588 -0.1498
   84MOL    C4131747   1.954   2.083   5.758 -0.5204 -0.1684 -0.3771
   84MOL    C4231748   1.920   2.233   5.743  0.4864 -0.3916  0.3217
   84MOL    C4331749   1.881   2.292   5.878 -0.4925 -0.2860 -0.2164
   84MOL    C4431750   1.872   2.452   5.875 -0.2184  0.3781  0.1552
   84MOL    C4531751   1.830   2.509   6.010  0.4454 -0.0429  0.2919
   84MOL    O4631752   2.072   2.072   5.844  0.2620  0.4191 -0.2700
   84MOL    H4731753   1.983   1.902   5.646 -0.0387 -0.5696  1.2938
   84MOL    H4831754   1.863   2.002   5.583  0.4294  0.6155 -0.2216
   84MOL    H4931755   1.873   2.036   5.814 -2.9008  2.1979 -1.7267
   84MOL    H5031756   2.016   2.272   5.708  0.4117 -0.5198 -0.0327
   84MOL    H5131757   1.849   2.254   5.663  0.4560 -3.4637 -0.5516
   84MOL    H5231758   1.960   2.252   5.941  1.0278 -1.7263 -2.9131
   84MOL    H5331759   1.784   2.265   5.919 -1.2758 -0.7982 -2.3411
   84MOL    H5431760   1.967   2.490   5.838 -0.2166  1.4479  1.2193
   84MOL    H5531761   1.808   2.491   5.796 -1.2172 -1.5929 -0.0205
   84MOL    H5631762   1.837   2.618   6.015  1.2445 -0.0470 -0.5623
   84MOL    H5731763   1.723   2.506   6.030  0.2936 -0.2473 -0.5130
   84MOL    H5831764   1.897   2.464   6.082  1.2809  0.3850 -0.2106
   84MOL    C5931765   2.070   1.948   5.917  0.0501 -0.3956 -0.5384
   84MOL    C6031766   2.206   1.932   5.997  0.0261 -0.0153  1.4394
   84MOL    C6131767   2.333   1.934   5.915  0.8872 -0.5568 -0.2746
   84MOL    C6231768   2.452   1.865   5.985 -0.3427  0.3978 -0.0283
   84MOL    C6331769   2.586   1.896   5.912 -0.2217 -0.7313  0.1063
   84MOL    C6431770   2.610   2.048   5.860  0.1811  0.0254  0.0568
   84MOL    O6531771   2.212   2.006   6.125  0.0345  0.4382  0.0525
   84MOL    H6631772   2.057   1.863   5.850  0.1577 -0.9443  0.1373
   84MOL    H6731773   1.999   1.931   5.998  0.1882 -2.1424 -0.7702
   84MOL    H6831774   2.201   1.830   6.037 -0.1738 -0.3329  0.6061
   84MOL    H6931775   2.354   2.038   5.890 -1.8307  0.1507  0.2223
   84MOL    H7031776   2.316   1.882   5.821 -1.1532  1.5460 -1.1082
   84MOL    H7131777   2.426   1.761   5.999 -1.7916  0.7951  0.2932
   84MOL    H7231778   2.461   1.904   6.087  1.0761 -0.6641  0.2632
   84MOL    H7331779   2.586   1.832   5.825  0.6027  0.7384 -1.0038
   84MOL    H7431780   2.665   1.868   5.981 -0.3163 -0.9818  0.1126
   84MOL    H7531781   2.559   2.077   5.768  0.7637 -0.7301 -0.5155
   84MOL    H7631782   2.589   2.117   5.942  2.0254  0.7091 -0.0325
   84MOL    H7731783   2.717   2.054   5.840  0.3249 -1.1034  0.4405
   84MOL    C7831784   2.213   2.145   6.113 -0.0974  0.0956  0.8342
   84MOL    C7931785   2.268   2.199   6.242 -0.1923 -0.5705 -0.2757
   84MOL    C8031786   2.156   2.227   6.339 -0.2957  0.1301 -0.6961
   84MOL    C8131787   2.056   2.339   6.304 -0.3211 -0.5140 -0.0383
   84MOL    C8231788   1.941   2.363   6.409  0.3486  0.0219 -0.0098
   84MOL    C8331789   1.818   2.276   6.369  0.0127  0.2305  0.0980
   84MOL    O8431790   2.352   2.319   6.235  0.2477 -0.5636  0.9874
   84MOL    H8531791   2.111   2.172   6.087 -0.2904 -1.4591 -0.0262
   84MOL    H8631792   2.271   2.189   6.032 -0.9625 -2.8726 -1.4495
   84MOL    H8731793   2.333   2.124   6.286 -2.2026 -2.7582 -0.9688
   84MOL    H8831794   2.097   2.138   6.358  0.5206 -0.0020  1.3327
   84MOL    H8931795   2.198   2.239   6.439  1.9725  0.5471 -1.6503
   84MOL    H9031796   2.024   2.324   6.200  0.5406  0.4076 -0.4475
   84MOL    H9131797   2.126   2.422   6.304  0.1080 -0.8738 -0.3396
   84MOL    H9231798   1.965   2.329   6.510  1.9714  0.8571 -0.1040
   84MOL    H9331799   1.906   2.466   6.416  0.3217  0.1277 -1.4768
   84MOL    H9431800   1.762   2.317   6.284 -1.9105 -1.1431  0.6902
   84MOL    H9531801   1.735   2.285   6.439 -0.7545  0.6369 -0.8400
   84MOL    H9631802   1.838   2.175   6.334  1.6471  0.2308  1.0105
   84MOL    C9731803   2.486   2.294   6.211 -0.2290  0.5528 -0.5697
   84MOL    C9831804   2.574   2.281   6.341  0.9733  0.6730 -0.0023
   84MOL    C9931805   2.551   2.396   6.441 -0.5941 -0.2491 -0.1542
   84MOL   C10031806   2.657   2.401   6.561 -0.2772 -0.1547 -0.2941
   84MOL   C10131807   2.804   2.398   6.519 -0.3005 -0.3364  0.1798
   84MOL   C10231808   2.850   2.519   6.440  0.2141  0.2080 -0.2135
   84MOL   O10331809   2.567   2.163   6.420  0.1464  0.3349 -0.8191
   84MOL   H10431810   2.523   2.378   6.152 -1.8083  2.9813  1.7572
   84MOL   H10531811   2.484   2.204   6.149 -2.2150  1.4559 -1.8873
   84MOL   H10631812   2.679   2.290   6.313  1.5474  1.4626  2.2338
   84MOL   H10731813   2.452   2.388   6.487 -0.5123  1.1955  0.2975
   84MOL   H10831814   2.576   2.485   6.384  0.0129 -1.1296 -1.2901
   84MOL   H10931815   2.643   2.311   6.621  2.3816 -1.6458 -1.7790
   84MOL   H11031816   2.637   2.486   6.626  1.5602  0.7980 -0.9662
   84MOL   H11131817   2.837   2.306   6.470 -0.6340  0.0546 -0.7962
   84MOL   H11231818   2.866   2.389   6.608 -2.9451 -0.6058  2.0243
   84MOL   H11331819   2.828   2.607   6.501 -0.8247  0.2638 -0.6637
   84MOL   H11431820   2.956   2.524   6.416  0.5042 -1.3716  0.7059
   84MOL   H11531821   2.793   2.533   6.348 -0.7461 -2.6489 -0.0984
   84MOL   C11631822   2.630   2.057   6.351 -0.6966 -0.2784 -0.2754
   84MOL   C11731823   2.642   1.939   6.450 -0.1733 -0.4373  0.3006
   84MOL   C11831824   2.758   1.842   6.402  0.2770  1.0877 -0.1311
   84MOL   C11931825   2.790   1.725   6.498 -0.2991 -0.6359  0.1709
   84MOL   C12031826   2.901   1.637   6.450 -0.0482 -0.2603 -0.2509
   84MOL   C12131827   2.909   1.498   6.516  0.4102  0.3280  0.3040
   84MOL   O12231828   2.521   1.855   6.466  0.1617 -0.1589  0.5094
   84MOL   H12331829   2.584   2.017   6.260 -0.1318 -0.5074 -0.4632
   84MOL   H12431830   2.727   2.091   6.315 -0.2645 -0.8378  0.3519
   84MOL   H12531831   2.678   1.982   6.544  2.4577  0.7226 -1.1951
   84MOL   H12631832   2.735   1.792   6.308 -0.6028 -0.8219  1.0662
   84MOL   H12731833   2.849   1.896   6.376  1.2074 -1.2659 -1.9598
   84MOL   H12831834   2.700   1.665   6.510  0.0323 -0.7926  2.0322
   84MOL   H12931835   2.808   1.757   6.601  1.2848 -0.9610 -0.0010
   84MOL   H13031836   2.900   1.628   6.341  1.1065  0.8316 -0.3627
   84MOL   H13131837   2.994   1.687   6.478  0.7817 -2.8315  1.7217
   84MOL   H13231838   2.946   1.514   6.617  0.6780  0.2548  0.2157
   84MOL   H13331839   2.812   1.448   6.523 -0.1167  1.1783 -0.8924
   84MOL   H13431840   2.979   1.436   6.460 -0.3271  1.0792 -1.4637
   84MOL   C13531841   2.404   1.914   6.520  0.6789  0.7011 -0.4387
   84MOL   C13631842   2.293   1.811   6.527  0.1059  0.1004 -0.0818
   84MOL   C13731843   2.156   1.882   6.502  0.0793  0.1798 -0.7342
   84MOL   C13831844   2.026   1.802   6.530 -0.2247 -0.2535  0.5809
   84MOL   C13931845   1.896   1.862   6.469 -0.1546  0.5851  0.3750
   84MOL   C14031846   1.782   1.767   6.474 -0.0581  0.2509 -0.3655
   84MOL   O14131847   2.279   1.749   6.657  0.3256  0.3772  0.4193
   84MOL   H14231848   2.424   1.962   6.616  0.9293  4.0197 -2.0438
   84MOL   H14331849   2.360   1.988   6.452 -1.1549 -0.4827 -0.5693
   84MOL   H14431850   2.305   1.736   6.450  0.9970  0.4052 -0.2379
   84MOL   H14531851   2.154   1.966   6.573 -2.8537 -0.0973 -0.4535
   84MOL   H14631852   2.150   1.934   6.407  0.3994  1.5485 -0.0235
   84MOL   H14731853   2.019   1.792   6.638  1.5811 -0.7645  0.6660
   84MOL   H14831854   2.047   1.703   6.490 -1.2828 -0.6604  1.0387
   84MOL   H14931855   1.913   1.880   6.363  0.8759  1.1791  0.6388
   84MOL   H15031856   1.870   1.956   6.517 -0.2725  0.4975  0.4843
   84MOL   H15131857   1.698   1.802   6.414 -1.8486 -2.1995  0.6265
   84MOL   H15231858   1.817   1.671   6.438  2.8565  0.4781  1.6439
   84MOL   H15331859   1.742   1.747   6.574  0.7769  0.6356  0.0518
   84MOL   C15431860   2.394   1.683   6.710 -0.1201 -0.3485  0.0640
   84MOL   C15531861   2.391   1.668   6.858 -0.8085 -0.1126 -0.2579
   84MOL   C15631862   2.496   1.556   6.906  0.3248 -0.8092 -0.2430
   84MOL   C15731863   2.473   1.525   7.051 -0.1687  0.1988 -0.0377
   84MOL   C15831864   2.594   1.449   7.103 -0.3388  1.3034 -0.1395
   84MOL   C15931865   2.585   1.395   7.249  0.8110  0.0498  0.7138
   84MOL   O16031866   2.426   1.796   6.908 -0.0236  0.6025 -0.2558
   84MOL   H16131867   2.486   1.733   6.683 -0.6442  0.7575  0.2875
   84MOL   H16231868   2.406   1.583   6.667 -1.4453 -1.4656  2.1489
   84MOL   H16331869   2.289   1.644   6.886 -0.3882 -1.4313  0.1984
   84MOL   H16431870   2.594   1.592   6.877  0.8992 -2.4987 -0.4184
   84MOL   H16531871   2.487   1.472   6.838 -0.4921  0.0434 -1.2148
   84MOL   H16631872   2.389   1.459   7.073  1.0134 -1.1058  0.6748
   84MOL   H16731873   2.458   1.615   7.110 -0.3763  0.6470 -0.7740
   84MOL   H16831874   2.591   1.366   7.032 -1.0934  0.1197  1.2530
   84MOL   H16931875   2.691   1.497   7.088  0.8944 -0.9481  0.5581
   84MOL   H17031876   2.559   1.473   7.319 -2.1313 -0.8592  0.7161
   84MOL   H17131877   2.680   1.347   7.273 -0.1493 -2.9767 -1.2238
   84MOL   H17231878   2.511   1.317   7.270 -0.5198  0.8439 -0.9090
   84MOL   C17331879   2.313   1.880   6.940  0.0606  0.1111 -0.1746
   84MOL   C17431880   2.357   2.019   6.993  0.4466 -0.4619  0.5953
   84MOL   C17531881   2.462   2.005   7.110  0.0833  0.4065  0.0495
   84MOL   C17631882   2.503   2.143   7.175  0.1227  0.5146 -0.3020
   84MOL   C17731883   2.624   2.134   7.269 -0.4099  0.0391 -0.6978
   84MOL   C17831884   2.635   2.262   7.342  0.2545 -0.1071  0.3037
   84MOL   O17931885   2.414   2.100   6.884 -0.4844  0.2125 -0.7175
   84MOL   H18031886   2.255   1.837   7.021  0.2744  1.3327  0.6509
   84MOL   H18131887   2.236   1.886   6.863 -2.1121  0.0267  1.9144
   84MOL   H18231888   2.269   2.068   7.034  0.5450 -0.7837  1.2024
   84MOL   H18331889   2.416   1.944   7.186 -0.9618 -0.3615 -1.1860
   84MOL   H18431890   2.555   1.959   7.076 -0.3947 -1.8449  1.7399
   84MOL   H18531891   2.519   2.218   7.097 -0.6186  1.7121  0.6655
   84MOL   H18631892   2.412   2.164   7.232 -0.6099 -0.6116 -1.0690
   84MOL   H18731893   2.614   2.051   7.340  2.5593  1.1236  1.0760
   84MOL   H18831894   2.717   2.117   7.215 -0.0068  2.7574 -0.9148
   84MOL   H18931895   2.681   2.344   7.287 -1.1122  0.6726  0.2823
   84MOL   H19031896   2.702   2.260   7.428 -0.2402 -0.3712  0.6915
   84MOL   H19131897   2.538   2.291   7.383 -1.2662 -0.9826 -2.5321
   84MOL   C19231898   2.331   2.141   6.776 -0.8159  0.1595  0.4842
   84MOL   C19331899   2.257   2.271   6.798  0.2676 -0.0751  0.0035
   84MOL   C19431900   2.348   2.379   6.865 -0.1037  0.1784 -0.3882
   84MOL   C19531901   2.280   2.518   6.860 -0.6883  0.0287 -0.4261
   84MOL   C19631902   2.328   2.629   6.960 -0.3744  0.0191  0.3480
   84MOL   C19731903   2.220   2.741   6.979 -0.3654  0.5001  0.0709
   84MOL   O19831904   2.134   2.236   6.865 -0.3471 -0.2112  0.0644
   84MOL   H19931905   2.395   2.153   6.689 -3.2982 -1.6885 -1.7057
   84MOL   H20031906   2.263   2.059   6.748  1.9781 -2.5146  1.3084
   84MOL   H20131907   2.234   2.313   6.700 -1.2705 -0.0007  0.3867
   84MOL   H20231908   2.364   2.351   6.969  1.2042 -0.2345 -0.7015
   84MOL   H20331909   2.448   2.385   6.822  0.5937 -1.5011  0.9761
   84MOL   H20431910   2.175   2.497   6.881 -0.5227 -0.6647 -0.2900
   84MOL   H20531911   2.259   2.551   6.758 -0.2353 -0.2485 -0.6063
   84MOL   H20631912   2.354   2.591   7.058 -1.7488 -1.2916  0.2137
   84MOL   H20731913   2.421   2.679   6.931 -1.2794  0.7180 -1.4092
   84MOL   H20831914   2.240   2.810   7.061 -1.6412 -0.5185  1.2705
   84MOL   H20931915   2.206   2.817   6.902 -1.5413 -2.0216 -2.2850
   84MOL   H21031916   2.125   2.689   6.985  0.7396 -1.3885  1.6776
   84MOL   C21131917   2.031   2.237   6.776  0.2565 -0.5098  0.2009
   84MOL   C21231918   1.913   2.166   6.845 -0.6608 -0.1916  0.0630
   84MOL   C21331919   1.807   2.097   6.754 -0.4786 -0.5687 -0.2727
   84MOL   C21431920   1.685   2.038   6.829  0.4925 -0.2616  0.1550
   84MOL   C21531921   1.577   1.986   6.741  0.2847 -0.2906  0.6943
   84MOL   C21631922   1.467   1.910   6.811  0.7810 -0.0233 -0.7504
   84MOL   O21731923   1.850   2.262   6.932 -0.0088  0.2283  0.1663
   84MOL   H21831924   2.051   2.178   6.687  0.6221  0.8535 -0.6506
   84MOL   H21931925   2.006   2.341   6.755  0.0435 -0.3524  1.2102
   84MOL   H22031926   1.955   2.081   6.899  1.0410  0.6641  0.0961
   84MOL   H22131927   1.779   2.168   6.676 -0.5790  2.1396  2.1253
   84MOL   H22231928   1.860   2.011   6.712  1.4486  0.8739 -0.8809
   84MOL   H22331929   1.725   1.960   6.894 -0.7646 -1.0641 -0.0172
   84MOL   H22431930   1.637   2.117   6.886 -0.0566 -0.3987 -0.1107
   84MOL   H22531931   1.536   2.068   6.682 -0.8087 -1.4232 -0.1504
   84MOL   H22631932   1.624   1.907   6.681  1.9665 -0.1211  1.7597
   84MOL   H22731933   1.508   1.826   6.866 -0.8166  0.8230  1.8086
   84MOL   H22831934   1.398   1.883   6.731  1.5719 -2.0360 -0.7775
   84MOL   H22931935   1.417   1.973   6.885  0.9387 -0.1403 -0.5472
   84MOL   C23031936   1.905   2.260   7.067  0.3251  0.1287 -0.7626
   84MOL   C23131937   1.989   2.384   7.112  0.3461  0.3208  0.6069
   84MOL   C23231938   2.085   2.339   7.229  0.8169 -0.8400  0.4889
   84MOL   C23331939   2.161   2.454   7.302  1.0573 -0.2371 -0.3433
   84MOL   C23431940   2.239   2.406   7.431 -1.1129 -0.4902 -0.6619
   84MOL   C23531941   2.353   2.501   7.472 -0.2232 -0.1560 -0.2391
   84MOL   O23631942   1.910   2.495   7.161  0.0085  0.5258  0.1831
   84MOL   H23731943   1.816   2.239   7.126  1.0358 -1.9296 -0.3885
   84MOL   H23831944   1.961   2.170   7.090 -1.5672 -0.4956  1.5672
   84MOL   H23931945   2.047   2.427   7.030  1.9796  0.1081  1.6333
   84MOL   H24031946   2.147   2.256   7.194  1.0157 -0.5183  0.0830
   84MOL   H24131947   2.019   2.306   7.310  0.1122  1.3847  0.8480
   84MOL   H24231948   2.092   2.537   7.316 -0.0699 -1.4943  1.9268
   84MOL   H24331949   2.227   2.494   7.226  2.3091  1.7391  1.7250
   84MOL   H24431950   2.175   2.396   7.519 -0.7128  0.7556 -0.2128
   84MOL   H24531951   2.281   2.306   7.420  0.6329  0.0837  0.5543
   84MOL   H24631952   2.402   2.540   7.382  2.6274 -1.7505  0.5393
   84MOL   H24731953   2.430   2.444   7.524  0.5714 -0.4991 -1.7681
   84MOL   H24831954   2.312   2.592   7.516  1.0699 -0.0006  0.6933
   84MOL   C24931955   1.845   2.558   7.054  0.0205 -0.6030 -0.9255
   84MOL   C25031956   1.762   2.680   7.112  0.5997 -0.2470  0.7807
   84MOL   C25131957   1.638   2.721   7.037  0.2118 -0.2322 -0.1256
   84MOL   C25231958   1.556   2.844   7.084  0.4425  0.3688  0.5155
   84MOL   C25331959   1.431   2.874   6.996  0.1049 -0.1531  0.2357
   84MOL   C25431960   1.306   2.784   7.007  0.0054  0.0531  0.2802
   84MOL   O25531961   1.843   2.796   7.119 -0.4034 -0.1953  0.1850
   84MOL   H25631962   1.927   2.594   6.991  0.0917 -0.2141 -0.6130
   84MOL   H25731963   1.787   2.483   7.001 -1.3269 -0.3583  0.1903
   84MOL   H25831964   1.722   2.634   7.202  2.5206 -0.3039  1.6357
   84MOL   H25931965   1.668   2.752   6.937  1.1061  0.0659  0.2307
   84MOL   H26031966   1.564   2.645   7.010 -1.3226  0.1939  2.6918
   84MOL   H26131967   1.519   2.827   7.185 -0.6209  0.0238  0.0699
   84MOL   H26231968   1.622   2.931   7.094  0.3158  0.2802  2.2468
   84MOL   H26331969   1.413   2.975   7.032  2.1968  0.0085  0.9019
   84MOL   H26431970   1.469   2.895   6.896  2.7831  0.1845  1.2728
   84MOL   H26531971   1.216   2.844   6.991  2.3490  3.2918 -1.5218
   84MOL   H26631972   1.287   2.750   7.108  1.2178 -0.0848  0.4684
   84MOL   H26731973   1.315   2.698   6.941 -0.2432  0.0453  0.2541
   84MOL   C26831974   1.921   2.807   7.244 -0.6663  0.6916 -0.0979
   84MOL   C26931975   2.030   2.916   7.232 -0.3088  0.2050 -0.6049
   84MOL   C27031976   2.133   2.906   7.343 -0.0745 -0.0230  0.4373
   84MOL   C27131977   2.255   2.990   7.315 -0.0700 -0.3529  1.1746
   84MOL   C27231978   2.360   2.979   7.428  0.0931  0.2275 -0.1257
   84MOL   C27331979   2.482   3.065   7.394 -0.1477  0.0695  0.2080
   84MOL   O27431980   1.966   3.039   7.259  0.7609 -0.1950 -0.4487
   84MOL   H27531981   1.979   2.715   7.254  0.4548  1.5903  1.7533
   84MOL   H27631982   1.866   2.836   7.333 -1.1782 -1.2071  0.2348
   84MOL   H27731983   2.078   2.913   7.135 -1.3056  0.0047 -1.1035
   84MOL   H27831984   2.082   2.944   7.432  1.2066 -1.2495  1.7026
   84MOL   H27931985   2.164   2.802   7.354 -0.6611 -0.6867 -3.4715
   84MOL   H28031986   2.301   2.950   7.225 -0.8844 -0.7836  0.9514
   84MOL   H28131987   2.223   3.092   7.292  1.6359  0.0725  0.5798
   84MOL   H28231988   2.327   3.004   7.529 -0.5835 -0.8632 -0.0583
   84MOL   H28331989   2.389   2.873   7.424 -2.7440 -0.5141 -2.5182
   84MOL   H28431990   2.458   3.172   7.401  0.4680  0.1887  0.5708
   84MOL   H28531991   2.553   3.046   7.475  0.2960  0.5296 -0.0670
   84MOL   H28631992   2.524   3.044   7.296 -1.2768 -0.1242 -0.2361
   84MOL   C28731993   1.945   3.116   7.137  0.5710  0.5416 -0.2530
   84MOL   C28831994   1.854   3.234   7.177 -0.0733  0.5192  0.2253
   84MOL   C28931995   1.804   3.312   7.045  0.1742  0.5532 -0.0373
   84MOL   C29031996   1.691   3.237   6.969  0.4530 -0.3313 -0.4459
   84MOL   C29131997   1.644   3.294   6.834 -0.4933 -0.2900 -0.1752
   84MOL   C29231998   1.547   3.199   6.765 -0.6451  0.4651  0.5975
   84MOL   O29331999   1.943   3.336   7.226 -0.2083 -0.0440 -0.0579
   84MOL   H29432000   1.889   3.046   7.074 -1.5733  1.6525  0.3828
   84MOL   H29532001   2.038   3.153   7.093  1.6828  0.1915  1.7347
   84MOL   H29632002   1.777   3.207   7.249 -2.0944  3.0030 -0.9210
   84MOL   H29732003   1.761   3.408   7.073  0.2756  0.2904  1.0429
   84MOL   H29832004   1.889   3.331   6.979  3.2600 -2.0206  3.0356
   84MOL   H29932005   1.727   3.134   6.962  0.0547 -0.6024  1.1077
   84MOL   H30032006   1.601   3.228   7.031 -0.7343  0.7206 -1.9925
   84MOL   H30132007   1.730   3.329   6.776  0.9238 -0.7200  1.5852
   84MOL   H30232008   1.589   3.385   6.853  0.2470  0.3410 -1.0244
   84MOL   H30332009   1.465   3.162   6.827 -0.1235 -1.1111  0.3712
   84MOL   H30432010   1.504   3.258   6.684  2.8200  2.3965  0.0888
   84MOL   H30532011   1.604   3.113   6.730  1.3561  1.1941  1.9872
   84MOL   C30632012   1.974   3.338   7.360 -1.0955  0.1425  0.0565
   84MOL   C30732013   2.070   3.467   7.391 -0.6102 -0.2666  0.0578
   84MOL   C30832014   2.189   3.465   7.306 -0.5067  0.2219  0.3996
   84MOL   C30932015   2.274   3.594   7.332 -0.4527 -0.2002  0.0053
   84MOL   C31032016   2.390   3.614   7.231 -0.6780  0.1896 -0.1016
   84MOL   C31132017   2.506   3.512   7.259 -0.2805  0.1175 -0.8189
   84MOL   O31232018   2.108   3.482   7.529  0.0076 -0.1127  0.1414
   84MOL   H31332019   1.882   3.326   7.418 -0.4413 -0.8729  0.8943
   84MOL   H31432020   2.024   3.243   7.376 -0.5531 -0.1529 -3.0809
   84MOL   H31532021   2.016   3.558   7.366  1.0676  0.9078  0.6185
   84MOL   H31632022   2.159   3.466   7.201  0.1291 -0.3709  0.2108
   84MOL   H31732023   2.253   3.377   7.314 -0.2729  0.0781 -2.5504
   84MOL   H31832024   2.210   3.681   7.319  0.1649  0.6933  2.7131
   84MOL   H31932025   2.305   3.597   7.436 -2.0223  0.1643  0.4762
   84MOL   H32032026   2.432   3.714   7.239 -1.6068  0.5868 -0.1851
   84MOL   H32132027   2.369   3.609   7.124  1.2595  3.7710 -0.7522
   84MOL   H32232028   2.553   3.527   7.356 -2.7823  0.2145  0.4050
   84MOL   H32332029   2.475   3.408   7.248  0.9075 -0.3470  0.0927
   84MOL   H32432030   2.583   3.520   7.181  2.0546 -1.4252  1.2482
   84MOL   C32532031   1.998   3.533   7.612 -0.5383  0.1059  0.3060
   84MOL   C32632032   2.033   3.522   7.759 -0.2200 -0.0843 -0.0932
   84MOL   C32732033   1.914   3.491   0.063  0.6343  0.8286  0.1901
   84MOL   C32832034   1.974   3.478   0.208  0.5578  0.3596  0.5537
   84MOL   C32932035   1.863   3.421   0.307 -0.2577  0.0827 -0.1827
   84MOL   C33032036   1.924   3.359   0.434  0.6461 -0.0706 -0.4208
   84MOL   O33132037   2.081   3.655   0.006  0.3444  0.3781 -0.6402
   84MOL   H33232038   1.911   3.474   7.583 -0.2948  1.0160 -2.3751
   84MOL   H33332039   1.968   3.635   7.587 -0.9248  0.0034  0.3454
   84MOL   H33432040   2.117   3.454   7.769 -0.1945  0.1665  1.6065
   84MOL   H33532041   1.841   3.571   0.053  1.0406  1.1678 -0.1171
   84MOL   H33632042   1.880   3.389   0.046  2.1761 -0.0002  1.8887
   84MOL   H33732043   2.047   3.398   0.194  0.5468  0.3175  0.7317
   84MOL   H33832044   2.027   3.567   0.243  1.1630 -0.1259  0.8849
   84MOL   H33932045   1.780   3.490   0.325 -0.8197 -0.5739 -0.2402
   84MOL   H34032046   1.814   3.334   0.263 -2.7477  1.9028 -1.1452
   84MOL   H34132047   1.987   3.272   0.413 -1.4555 -1.9130  0.8182
   84MOL   H34232048   1.970   3.432   0.501 -1.2448 -0.0072  0.8386
   84MOL   H34332049   1.841   3.309   0.483 -0.8823 -0.0245 -2.8798
   84MOL   C34432050   2.223   3.675   7.776  0.0610  0.1148 -0.1699
   84MOL   C34532051   2.281   3.802   0.065  0.3401 -0.0333 -0.1102
   84MOL   C34632052   2.193   3.825   0.190 -0.4451  0.7295  0.4750
   84MOL   C34732053   2.217   3.958   0.269  0.1214  0.5849  0.3286
   84MOL   C34832054   2.125   3.975   0.390 -0.1899  0.5255  0.2221
   84MOL   C34932055   2.171   4.085   0.484 -0.3399 -0.6710  0.0296
   84MOL   O35032056   2.416   3.768   0.091 -0.0353  0.1174 -0.0899
   84MOL   H35132057   2.258   3.672   7.672 -0.7313 -0.6783 -0.4186
   84MOL   H35232058   2.270   3.584   0.028  1.8774  0.3215 -1.8533
   84MOL   H35332059   2.270   3.898   0.014 -0.0714  0.8625  1.5954
   84MOL   H35432060   2.206   3.741   0.259 -0.9198 -1.4076 -1.9836
   84MOL   H35532061   2.086   3.816   0.173 -0.3073  0.5548 -0.2928
   84MOL   H35632062   2.202   4.046   0.206  2.3661  0.8483  0.1494
   84MOL   H35732063   2.316   3.951   0.313 -0.3836 -0.2705  1.3264
   84MOL   H35832064   2.122   3.883   0.450 -0.8338  0.8965  0.7746
   84MOL   H35932065   2.024   3.974   0.350 -0.0043 -0.6700 -0.2309
   84MOL   H36032066   2.279   4.086   0.499 -0.6549 -1.1917  2.6405
   84MOL   H36132067   2.119   4.082   0.580  0.0965 -0.8687  0.2644
   84MOL   H36232068   2.156   4.184   0.441 -1.0596 -3.0060 -5.4715
   84MOL   C36332069   2.514   3.791   7.778  0.2605 -0.7624 -0.1508
   84MOL   C36432070   2.639   3.715   0.041 -0.4438  0.7249 -0.1818
   84MOL   C36532071   2.634   3.562   0.047 -0.5547 -0.4278  0.3373
   84MOL   C36632072   2.607   3.500   7.695  0.2587  0.7434  0.3385
   84MOL   C36732073   2.573   3.349   7.711 -0.7950  0.7208 -0.7522
   84MOL   C36832074   2.434   3.314   7.767  0.4287 -0.1014  0.4824
   84MOL   O36932075   2.753   3.759   7.750  0.5869 -0.6710 -0.4919
   84MOL   H37032076   2.528   3.899   7.778  0.1071 -0.7414 -0.0262
   84MOL   H37132077   2.495   3.762   7.675 -0.5524  1.0616 -0.5413
   84MOL   H37232078   2.662   3.756   0.140  1.4577  0.3604 -0.4607
   84MOL   H37332079   2.725   3.524   0.093 -0.4665  1.1165  1.4616
   84MOL   H37432080   2.559   3.538   0.123  1.4321 -2.3027  1.7797
   84MOL   H37532081   2.532   3.547   7.631 -0.1922 -0.9046 -0.3730
   84MOL   H37632082   2.698   3.503   7.634 -0.6700 -0.5197 -1.1506
   84MOL   H37732083   2.591   3.305   7.613 -1.1495  0.4232 -0.6850
   84MOL   H37832084   2.647   3.309   7.781 -0.2161  1.3601 -0.9962
   84MOL   H37932085   2.415   3.207   7.776 -0.2623  0.0220  0.4737
   84MOL   H38032086   2.424   3.358   0.080  1.3851 -1.0911  1.0363
   84MOL   H38132087   2.345   3.344   7.712 -0.3805 -0.8118  1.4093
   84MOL   H38232088   2.746   3.852   7.759 -0.8340 -0.8179 -0.0822
   85MOL     C132089   6.676   5.365   0.133  0.7616  0.2950  0.4595
   85MOL     C232090   6.650   5.512   0.107  0.3508 -0.0037  0.1100
   85MOL     C332091   6.502   5.532   0.128 -0.3589 -0.3363 -0.8946
   85MOL     C432092   6.433   5.478   0.255  0.4872  0.9955 -0.6409
   85MOL     C532093   6.276   5.507   0.274 -0.9569  0.1683  0.3015
   85MOL     C632094   6.196   5.449   0.163 -0.1190  0.1720 -0.2010
   85MOL     O732095   6.725   5.579   0.203 -0.2410  0.1045 -0.2246
   85MOL     H832096   6.615   5.295   0.075  2.3932 -0.2306 -0.6654
   85MOL     H932097   6.657   5.351   0.239 -0.2353 -3.3451 -0.1055
   85MOL    H1032098   6.678   5.538   0.005  0.9550  1.4168  0.6285
   85MOL    H1132099   6.477   5.637   0.113  0.1076  0.2763  2.2026
   85MOL    H1232100   6.444   5.482   0.050  4.0447 -2.8065 -2.7522
   85MOL    H1332101   6.439   5.370   0.261 -0.5559  0.8254 -2.2020
   85MOL    H1432102   6.480   5.530   0.339  0.4961  1.6564 -1.0460
   85MOL    H1532103   6.236   5.473   0.369 -0.3503 -1.8143 -0.1403
   85MOL    H1632104   6.249   5.612   0.262 -1.2558  0.0436 -0.1532
   85MOL    H1732105   6.224   5.487   0.065 -0.9703  0.9948 -0.1382
   85MOL    H1832106   6.212   5.341   0.162 -1.3537 -0.0277 -0.3701
   85MOL    H1932107   6.090   5.472   0.173 -0.3714 -1.4428  1.1297
   85MOL    H2032108   6.779   5.331   0.122  2.2340  4.9628 -1.2107
   85MOL    C2132109   6.729   5.719   0.204  1.0663 -0.4077  0.5297
   85MOL    C2232110   6.853   5.764   0.290  0.4644 -0.0385 -0.2411
   85MOL    C2332111   6.887   5.910   0.263 -0.2360  1.2153  0.5420
   85MOL    C2432112   7.022   5.948   0.337 -0.2952 -0.6414  0.8156
   85MOL    C2532113   7.072   6.098   0.320 -0.1774 -0.0863  0.0362
   85MOL    C2632114   6.993   6.191   0.410 -0.1547  0.2512  1.1344
   85MOL    O2732115   6.822   5.778   0.432  0.8122 -0.2112  0.4150
   85MOL    H2832116   6.732   5.752   0.101  1.4440 -0.6357  0.4661
   85MOL    H2932117   6.635   5.745   0.253  0.6988  0.9124 -0.8772
   85MOL    H3032118   6.940   5.700   0.272  0.3490 -0.4796  0.7406
   85MOL    H3132119   6.805   5.976   0.290 -0.1931  1.1525  0.8313
   85MOL    H3232120   6.908   5.925   0.157 -0.0440  2.5192  0.7513
   85MOL    H3332121   7.102   5.886   0.297 -1.9221 -1.8197 -0.7211
   85MOL    H3432122   7.012   5.923   0.443 -0.7296 -3.1460  0.2217
   85MOL    H3532123   7.176   6.106   0.350  0.3071  2.7811 -2.2275
   85MOL    H3632124   7.047   6.115   0.215  1.0049  2.1895  0.0970
   85MOL    H3732125   6.885   6.183   0.400 -0.2205 -0.3978  2.3695
   85MOL    H3832126   7.015   6.297   0.397 -2.7984  0.5584 -1.4544
   85MOL    H3932127   7.014   6.164   0.513  2.2539 -2.2787  0.0423
   85MOL    C4032128   6.774   5.650   0.481  0.1017 -0.3275  0.6704
   85MOL    C4132129   6.775   5.653   0.641 -0.2223 -0.0719 -0.4176
   85MOL    C4232130   6.754   5.510   0.695 -0.3111 -0.0412  0.4190
   85MOL    C4332131   6.750   5.503   0.852  0.5433 -0.0690 -0.1455
   85MOL    C4432132   6.740   5.362   0.913 -0.7237 -0.3879  0.0874
   85MOL    C4532133   6.872   5.279   0.902  0.2436  0.2922 -0.0208
   85MOL    O4632134   6.673   5.737   0.682  0.2756 -0.0454  0.0811
   85MOL    H4732135   6.830   5.561   0.454 -1.5807 -1.3793  0.5968
   85MOL    H4832136   6.669   5.653   0.450  0.5835  1.2072 -0.8435
   85MOL    H4932137   6.873   5.689   0.671  0.5151 -1.6664 -0.8268
   85MOL    H5032138   6.659   5.462   0.671 -0.8701  0.3425  1.8301
   85MOL    H5132139   6.816   5.434   0.647 -0.5764 -0.9649  1.5173
   85MOL    H5232140   6.669   5.561   0.897  0.7059  0.4874 -0.5677
   85MOL    H5332141   6.837   5.554   0.894 -0.0441  0.3634  0.5648
   85MOL    H5432142   6.738   5.391   1.018 -0.1359  4.4888 -1.1079
   85MOL    H5532143   6.648   5.315   0.880 -1.4529  1.0835 -0.0120
   85MOL    H5632144   6.852   5.183   0.950  0.8692 -0.2509 -0.8263
   85MOL    H5732145   6.890   5.272   0.795 -1.4243  0.8300 -0.3509
   85MOL    H5832146   6.948   5.325   0.966 -0.6646 -1.1414  2.1450
   85MOL    C5932147   6.715   5.874   0.692 -0.0910  0.0158 -0.1365
   85MOL    C6032148   6.592   5.966   0.680  0.0532 -0.4053  0.3596
   85MOL    C6132149   6.620   6.109   0.739  0.2357  0.2552  0.5984
   85MOL    C6232150   6.702   6.200   0.650  0.0408  0.3200 -0.6681
   85MOL    C6332151   6.718   6.336   0.701  0.7216  0.3478 -0.2062
   85MOL    C6432152   6.790   6.435   0.602 -0.1412  0.2868 -0.8582
   85MOL    O6532153   6.549   5.983   0.545  0.9933 -0.0457  0.1042
   85MOL    H6632154   6.798   5.902   0.628  0.3197  0.4538  0.5874
   85MOL    H6732155   6.760   5.893   0.790 -0.3752  2.4924 -0.4573
   85MOL    H6832156   6.520   5.921   0.749  1.2615  0.7183  2.4076
   85MOL    H6932157   6.675   6.099   0.832 -1.5812  2.9256  2.0453
   85MOL    H7032158   6.520   6.148   0.758  0.5289  1.1973  0.2333
   85MOL    H7132159   6.650   6.208   0.555 -0.6061 -0.3878 -0.3832
   85MOL    H7232160   6.800   6.154   0.646 -0.8316 -1.6202 -0.2671
   85MOL    H7332161   6.774   6.339   0.793  1.1492  0.4671 -0.4713
   85MOL    H7432162   6.617   6.369   0.726  1.2414 -0.4359  3.0803
   85MOL    H7532163   6.894   6.401   0.602 -1.0244 -2.6544  1.6348
   85MOL    H7632164   6.758   6.426   0.498 -1.7869 -1.7812 -0.2225
   85MOL    H7732165   6.783   6.539   0.633 -0.4502 -0.0746  0.3091
   85MOL    C7832166   6.455   5.880   0.503  0.1597 -0.4974  0.1432
   85MOL    C7932167   6.307   5.931   0.513 -0.5292  0.4528 -0.2820
   85MOL    C8032168   6.240   5.893   0.640 -0.3212  0.5384 -0.0811
   85MOL    C8132169   6.203   5.750   0.661 -0.3946 -0.6950 -0.3891
   85MOL    C8232170   6.269   5.688   0.781  0.5467  0.1185  0.0806
   85MOL    C8332171   6.259   5.531   0.786 -0.6851 -0.2611 -0.1254
   85MOL    O8432172   6.228   5.882   0.408  0.0264  0.0174 -0.2965
   85MOL    H8532173   6.469   5.780   0.546  0.8160  1.2311  4.1231
   85MOL    H8632174   6.482   5.850   0.401  2.0665  1.2752  0.0901
   85MOL    H8732175   6.308   6.040   0.513 -1.4429  0.4746  1.1820
   85MOL    H8832176   6.300   5.929   0.724 -1.1956  0.3058  0.6557
   85MOL    H8932177   6.144   5.943   0.654 -0.4393 -0.1001  1.5495
   85MOL    H9032178   6.224   5.695   0.569  0.4852 -2.4566  0.8217
   85MOL    H9132179   6.096   5.734   0.678 -1.3357  2.2196 -3.1263
   85MOL    H9232180   6.371   5.725   0.782 -0.0785  1.9344 -1.0400
   85MOL    H9332181   6.210   5.743   0.855  0.3853  2.8653 -2.0274
   85MOL    H9432182   6.325   5.494   0.864 -0.2222  0.9544  0.0657
   85MOL    H9532183   6.304   5.486   0.697 -2.4621  0.2236 -1.3073
   85MOL    H9632184   6.152   5.510   0.783 -1.2385  2.4770 -2.4764
   85MOL    C9732185   6.275   5.896   0.282  0.7893 -0.7486 -0.0635
   85MOL    C9832186   6.152   5.931   0.197  0.3746  0.3866 -0.4893
   85MOL    C9932187   6.111   6.077   0.214  0.1906 -0.2924 -0.1578
   85MOL   C10032188   5.982   6.119   0.139  0.1136  0.1022  0.3292
   85MOL   C10132189   5.858   6.057   0.210  0.0979  0.4737 -0.0825
   85MOL   C10232190   5.719   6.125   0.163 -0.5696  0.2738 -0.2368
   85MOL   O10332191   6.174   5.906   0.058  0.0642 -0.4451  0.1701
   85MOL   H10432192   6.320   5.805   0.244 -0.6597 -1.5003  0.0165
   85MOL   H10532193   6.359   5.964   0.268  0.7167 -0.4206  1.0081
   85MOL   H10632194   6.067   5.875   0.236  0.1780  3.5411  3.9641
   85MOL   H10732195   6.194   6.137   0.176 -1.2528  1.4498 -0.6147
   85MOL   H10832196   6.106   6.100   0.321 -1.4541  0.9783 -0.4961
   85MOL   H10932197   5.989   6.093   0.034 -0.2413 -0.7741  0.5224
   85MOL   H11032198   5.971   6.228   0.137 -2.8574 -0.1348  1.8407
   85MOL   H11132199   5.874   6.091   0.313  1.9613  0.3228 -0.3197
   85MOL   H11232200   5.852   5.950   0.193  0.7307  0.3037  0.7110
   85MOL   H11332201   5.634   6.070   0.204 -0.8804  0.7175 -0.2790
   85MOL   H11432202   5.704   6.227   0.198 -0.9984 -0.4533  1.7549
   85MOL   H11532203   5.718   6.095   0.058 -0.4710 -1.5505  0.2785
   85MOL   C11632204   6.177   5.775   0.006  0.7375 -0.2491  0.4117
   85MOL   C11732205   6.209   5.773   7.641 -0.3733  0.2758  0.6169
   85MOL   C11832206   6.202   5.628   7.571  0.1049 -0.5697 -0.4173
   85MOL   C11932207   6.228   5.626   7.422 -0.2332 -0.1063 -0.1304
   85MOL   C12032208   6.128   5.698   7.331  0.5389 -0.3999  0.3919
   85MOL   C12132209   6.161   5.715   7.185 -0.0845 -0.5677  0.5252
   85MOL   O12232210   6.345   5.815   7.635  0.3085  0.0223 -0.5831
   85MOL   H12332211   6.254   5.716   0.055  0.1978 -1.0613  0.2984
   85MOL   H12432212   6.084   5.718   0.017  0.3517  0.2048 -0.3878
   85MOL   H12532213   6.145   5.843   7.588 -1.2066 -2.2876 -1.9310
   85MOL   H12632214   6.276   5.567   7.624 -3.0828 -2.4767  2.0710
   85MOL   H12732215   6.103   5.583   7.580  0.5030 -1.5059 -0.6535
   85MOL   H12832216   6.231   5.524   7.384 -0.9699 -0.0827 -0.2674
   85MOL   H12932217   6.328   5.659   7.395 -1.3993  3.6883 -0.2008
   85MOL   H13032218   6.029   5.654   7.332  0.8807 -1.2012 -0.6135
   85MOL   H13132219   6.110   5.800   7.364 -1.8405 -1.3289  2.0765
   85MOL   H13232220   6.261   5.758   7.173 -0.2095 -0.0399  1.4011
   85MOL   H13332221   6.157   5.622   7.128  0.8273  0.0867 -0.6261
   85MOL   H13432222   6.098   5.791   7.138 -0.5598 -1.5692 -0.5000
   85MOL   C13532223   6.360   5.948   7.579 -0.4266 -0.0039 -0.2145
   85MOL   C13632224   6.496   6.008   7.608  0.8886 -0.3279 -0.5756
   85MOL   C13732225   6.529   6.026   7.753  0.3759 -0.1919  0.4144
   85MOL   C13832226   6.453   6.148   0.030  0.7231 -0.4251  0.4029
   85MOL   C13932227   6.500   6.196   0.169  0.0794  0.5401 -0.1190
   85MOL   C14032228   6.646   6.219   0.203  0.0330  0.4329 -0.3082
   85MOL   O14132229   6.517   6.132   7.541 -0.7014  0.0113  0.2009
   85MOL   H14232230   6.342   5.926   7.474  0.8096  0.4980 -0.5336
   85MOL   H14332231   6.294   6.024   7.622  0.4143  0.9828 -0.6513
   85MOL   H14432232   6.571   5.936   7.577  0.2508 -1.4130  0.3907
   85MOL   H14532233   6.503   5.939   0.029 -0.2521  0.2347  0.7588
   85MOL   H14632234   6.636   6.041   7.763  0.1563  0.8779  1.1255
   85MOL   H14732235   6.347   6.123   0.037 -0.4090  3.7858 -0.4695
   85MOL   H14832236   6.460   6.234   7.749  0.9551 -0.4604  0.3814
   85MOL   H14932237   6.462   6.133   0.249 -0.8246 -0.1170 -1.0427
   85MOL   H15032238   6.454   6.288   0.206  0.1493  0.3319  0.4845
   85MOL   H15132239   6.682   6.303   0.144 -0.5608  1.6352  1.0142
   85MOL   H15232240   6.652   6.246   0.308  1.1832  0.0763 -0.2789
   85MOL   H15332241   6.707   6.130   0.186  0.3030  0.4016  0.7767
   85MOL   C15432242   6.517   6.126   7.400  0.0014  0.5164  0.1683
   85MOL   C15532243   6.553   6.272   7.354  0.5145  0.3791  0.0952
   85MOL   C15632244   6.700   6.285   7.311  0.3778 -0.6601  0.4661
   85MOL   C15732245   6.730   6.430   7.276 -0.4536 -0.5691  0.0313
   85MOL   C15832246   6.870   6.442   7.227 -0.4955  0.4935  0.0496
   85MOL   C15932247   6.901   6.591   7.197 -0.6683  0.5680 -0.0114
   85MOL   O16032248   6.472   6.298   7.244  0.2890  0.5982 -0.3065
   85MOL   H16132249   6.422   6.096   7.356  0.0108 -1.3621  1.3630
   85MOL   H16232250   6.588   6.048   7.370  0.1101  0.9271 -0.6718
   85MOL   H16332251   6.521   6.350   7.424  1.0180  1.5295 -0.9403
   85MOL   H16432252   6.728   6.209   7.237  3.2522  0.9232 -0.1714
   85MOL   H16532253   6.758   6.260   7.400 -1.1118 -1.0074  1.3529
   85MOL   H16632254   6.698   6.500   7.354 -0.8803 -2.5733  1.6826
   85MOL   H16732255   6.681   6.459   7.183  0.0291  0.0696 -0.0315
   85MOL   H16832256   6.950   6.405   7.291  1.1522 -1.0476 -2.7707
   85MOL   H16932257   6.877   6.387   7.133  1.4075  1.6197 -0.5054
   85MOL   H17032258   6.903   6.652   7.287 -0.2889  1.8071 -0.8300
   85MOL   H17132259   6.821   6.631   7.134  1.1558 -0.0716 -2.8230
   85MOL   H17232260   6.988   6.596   7.132 -1.1019  1.8019 -0.5374
   85MOL   C17332261   6.344   6.338   7.270  0.0022 -0.3974 -0.1059
   85MOL   C17432262   6.271   6.341   7.131  0.3620 -0.3102  0.6029
   85MOL   C17532263   6.116   6.320   7.140  0.2163 -0.0975 -0.0864
   85MOL   C17632264   6.044   6.285   7.000 -0.0798  0.0874  0.3392
   85MOL   C17732265   5.893   6.299   7.009  0.6370  0.2682 -0.4095
   85MOL   C17832266   5.814   6.267   6.881 -0.1593 -0.6186  0.6118
   85MOL   O17932267   6.288   6.456   7.051  0.5873 -0.2006  0.2023
   85MOL   H18032268   6.349   6.440   7.308  2.1632 -0.6960  0.4600
   85MOL   H18132269   6.284   6.282   7.341  1.1428 -1.9961 -0.3788
   85MOL   H18232270   6.307   6.256   7.072  0.3406  0.2384 -0.2083
   85MOL   H18332271   6.092   6.240   7.210  1.9519 -0.0645  0.5681
   85MOL   H18432272   6.068   6.411   7.175  0.2050 -0.4413  0.8068
   85MOL   H18532273   6.088   6.347   6.922  0.2327 -0.3680  0.1501
   85MOL   H18632274   6.072   6.186   6.963 -2.8437 -0.8773  0.7652
   85MOL   H18732275   5.865   6.236   7.094  1.4633  2.0939  1.2499
   85MOL   H18832276   5.873   6.397   7.051  1.6256 -0.4670  1.8340
   85MOL   H18932277   5.833   6.315   6.785 -2.1844  0.4805  0.7385
   85MOL   H19032278   5.707   6.275   6.902 -0.2893  1.4898 -0.7266
   85MOL   H19132279   5.834   6.162   6.857 -1.4110 -0.9254  0.8874
   85MOL   C19232280   6.418   6.500   7.030  0.6200  0.4311 -0.3971
   85MOL   C19332281   6.427   6.615   6.933 -0.4183 -0.3874  0.3293
   85MOL   C19432282   6.326   6.720   6.976 -0.7858 -0.6521  0.1947
   85MOL   C19532283   6.335   6.851   6.885 -0.3829  0.4503 -0.1700
   85MOL   C19632284   6.231   6.954   6.922 -0.3908 -0.0588 -0.1485
   85MOL   C19732285   6.243   7.074   6.826  0.2049 -0.0174  0.7858
   85MOL   O19832286   6.396   6.584   6.801  0.3574  0.3808  0.8675
   85MOL   H19932287   6.455   6.533   7.127  0.2932 -0.6650  0.1008
   85MOL   H20032288   6.477   6.413   7.000 -1.0041 -0.9573  0.3533
   85MOL   H20132289   6.526   6.659   6.926  0.0715 -1.6993 -1.0596
   85MOL   H20232290   6.225   6.679   6.987 -0.8400 -0.1549  1.5902
   85MOL   H20332291   6.355   6.754   7.075  0.4161 -0.2511 -0.2899
   85MOL   H20432292   6.317   6.822   6.782 -1.7782 -0.9177  0.4317
   85MOL   H20532293   6.432   6.900   6.894  0.3259 -0.9344 -0.1036
   85MOL   H20632294   6.134   6.909   6.901  0.0581 -0.9317 -0.3888
   85MOL   H20732295   6.228   6.984   7.026 -1.6575  2.2400 -0.8337
   85MOL   H20832296   6.341   7.122   6.834  0.5379 -0.0550 -2.4023
   85MOL   H20932297   6.238   7.059   6.718 -0.0764  2.0890  0.4717
   85MOL   H21032298   6.165   7.146   6.852 -0.3645 -0.9640  1.6991
   85MOL   C21132299   6.312   6.472   6.771  0.1546  0.1186  0.1482
   85MOL   C21232300   6.303   6.449   6.619  0.3073 -0.3569 -0.2439
   85MOL   C21332301   6.232   6.313   6.595  0.0202  0.0384  0.3706
   85MOL   C21432302   6.178   6.287   6.455 -0.2072 -0.3944  0.4909
   85MOL   C21532303   6.142   6.137   6.427 -0.0677 -0.8567  1.1542
   85MOL   C21632304   6.107   6.101   6.278  0.6893 -0.4214 -0.2697
   85MOL   O21732305   6.426   6.434   6.547  0.1425  0.1027 -0.6336
   85MOL   H21832306   6.213   6.483   6.816  0.1347  0.7739 -0.0641
   85MOL   H21932307   6.359   6.378   6.803  3.1318  1.5251  0.0226
   85MOL   H22032308   6.250   6.532   6.573 -1.2901 -0.4649  1.3725
   85MOL   H22132309   6.304   6.240   6.631  1.0471  1.5016  1.3414
   85MOL   H22232310   6.148   6.302   6.664  2.3044 -0.1148  3.2227
   85MOL   H22332311   6.094   6.353   6.435 -1.5694 -2.5107 -1.0310
   85MOL   H22432312   6.250   6.329   6.385  1.2215  0.7034  2.5696
   85MOL   H22532313   6.227   6.071   6.444  0.8213 -0.1936 -0.6389
   85MOL   H22632314   6.063   6.102   6.493  0.8525  0.6581  3.1294
   85MOL   H22732315   6.186   6.141   6.215  2.2537 -1.9148  0.6965
   85MOL   H22832316   6.011   6.137   6.242  0.8776 -0.0961 -0.4506
   85MOL   H22932317   6.105   5.993   6.266  1.2231 -0.4354 -0.2346
   85MOL   C23032318   6.488   6.560   6.514  1.1296  0.7482  0.2676
   85MOL   C23132319   6.621   6.581   6.591  0.1669 -0.0200 -0.4172
   85MOL   C23232320   6.641   6.730   6.602  0.2421 -0.3130  0.2979
   85MOL   C23332321   6.760   6.775   6.693  0.0832  0.1625 -0.6738
   85MOL   C23432322   6.804   6.916   6.678 -0.2338  0.4118 -0.4197
   85MOL   C23532323   6.920   6.950   6.773  0.1171  0.3649  0.0984
   85MOL   O23632324   6.729   6.515   6.527 -1.3403 -0.1999 -0.2663
   85MOL   H23732325   6.512   6.552   6.408  2.3285 -0.0771  0.5933
   85MOL   H23832326   6.410   6.636   6.516  1.4804  1.2648 -2.8113
   85MOL   H23932327   6.616   6.552   6.696 -0.0713  0.0799 -0.3995
   85MOL   H24032328   6.547   6.784   6.618  0.4112 -0.5253  2.0982
   85MOL   H24132329   6.678   6.758   6.503  0.0202  0.8708  0.5475
   85MOL   H24232330   6.840   6.702   6.680 -1.3963 -1.7690  0.7780
   85MOL   H24332331   6.718   6.752   6.790 -1.7605  0.5438 -1.3531
   85MOL   H24432332   6.842   6.937   6.578  0.3789  0.3035 -0.2096
   85MOL   H24532333   6.720   6.982   6.702 -0.3609  0.1742 -0.2065
   85MOL   H24632334   7.005   6.888   6.745 -0.6204 -0.4519 -0.3403
   85MOL   H24732335   6.898   6.927   6.877  1.7238  3.6752  1.2321
   85MOL   H24832336   6.938   7.057   6.764 -0.1767  0.6855  2.9103
   85MOL   C24932337   6.743   6.379   6.565  0.0985  0.5378 -0.6274
   85MOL   C25032338   6.842   6.379   6.687 -0.0434 -0.2153 -0.1203
   85MOL   C25132339   6.978   6.382   6.634  0.0716  0.6050 -0.0800
   85MOL   C25232340   7.083   6.370   6.746 -0.0275 -0.3048  0.2932
   85MOL   C25332341   7.109   6.481   6.845  0.5117 -0.2945  0.4956
   85MOL   C25432342   7.228   6.472   6.945  0.5635 -0.1647  0.5311
   85MOL   O25532343   6.821   6.261   6.769  0.6564  0.2661  0.7600
   85MOL   H25632344   6.651   6.330   6.596  0.5436 -0.0705 -0.2461
   85MOL   H25732345   6.779   6.323   6.479  1.1962 -1.5431  1.1510
   85MOL   H25832346   6.823   6.468   6.746 -1.3488 -0.9106  0.5430
   85MOL   H25932347   6.990   6.288   6.580 -0.6734 -0.3512  1.3950
   85MOL   H26032348   7.002   6.467   6.570  0.1453  0.1116 -0.7154
   85MOL   H26132349   7.071   6.275   6.798 -1.7134  0.0097  0.4785
   85MOL   H26232350   7.179   6.358   6.695  0.3787 -0.4751  1.0987
   85MOL   H26332351   7.104   6.570   6.782  1.7019 -0.8191 -0.3594
   85MOL   H26432352   7.018   6.478   6.905  1.1789  0.0614  1.5343
   85MOL   H26532353   7.223   6.549   7.023  0.2723 -0.7293  1.0775
   85MOL   H26632354   7.328   6.465   6.901  1.2082 -1.3448  2.1394
   85MOL   H26732355   7.206   6.381   7.000  0.8186  0.9019  2.4573
   85MOL   C26832356   6.732   6.279   6.877 -0.2782 -0.0575 -0.3529
   85MOL   C26932357   6.718   6.148   6.950 -0.0636 -0.1133  0.1516
   85MOL   C27032358   6.853   6.087   6.972  0.0721  0.2104 -0.1995
   85MOL   C27132359   6.867   5.974   7.080  0.2661  0.4691  0.3964
   85MOL   C27232360   7.010   5.945   7.111  0.4672  0.5668  0.0005
   85MOL   C27332361   7.025   5.838   7.226  1.1010 -0.3560  0.6339
   85MOL   O27432362   6.645   6.070   6.857 -0.1541 -0.2634 -0.0944
   85MOL   H27532363   6.633   6.310   6.842 -0.4201 -1.1952 -0.9751
   85MOL   H27632364   6.770   6.354   6.947 -0.6446 -0.9443  0.8150
   85MOL   H27732365   6.674   6.163   7.048 -3.7312  3.5815 -1.9249
   85MOL   H27832366   6.891   6.055   6.875  0.1196 -0.3262 -0.0118
   85MOL   H27932367   6.925   6.162   7.005  0.6139  0.9766 -3.0481
   85MOL   H28032368   6.824   6.023   7.167 -0.4529 -1.1065  0.9323
   85MOL   H28132369   6.806   5.887   7.059  0.0578  0.9072 -0.8697
   85MOL   H28232370   7.056   5.898   7.024  0.8140 -0.0337  0.4994
   85MOL   H28332371   7.071   6.028   7.148  0.8155 -0.7151  2.4367
   85MOL   H28432372   6.966   5.868   7.314 -1.7390 -0.4132 -1.1804
   85MOL   H28532373   6.985   5.746   7.183 -0.5734  0.8368 -0.4391
   85MOL   H28632374   7.128   5.831   7.259  0.3889  1.3637  3.4385
   85MOL   C28732375   6.516   6.027   6.909  0.2172 -0.5560 -0.3803
   85MOL   C28832376   6.457   5.928   6.803 -0.3436 -0.1178 -0.1876
   85MOL   C28932377   6.301   5.913   6.820 -0.1800  0.1817  0.4642
   85MOL   C29032378   6.239   5.841   6.700 -0.9776  0.4140 -0.7665
   85MOL   C29132379   6.085   5.845   6.698 -0.3522 -0.8121 -0.7264
   85MOL   C29232380   6.026   5.808   6.561 -0.2953  0.3965  0.0439
   85MOL   O29332381   6.504   5.792   6.816 -0.1409  0.5605 -0.3342
   85MOL   H29432382   6.442   6.107   6.904 -1.2726 -1.6440  2.5678
   85MOL   H29532383   6.518   5.980   7.008  1.4079  0.7990  0.2493
   85MOL   H29632384   6.488   5.969   6.707  2.4150  0.6342  0.9763
   85MOL   H29732385   6.279   5.866   6.916  1.8565 -1.0726  0.3602
   85MOL   H29832386   6.256   6.011   6.826 -1.0059 -0.2411  1.3535
   85MOL   H29932387   6.279   5.882   6.607 -0.1601  0.4508 -0.4058
   85MOL   H30032388   6.261   5.735   6.706  0.8442  0.8289  0.2823
   85MOL   H30132389   6.055   5.947   6.723 -0.0171 -0.8766 -0.0335
   85MOL   H30232390   6.045   5.783   6.778 -0.5748  1.2989  0.8414
   85MOL   H30332391   6.065   5.883   6.492  1.2548 -1.4171 -1.1128
   85MOL   H30432392   6.066   5.716   6.517 -1.1708 -0.4778  1.0591
   85MOL   H30532393   5.920   5.789   6.546 -0.3244 -0.5245  1.3191
   85MOL   C30632394   6.635   5.769   6.764 -0.3325 -0.2739  1.1391
   85MOL   C30732395   6.685   5.626   6.760 -0.5006 -0.2766  0.0757
   85MOL   C30832396   6.844   5.608   6.769 -0.5663  0.1696 -0.5525
   85MOL   C30932397   6.913   5.677   6.888 -0.2013  0.3155  0.0548
   85MOL   C31032398   7.060   5.632   6.907 -0.1398  1.2005  0.0716
   85MOL   C31132399   7.145   5.670   6.784 -0.6946  0.6217  0.2266
   85MOL   O31232400   6.634   5.560   6.639  0.4596  0.1006 -0.5917
   85MOL   H31332401   6.658   5.808   6.665 -0.3321 -2.3216  0.3052
   85MOL   H31432402   6.699   5.816   6.839  0.6763 -0.7162  0.5562
   85MOL   H31532403   6.648   5.568   6.845 -0.4846 -0.7615 -0.2471
   85MOL   H31632404   6.899   5.641   6.681 -2.3189  4.5068 -0.1671
   85MOL   H31732405   6.876   5.504   6.772  0.4448  0.5229  1.2113
   85MOL   H31832406   6.919   5.785   6.876  1.5253  0.2891  0.5803
   85MOL   H31932407   6.860   5.650   6.979  2.1527  1.1044  1.7236
   85MOL   H32032408   7.054   5.525   6.929  4.2977  0.7150 -0.6237
   85MOL   H32132409   7.107   5.681   6.992  2.1100 -0.1346 -0.3601
   85MOL   H32232410   7.149   5.583   6.718  2.5707 -0.5885  1.9405
   85MOL   H32332411   7.117   5.762   6.732  0.8518  0.0131 -1.7648
   85MOL   H32432412   7.249   5.677   6.813  0.2015 -0.5109 -2.5169
   85MOL   C32532413   6.495   5.557   6.627 -0.1362  0.2602  0.8145
   85MOL   C32632414   6.454   5.454   6.523 -0.5409 -1.1326  0.7673
   85MOL   C32732415   6.563   5.349   6.501  0.2140 -0.8562  0.5655
   85MOL   C32832416   6.508   5.244   6.400  0.0400  0.4111  0.2849
   85MOL   C32932417   6.609   5.135   6.365 -0.1593  0.4554 -0.2830
   85MOL   C33032418   6.587   5.061   6.236  0.5602 -0.4398  0.3163
   85MOL   O33132419   6.434   5.526   6.400  0.6116 -0.1314 -0.4537
   85MOL   H33232420   6.464   5.658   6.600  0.9038  0.4136  0.1828
   85MOL   H33332421   6.437   5.540   6.718 -1.8788 -0.4533 -0.3838
   85MOL   H33432422   6.365   5.396   6.548 -1.9296  0.8522  0.6450
   85MOL   H33532423   6.656   5.392   6.463 -0.7631  0.7005 -0.1287
   85MOL   H33632424   6.587   5.305   6.598  0.0832 -1.0614  0.5052
   85MOL   H33732425   6.419   5.201   6.447  1.5768 -0.5028  2.4293
   85MOL   H33832426   6.488   5.288   6.302  0.1346  0.8093  0.4442
   85MOL   H33932427   6.705   5.185   6.368 -0.1574  0.3675  1.3941
   85MOL   H34032428   6.613   5.060   6.444  0.5545  1.5043  0.6816
   85MOL   H34132429   6.653   4.977   6.214 -2.2200 -3.1748  1.9372
   85MOL   H34232430   6.489   5.016   6.220  0.5232 -0.9101  1.7437
   85MOL   H34332431   6.586   5.132   6.154 -0.6585 -1.3532 -0.4849
   85MOL   C34432432   6.305   5.580   6.400 -0.3377 -0.0203  0.0054
   85MOL   C34532433   6.290   5.651   6.271 -0.5947 -0.3685  0.7219
   85MOL   C34632434   6.144   5.650   6.227  0.1743 -0.2623  0.1703
   85MOL   C34732435   6.117   5.715   6.090  0.5878 -1.0969  0.1246
   85MOL   C34832436   5.967   5.746   6.080  0.0288  0.4236 -0.1290
   85MOL   C34932437   5.924   5.827   5.947  0.3761 -0.2909  0.0746
   85MOL   O35032438   6.324   5.785   6.292 -0.6070 -0.2254 -0.2620
   85MOL   H35132439   6.287   5.638   6.490 -0.3842 -1.5086  0.9798
   85MOL   H35232440   6.242   5.491   6.407 -3.1664  1.8417 -0.7218
   85MOL   H35332441   6.358   5.612   6.196  1.0942  0.4756  1.7953
   85MOL   H35432442   6.081   5.698   6.302 -1.2099 -0.3095 -0.9419
   85MOL   H35532443   6.111   5.548   6.209  0.6173 -0.6911  1.7510
   85MOL   H35632444   6.152   5.666   6.000 -1.1225 -1.2407 -0.4900
   85MOL   H35732445   6.168   5.811   6.102 -2.5374  0.4377  1.9297
   85MOL   H35832446   5.940   5.812   6.163  2.8099  0.1799  1.0214
   85MOL   H35932447   5.915   5.650   6.079 -1.2770  1.0921  1.2017
   85MOL   H36032448   5.961   5.784   5.854  1.2781  0.5809  0.0321
   85MOL   H36132449   5.963   5.928   5.955 -1.4222  0.4323  0.0041
   85MOL   H36232450   5.816   5.831   5.929  0.4514  0.4732 -0.2317
   85MOL   C36332451   6.465   5.810   6.312 -0.1907 -0.0095  0.4904
   85MOL   C36432452   6.471   5.965   6.312 -0.1538  0.4528 -1.0067
   85MOL   C36532453   6.615   6.020   6.314 -0.2793  0.4630 -0.2557
   85MOL   C36632454   6.672   6.039   6.454  0.1827 -0.2743  0.0985
   85MOL   C36732455   6.825   6.051   6.449  0.2213 -0.1967 -0.0664
   85MOL   C36832456   6.901   5.937   6.373  0.2948  0.1754 -0.4360
   85MOL   O36932457   6.420   6.011   6.193  0.0236 -0.6951  0.5168
   85MOL   H37032458   6.509   5.785   6.215  1.9746  1.7018  1.0009
   85MOL   H37132459   6.509   5.760   6.399 -1.1943  0.7218  1.4335
   85MOL   H37232460   6.418   6.011   6.395  0.3127  0.1963 -0.5674
   85MOL   H37332461   6.680   5.946   6.268  1.1687 -0.4379  3.0543
   85MOL   H37432462   6.615   6.115   6.259 -1.3420  0.7764  0.2712
   85MOL   H37532463   6.636   6.132   6.497 -0.0772  0.1810 -1.0661
   85MOL   H37632464   6.633   5.965   6.523 -0.3107  0.1433  0.2720
   85MOL   H37732465   6.851   6.136   6.386  1.2360 -1.2529 -1.0832
   85MOL   H37832466   6.874   6.069   6.544  0.5145 -1.7754  0.0863
   85MOL   H37932467   6.915   5.965   6.269 -1.5943  1.1006 -0.4567
   85MOL   H38032468   6.997   5.919   6.422 -0.9455  0.4358  2.1542
   85MOL   H38132469   6.866   5.835   6.384  1.8088 -0.2538  0.6326
   85MOL   H38232470   6.332   5.977   6.188  0.6553 -2.6454  2.3607
   86MOL     C132471   6.906   1.917   2.002 -0.7249 -0.6457 -0.4409
   86MOL     C232472   7.059   1.923   1.991  0.2141 -0.0567  0.5883
   86MOL     C332473   7.117   1.826   1.890  0.3826  0.2667  0.5710
   86MOL     C432474   7.270   1.814   1.910  0.3353  0.1270 -0.0039
   86MOL     C532475   7.329   1.689   1.834 -0.1866  0.3949 -0.6286
   86MOL     C632476   7.332   1.694   1.687  0.5286 -0.1821 -0.1910
   86MOL     O732477   7.091   2.063   1.971  0.3730  0.8034  0.7924
   86MOL     H832478   6.855   1.974   1.925 -0.5849  0.6041  0.3862
   86MOL     H932479   6.865   1.948   2.099  0.6525 -0.3354  0.0570
   86MOL    H1032480   7.096   1.891   2.089  1.1398 -1.4206 -0.1808
   86MOL    H1132481   7.074   1.726   1.891 -1.1772  0.9056 -0.2043
   86MOL    H1232482   7.095   1.853   1.787  0.8070  1.0933  0.6836
   86MOL    H1332483   7.314   1.911   1.890  0.7514 -0.0546  0.0266
   86MOL    H1432484   7.292   1.796   2.015 -0.8789 -0.3893  0.1768
   86MOL    H1532485   7.425   1.651   1.867 -0.9770 -1.4170 -0.3529
   86MOL    H1632486   7.274   1.600   1.865 -0.0934  0.0731 -1.3943
   86MOL    H1732487   7.238   1.734   1.649  1.6292  0.3918 -2.3905
   86MOL    H1832488   7.410   1.767   1.666  1.9472 -0.8620  2.4328
   86MOL    H1932489   7.340   1.594   1.646 -1.3910 -1.9996  3.6092
   86MOL    H2032490   6.881   1.811   2.007  3.7577 -1.7359  2.5265
   86MOL    C2132491   7.145   2.135   2.074  0.0241  0.3633 -0.3211
   86MOL    C2232492   7.173   2.288   2.046  1.4980  0.4199  0.0456
   86MOL    C2332493   7.216   2.351   2.176 -0.6502  0.0070 -0.4556
   86MOL    C2432494   7.225   2.502   2.163  0.5628 -1.0255 -0.5150
   86MOL    C2532495   7.292   2.578   2.280  0.5992  0.2277 -0.2347
   86MOL    C2632496   7.306   2.726   2.259 -0.0390  0.2177  0.1498
   86MOL    O2732497   7.265   2.306   1.938 -0.2844 -0.1419 -0.3913
   86MOL    H2832498   7.080   2.137   2.162 -0.4514  2.4348 -0.6974
   86MOL    H2932499   7.239   2.091   2.107 -0.6484 -0.7819  0.1046
   86MOL    H3032500   7.079   2.334   2.014  0.7179 -0.4322  1.0656
   86MOL    H3132501   7.312   2.304   2.198  0.3074  1.6549 -1.0549
   86MOL    H3232502   7.156   2.323   2.262  1.9482 -1.0397  1.0774
   86MOL    H3332503   7.118   2.525   2.168  0.5537 -1.2342  0.4850
   86MOL    H3432504   7.267   2.541   2.071 -0.9857  2.2616  0.0680
   86MOL    H3532505   7.245   2.550   2.374  1.4396 -0.5396 -0.0407
   86MOL    H3632506   7.388   2.527   2.280  0.7872  0.5653  1.7509
   86MOL    H3732507   7.335   2.753   2.158 -0.2462  0.0436  0.0413
   86MOL    H3832508   7.383   2.767   2.324 -0.3814  0.5403  0.3567
   86MOL    H3932509   7.204   2.765   2.266  0.4280  1.7443 -1.3250
   86MOL    C4032510   7.223   2.278   1.807 -0.6056 -0.1834  0.4515
   86MOL    C4132511   7.320   2.336   1.701 -0.0386  0.1145  0.0280
   86MOL    C4232512   7.259   2.356   1.568 -0.1761 -0.0984 -0.3182
   86MOL    C4332513   7.353   2.422   1.462 -0.8005  0.6123  0.8390
   86MOL    C4432514   7.275   2.473   1.330  0.1927 -0.4277  0.3714
   86MOL    C4532515   7.192   2.605   1.357 -0.0950 -0.0467  0.5907
   86MOL    O4632516   7.413   2.238   1.668  0.1417 -0.2049  0.3041
   86MOL    H4732517   7.130   2.334   1.795  0.5464  2.3172  2.7152
   86MOL    H4832518   7.209   2.172   1.790 -0.6296 -0.1560  0.3021
   86MOL    H4932519   7.372   2.427   1.733  1.7458 -1.0495  0.5418
   86MOL    H5032520   7.218   2.270   1.515 -1.3290  1.0488 -1.3369
   86MOL    H5132521   7.171   2.419   1.579 -2.6409 -3.4118 -0.5763
   86MOL    H5232522   7.417   2.340   1.429 -3.2069 -1.3335  0.9358
   86MOL    H5332523   7.426   2.491   1.505  0.6412 -0.2805 -0.1382
   86MOL    H5432524   7.353   2.488   1.255 -1.5538  2.6493 -0.8768
   86MOL    H5532525   7.212   2.393   1.292 -0.1053 -0.5832  1.1691
   86MOL    H5632526   7.167   2.611   1.463  0.1863  3.0083  0.5162
   86MOL    H5732527   7.250   2.696   1.342 -1.6141  0.3836 -3.4751
   86MOL    H5832528   7.113   2.622   1.284  0.5129 -0.2958 -0.1356
   86MOL    C5932529   7.514   2.208   1.766 -0.5412  0.1695 -0.5225
   86MOL    C6032530   7.614   2.099   1.717 -0.4869 -0.3168 -0.3730
   86MOL    C6132531   7.714   2.172   1.632  0.6633  0.2803 -0.0818
   86MOL    C6232532   0.047   2.083   1.575  0.3040  0.5693 -0.3681
   86MOL    C6332533   0.129   2.142   1.457 -0.1562  0.0693 -0.3485
   86MOL    C6432534   0.251   2.048   1.423  0.5338  0.0510  0.0280
   86MOL    O6532535   7.678   2.048   1.833 -0.5921 -0.1509 -0.3329
   86MOL    H6632536   7.467   2.166   1.855 -2.1717  1.3880 -0.7983
   86MOL    H6732537   7.555   2.304   1.795 -1.5302  0.1557  0.9835
   86MOL    H6832538   7.566   2.022   1.657 -0.7045 -0.1997 -0.3514
   86MOL    H6932539   7.757   2.259   1.684 -1.6969  2.2268 -1.2942
   86MOL    H7032540   7.663   2.223   1.550 -0.9738  1.3421  1.5574
   86MOL    H7132541   0.018   1.981   1.551  2.1349  0.1419 -0.8199
   86MOL    H7232542   0.119   2.068   1.654  0.6909  1.0181 -0.6341
   86MOL    H7332543   0.176   2.232   1.496 -0.3715  1.3427 -2.9604
   86MOL    H7432544   0.073   2.165   1.367  0.1165  1.0413 -0.2771
   86MOL    H7532545   0.338   2.102   1.386  0.3516  2.6546  3.1816
   86MOL    H7632546   0.276   2.000   1.518 -3.7741 -1.9564  0.3104
   86MOL    H7732547   0.227   1.961   1.361 -3.8749  1.9330 -1.1077
   86MOL    C7832548   7.658   1.911   1.850 -0.3482 -0.0916 -0.4226
   86MOL    C7932549   7.678   1.866   1.999 -0.0167 -0.2112 -0.3185
   86MOL    C8032550   7.705   1.714   2.010 -0.3754 -0.6839 -0.2591
   86MOL    C8132551   7.766   1.668   2.142  0.1681 -0.0834 -0.3017
   86MOL    C8232552   0.016   1.519   2.141 -0.8557 -0.4958 -0.0624
   86MOL    C8332553   7.678   1.432   2.149 -0.2878  0.0987  0.4654
   86MOL    O8432554   7.572   1.897   2.097 -0.4806 -0.5206  0.4588
   86MOL    H8532555   7.722   1.860   1.778  1.4371  0.6933  0.5641
   86MOL    H8632556   7.555   1.879   1.836 -0.7250  0.8491  0.1904
   86MOL    H8732557   7.764   1.924   2.034 -0.5439  0.0844  0.5168
   86MOL    H8832558   7.604   1.674   2.000 -0.9161  0.6191 -0.0576
   86MOL    H8932559   7.764   1.677   1.926  0.3685 -0.7949  0.3083
   86MOL    H9032560   7.697   1.701   2.220 -0.3330  2.0629 -1.6057
   86MOL    H9132561   0.065   1.737   2.148  0.3512 -0.3053 -0.3526
   86MOL    H9232562   0.082   1.487   2.061 -0.6991 -1.5305  0.4745
   86MOL    H9332563   0.073   1.507   2.233  1.0806  2.2991 -0.8227
   86MOL    H9432564   7.705   1.327   2.150 -1.0853 -0.1277 -0.2106
   86MOL    H9532565   7.618   1.453   2.060 -1.9103  0.8188  1.6879
   86MOL    H9632566   7.614   1.442   2.237  1.4386 -1.9709  1.9973
   86MOL    C9732567   7.551   2.038   2.120 -0.0337 -0.0215 -0.4462
   86MOL    C9832568   7.653   2.123   2.195 -0.0495 -0.1298  0.3653
   86MOL    C9932569   7.635   2.274   2.207 -0.0617  0.1190 -0.3563
   86MOL   C10032570   7.617   2.345   2.072  0.2689 -0.6041  0.2711
   86MOL   C10132571   7.641   2.494   2.086 -0.2410  0.1539  0.3795
   86MOL   C10232572   7.582   2.579   1.970  0.9345  0.2788 -0.0879
   86MOL   O10332573   7.655   2.083   2.331  0.2540 -0.2177  0.0630
   86MOL   H10432574   7.455   2.050   2.171  0.0149  0.7110 -0.5242
   86MOL   H10532575   7.524   2.091   2.029  0.4107 -1.2655 -1.3200
   86MOL   H10632576   7.749   2.111   2.145 -0.1559  1.0073 -0.1236
   86MOL   H10732577   7.731   2.306   2.246  0.4282  0.4946 -1.8360
   86MOL   H10832578   7.541   2.294   2.258  1.3956 -0.0017  2.4442
   86MOL   H10932579   7.524   2.317   2.022 -0.1301  1.5073 -0.2237
   86MOL   H11032580   7.694   2.316   2.000  1.6075  0.7029  1.1667
   86MOL   H11132581   7.747   2.517   2.096 -0.4954  0.6756  2.1028
   86MOL   H11232582   7.589   2.534   2.174 -1.3932  1.2080 -0.7542
   86MOL   H11332583   7.609   2.558   1.867  1.0081 -2.0743  0.3617
   86MOL   H11432584   7.476   2.558   1.964  0.4355  2.6202  0.3173
   86MOL   H11532585   7.597   2.684   1.992  2.8316 -0.4184  2.2129
   86MOL   C11632586   7.784   2.057   2.382 -0.4456 -0.2807 -0.4932
   86MOL   C11732587   7.767   2.043   2.536  0.6103  0.0218  0.8438
   86MOL   C11832588   7.761   2.163   2.624 -0.2399 -0.3211  0.2629
   86MOL   C11932589   7.671   2.283   2.580 -0.5802  0.6975 -0.4551
   86MOL   C12032590   7.642   2.377   2.700 -0.2479 -0.4076 -0.1252
   86MOL   C12132591   7.610   2.516   2.659 -0.2088  0.3502  0.3343
   86MOL   O12232592   0.060   1.947   2.596 -0.6657 -0.1153  0.0271
   86MOL   H12332593   0.043   1.970   2.333  2.3916  1.2947 -0.8204
   86MOL   H12432594   0.045   2.154   2.362 -0.2163 -0.3770 -0.4237
   86MOL   H12532595   7.669   1.998   2.557  0.8036 -0.6744  0.2820
   86MOL   H12632596   7.722   2.124   2.718  0.8186 -0.6056  0.5958
   86MOL   H12732597   0.078   2.197   2.640  1.0577 -1.4221 -4.8281
   86MOL   H12832598   7.576   2.253   2.535  0.0220 -0.5284 -0.9302
   86MOL   H12932599   7.727   2.328   2.498 -0.3106 -1.5711 -1.5672
   86MOL   H13032600   7.562   2.330   2.758 -2.0453  0.9487 -1.4168
   86MOL   H13132601   7.737   2.374   2.753  0.2816 -1.7518 -1.1125
   86MOL   H13232602   7.628   2.585   2.742  2.5436 -1.3515  1.2291
   86MOL   H13332603   7.660   2.552   2.569  0.7182 -1.0030  0.2955
   86MOL   H13432604   7.502   2.514   2.644  0.0301 -1.7428 -1.3847
   86MOL   C13532605   0.014   1.813   2.565  0.4628  0.6068  0.1412
   86MOL   C13632606   0.144   1.736   2.573  0.5371 -0.2816  0.6881
   86MOL   C13732607   0.240   1.754   2.448  0.5284 -0.1110  0.0851
   86MOL   C13832608   0.354   1.655   2.442 -0.5506 -0.5073  0.1480
   86MOL   C13932609   0.432   1.656   2.313  0.0849 -0.2800 -1.0924
   86MOL   C14032610   0.521   1.539   2.282  0.0150  0.0009  0.2785
   86MOL   O14132611   0.105   1.598   2.562 -0.0454  0.2620 -0.2600
   86MOL   H14232612   7.729   1.776   2.640 -1.0132 -1.6305 -2.2687
   86MOL   H14332613   7.754   1.806   2.466  3.2539 -0.3178 -1.1328
   86MOL   H14432614   0.193   1.756   2.669 -0.1140 -0.0640  0.9748
   86MOL   H14532615   0.178   1.739   2.360  1.5997 -0.7072 -0.5795
   86MOL   H14632616   0.270   1.859   2.446  0.9119 -0.2306 -2.6994
   86MOL   H14732617   0.320   1.552   2.453 -0.8461 -0.2796  1.4876
   86MOL   H14832618   0.425   1.665   2.525  1.2603 -0.9581 -1.3146
   86MOL   H14932619   0.490   1.747   2.321  0.8756 -1.0492  2.3744
   86MOL   H15032620   0.364   1.658   2.227  0.2948  2.0009 -1.2275
   86MOL   H15132621   0.592   1.523   2.363  0.9981  0.6773 -0.4356
   86MOL   H15232622   0.457   1.451   2.281  0.7948 -0.5589  0.1288
   86MOL   H15332623   0.575   1.545   2.188  1.0567 -1.1704  0.7884
   86MOL   C15432624   0.065   1.536   2.686 -0.0046  0.0295 -0.7593
   86MOL   C15532625   0.010   1.398   2.645 -0.5945  0.3773 -0.2244
   86MOL   C15632626   0.067   1.278   2.723  0.4994  0.5166 -0.1620
   86MOL   C15732627   0.221   1.262   2.727  0.6290 -0.8734  0.3201
   86MOL   C15832628   0.264   1.121   2.783  0.1757 -0.3460  0.3401
   86MOL   C15932629   0.243   1.112   2.932  0.9505  0.0895 -0.4788
   86MOL   O16032630   7.652   1.394   2.655  0.2401 -0.0587  0.2587
   86MOL   H16132631   7.782   1.600   2.742  0.9665  1.8940 -1.6536
   86MOL   H16232632   0.155   1.514   2.744  0.6357 -0.2243 -1.8375
   86MOL   H16332633   0.044   1.379   2.544 -0.7351 -1.1279  0.0048
   86MOL   H16432634   0.009   1.188   2.702 -1.0322  1.1849  1.1048
   86MOL   H16532635   0.044   1.290   2.828 -1.2119  1.0190 -0.5740
   86MOL   H16632636   0.273   1.337   2.786  0.6482  0.0870 -0.9047
   86MOL   H16732637   0.262   1.279   2.628  0.3080  1.9333  0.6246
   86MOL   H16832638   0.222   1.044   2.718 -1.1240  1.1935 -0.6843
   86MOL   H16932639   0.372   1.111   2.771  0.6766  1.3289  2.9136
   86MOL   H17032640   0.285   1.191   2.994  1.0883  0.6612 -1.2967
   86MOL   H17132641   0.297   1.022   2.964  1.3197  0.5838  0.2886
   86MOL   H17232642   0.136   1.111   2.949  1.2387  2.0408  1.7049
   86MOL   C17332643   7.582   1.471   2.551  0.2896 -0.5899  0.6484
   86MOL   C17432644   7.431   1.434   2.553  0.8469  0.7023 -0.2172
   86MOL   C17532645   7.400   1.277   2.537  0.4072  0.3203  0.7567
   86MOL   C17632646   7.431   1.206   2.406  0.5929 -0.3092 -0.4046
   86MOL   C17732647   7.567   1.141   2.394 -0.1410  0.2668  0.4550
   86MOL   C17832648   7.585   1.079   2.255  0.4145  0.2258 -0.3510
   86MOL   O17932649   7.379   1.467   2.680  0.2149  0.1648  0.1795
   86MOL   H18032650   7.627   1.456   2.453 -1.6739  3.8456 -1.0578
   86MOL   H18132651   7.589   1.577   2.576  0.5535 -0.7383  1.2243
   86MOL   H18232652   7.394   1.501   2.474 -2.7314 -0.0642  0.7220
   86MOL   H18332653   7.448   1.228   2.621  1.7546  0.9017  0.3424
   86MOL   H18432654   7.294   1.257   2.552 -0.1285  0.1618 -2.7260
   86MOL   H18532655   7.347   1.135   2.401 -0.9718  1.1924  2.9360
   86MOL   H18632656   7.418   1.292   2.340 -1.8776 -0.8931 -0.7456
   86MOL   H18732657   7.637   1.223   2.409 -1.1049  0.8570  1.8452
   86MOL   H18832658   7.577   1.058   2.464 -0.2007  0.2564  0.4516
   86MOL   H18932659   7.513   0.997   2.247 -0.6420  0.7578  3.0317
   86MOL   H19032660   7.685   1.035   2.254 -0.4742 -1.8900  0.3551
   86MOL   H19132661   7.571   1.155   2.178 -3.8908  0.5787  0.6254
   86MOL   C19232662   7.244   1.518   2.667 -0.3444 -0.2452  0.4624
   86MOL   C19332663   7.205   1.551   2.813  0.3360  0.9730  1.0162
   86MOL   C19432664   7.052   1.553   2.835 -0.0740 -0.1978 -0.5900
   86MOL   C19532665   7.005   1.547   2.981 -0.8693 -0.4665  0.4225
   86MOL   C19632666   6.860   1.519   2.984  0.0633  0.0349 -0.0669
   86MOL   C19732667   6.804   1.500   3.126 -0.1460  0.0525  0.1279
   86MOL   O19832668   7.241   1.684   2.843  0.1931 -0.3059 -0.1838
   86MOL   H19932669   7.245   1.605   2.601  0.0483 -0.2233  0.4980
   86MOL   H20032670   7.177   1.447   2.619 -1.8204  2.7089 -2.0156
   86MOL   H20132671   7.250   1.480   2.882  1.2216  1.1655  0.6423
   86MOL   H20232672   6.996   1.625   2.775  0.4189  0.0627 -0.7398
   86MOL   H20332673   7.027   1.452   2.802  2.1374 -1.1847  0.6203
   86MOL   H20432674   7.021   1.641   3.033  3.3455 -1.5870  1.3254
   86MOL   H20532675   7.054   1.470   3.040  3.0759  2.3057  0.9724
   86MOL   H20632676   6.803   1.603   2.943 -1.8849 -1.1982  0.0685
   86MOL   H20732677   6.838   1.429   2.927  1.7767  0.1249 -0.8885
   86MOL   H20832678   6.696   1.508   3.113 -0.0992  0.4959 -0.0181
   86MOL   H20932679   6.835   1.414   3.185  3.3634  0.6142 -0.7521
   86MOL   H21032680   6.845   1.587   3.178 -0.2085 -0.7088  1.4693
   86MOL   C21132681   7.380   1.696   2.876  0.6186  0.3429  0.2500
   86MOL   C21232682   7.408   1.836   2.942  0.0717 -0.0656 -0.1915
   86MOL   C21332683   7.558   1.879   2.924  0.2792 -0.8651 -0.3668
   86MOL   C21432684   7.613   2.007   2.986  0.6590 -0.0354 -0.0560
   86MOL   C21532685   7.765   2.004   2.977 -0.5880 -0.1896 -0.3499
   86MOL   C21632686   0.035   2.137   3.004  0.0803  0.7627 -0.7772
   86MOL   O21732687   7.376   1.822   3.080  0.5395  0.3928  0.3350
   86MOL   H21832688   7.436   1.676   2.785 -1.7710  1.8408 -1.6115
   86MOL   H21932689   7.403   1.628   2.958 -0.5148 -0.0829  0.2157
   86MOL   H22032690   7.358   1.920   2.893  0.3668  0.7143  0.8447
   86MOL   H22132691   7.611   1.793   2.965 -0.9002 -2.4036 -1.9933
   86MOL   H22232692   7.574   1.886   2.817  0.9952  3.1772 -0.0495
   86MOL   H22332693   7.579   2.088   2.921 -1.3502 -1.4182 -0.7782
   86MOL   H22432694   7.579   2.042   3.083 -0.3519  1.6198 -0.9786
   86MOL   H22532695   0.037   1.930   3.034  0.3359  1.1137  0.4595
   86MOL   H22632696   7.777   1.986   2.871  1.6683  1.3146 -0.3981
   86MOL   H22732697   0.138   2.136   2.968  0.7128 -0.1880  0.9706
   86MOL   H22832698   0.033   2.176   3.106  0.0169  1.0470 -0.8872
   86MOL   H22932699   7.775   2.214   2.943  0.0104  2.4746  1.3726
   86MOL   C23032700   7.234   1.801   3.100 -0.7407  0.0204  0.0898
   86MOL   C23132701   7.191   1.864   3.227  0.4193  0.0547 -0.1601
   86MOL   C23232702   7.047   1.815   3.274 -0.1036  0.4825  0.3474
   86MOL   C23332703   6.982   1.890   3.388 -0.2894 -0.4789  0.1016
   86MOL   C23432704   6.848   1.833   3.430  0.2953  0.4811  0.4148
   86MOL   C23532705   6.773   1.932   3.525 -0.4359 -0.1476 -0.1652
   86MOL   O23632706   7.176   2.006   3.208  0.6893 -0.0007 -0.0544
   86MOL   H23732707   7.174   1.838   3.018  2.8038  2.6847 -1.4434
   86MOL   H23832708   7.222   1.694   3.118  0.0574  0.0420  0.7963
   86MOL   H23932709   7.268   1.839   3.300 -0.2781 -0.5987  0.3577
   86MOL   H24032710   7.051   1.715   3.318 -1.7835 -1.1483 -3.0594
   86MOL   H24132711   6.983   1.805   3.187 -0.0374  3.1887 -0.0308
   86MOL   H24232712   6.959   1.988   3.348 -1.6351 -1.5158 -1.7751
   86MOL   H24332713   7.054   1.911   3.466  0.1191 -1.6352  0.0557
   86MOL   H24432714   6.800   1.817   3.333 -0.5956 -1.3764  1.1432
   86MOL   H24532715   6.868   1.734   3.472  0.0514  0.4309  0.4125
   86MOL   H24632716   6.823   1.919   3.622  0.7692 -1.5986 -0.9571
   86MOL   H24732717   6.669   1.905   3.513  0.0035 -1.7055 -0.5804
   86MOL   H24832718   6.788   2.035   3.494 -1.3584 -0.0023 -0.1203
   86MOL   C24932719   7.273   2.087   3.275 -0.3652  0.9757  0.4978
   86MOL   C25032720   7.275   2.229   3.220  0.4400  0.7063 -0.1843
   86MOL   C25132721   7.401   2.307   3.235 -0.4053 -0.3916 -0.2176
   86MOL   C25232722   7.405   2.426   3.131 -0.5518  0.0194  0.1136
   86MOL   C25332723   7.528   2.514   3.127 -0.1708  0.3958  0.1120
   86MOL   C25432724   7.522   2.651   3.049 -1.0526 -0.3175 -0.5506
   86MOL   O25532725   7.183   2.315   3.288 -0.0206 -0.3132  0.1003
   86MOL   H25632726   7.248   2.082   3.381  0.6594  1.0180  0.7446
   86MOL   H25732727   7.370   2.038   3.275 -0.8597 -0.0707  2.2868
   86MOL   H25832728   7.257   2.224   3.113 -0.3758  1.8796 -0.1126
   86MOL   H25932729   7.400   2.345   3.337  2.1971  0.2274 -0.4016
   86MOL   H26032730   7.480   2.233   3.231  0.2727  0.3187 -0.2121
   86MOL   H26132731   7.394   2.379   3.033  2.4837  0.4227 -0.4816
   86MOL   H26232732   7.319   2.491   3.147 -0.9511 -0.1381 -1.3300
   86MOL   H26332733   7.548   2.536   3.231  0.6075 -1.9064  0.4613
   86MOL   H26432734   7.611   2.457   3.085 -1.1176  0.0454 -1.3439
   86MOL   H26532735   7.450   2.723   3.089 -0.4812  0.7334 -1.4293
   86MOL   H26632736   7.498   2.638   2.944 -0.0301  0.4207 -0.8797
   86MOL   H26732737   7.623   2.690   3.055 -0.7759 -1.1977  0.9711
   86MOL   C26832738   7.045   2.278   3.276  0.3272  0.1712 -0.2278
   86MOL   C26932739   6.959   2.390   3.339  0.3589 -0.2306 -0.5205
   86MOL   C27032740   6.823   2.342   3.411 -0.4741  0.6250  0.0388
   86MOL   C27132741   6.720   2.275   3.314 -0.6851  0.4514 -0.5274
   86MOL   C27232742   6.585   2.241   3.380  0.1410  0.2899  0.0089
   86MOL   C27332743   6.485   2.174   3.290  0.5062  0.5983 -0.6468
   86MOL   O27432744   6.925   2.485   3.239 -0.4407 -0.4888  0.1101
   86MOL   H27532745   7.023   2.187   3.331 -0.2490 -0.2961 -1.2113
   86MOL   H27632746   7.031   2.256   3.170 -0.8042 -0.1013 -0.0272
   86MOL   H27732747   7.017   2.438   3.418  0.3805  0.6134 -1.0308
   86MOL   H27832748   6.850   2.277   3.494 -0.8199 -0.5726 -0.7611
   86MOL   H27932749   6.778   2.436   3.440  1.0969  1.8624 -1.4405
   86MOL   H28032750   6.716   2.341   3.227  1.4305  2.0971  0.5707
   86MOL   H28132751   6.760   2.180   3.281 -0.1102  0.0791  1.2045
   86MOL   H28232752   6.604   2.171   3.461  0.7128  0.2762 -0.1365
   86MOL   H28332753   6.534   2.333   3.409 -0.8628 -0.0323 -0.7252
   86MOL   H28432754   6.534   2.089   3.243 -1.4505 -2.0062  1.9145
   86MOL   H28532755   6.400   2.137   3.347  2.3957 -0.5670  1.4784
   86MOL   H28632756   6.444   2.238   3.211 -0.8656  1.4700  0.7436
   86MOL   C28732757   7.009   2.599   3.251  0.4112  0.4948  0.1556
   86MOL   C28832758   6.951   2.709   3.162 -0.2959  0.1008 -0.3807
   86MOL   C28932759   7.062   2.807   3.129 -0.1190 -0.2354 -0.3420
   86MOL   C29032760   7.021   2.921   3.035 -0.2054  0.4091  0.2440
   86MOL   C29132761   7.122   3.033   3.046 -0.5480 -0.4106 -0.0133
   86MOL   C29232762   7.259   3.000   3.009 -0.1873 -0.0789  0.4881
   86MOL   O29332763   6.862   2.780   3.242 -0.4096  0.0711  0.0391
   86MOL   H29432764   7.110   2.572   3.220 -0.3400 -1.8391 -0.3268
   86MOL   H29532765   7.008   2.635   3.354 -0.7965 -2.7705  1.3480
   86MOL   H29632766   6.900   2.672   3.073 -2.1307 -0.5097  0.8939
   86MOL   H29732767   7.104   2.853   3.219  0.2486  0.2950 -0.7773
   86MOL   H29832768   7.146   2.754   3.085 -2.5142 -1.3464 -3.7214
   86MOL   H29932769   7.022   2.905   2.927  0.1532 -0.0021  0.3078
   86MOL   H30032770   6.923   2.963   3.060 -0.5321  0.2723 -0.7861
   86MOL   H30132771   7.116   3.070   3.148 -0.3733 -0.1819 -0.0853
   86MOL   H30232772   7.077   3.106   2.979 -0.2459 -1.6940 -1.6685
   86MOL   H30332773   7.318   3.089   2.988 -1.7555  0.9434  0.3690
   86MOL   H30432774   7.315   2.951   3.089 -0.1128  2.4443  2.0256
   86MOL   H30532775   7.267   2.950   2.912  0.0924  1.8323 -0.4863
   86MOL   C30632776   6.731   2.728   3.230 -0.1787 -0.1661 -1.1339
   86MOL   C30732777   6.651   2.791   3.342 -0.4877 -0.3259  0.6655
   86MOL   C30832778   6.534   2.701   3.385 -0.4486  0.6320  0.2950
   86MOL   C30932779   6.470   2.743   3.517  0.0990 -0.6385  0.8066
   86MOL   C31032780   6.382   2.633   3.577 -0.5347  0.2349 -0.1842
   86MOL   C31132781   6.286   2.695   3.670  0.2870  0.1284 -0.2010
   86MOL   O31232782   6.611   2.922   3.311 -0.5641  0.2938  0.0286
   86MOL   H31332783   6.690   2.756   3.133 -0.4638  0.6624 -0.7824
   86MOL   H31432784   6.730   2.620   3.246  0.0010 -0.2164 -1.4781
   86MOL   H31532785   6.722   2.797   3.424  0.3981 -2.2928  0.0697
   86MOL   H31632786   6.557   2.594   3.391 -1.0640  0.5328  0.9546
   86MOL   H31732787   6.452   2.703   3.314 -1.0912  1.4414  1.0491
   86MOL   H31832788   6.529   2.797   3.592 -2.1548  0.9569  1.4689
   86MOL   H31932789   6.403   2.822   3.484 -0.8043 -1.7276 -0.0083
   86MOL   H32032790   6.450   2.571   3.636 -2.5953 -2.6355 -0.7511
   86MOL   H32132791   6.331   2.571   3.504 -1.2597  0.6429 -0.0297
   86MOL   H32232792   6.225   2.610   3.701 -0.0531 -0.0798 -1.4267
   86MOL   H32332793   6.334   2.739   3.757  0.7064 -0.6250 -0.0471
   86MOL   H32432794   6.215   2.776   3.653 -0.0896 -0.3000 -0.7029
   86MOL   C32532795   6.706   3.027   3.299 -0.6820 -0.3957  0.1082
   86MOL   C32632796   6.620   3.156   3.321 -0.2819 -0.0047 -0.5740
   86MOL   C32732797   6.698   3.273   3.265 -0.0409  0.3200  0.6509
   86MOL   C32832798   6.701   3.297   3.110 -0.1844  0.5811 -0.4223
   86MOL   C32932799   6.726   3.450   3.088 -0.3058  0.1126  0.1190
   86MOL   C33032800   6.726   3.482   2.935 -0.9880  0.3588 -0.6995
   86MOL   O33132801   6.597   3.182   3.461 -0.3311  0.3961 -0.1409
   86MOL   H33232802   6.744   3.024   3.196  0.1051 -0.2071  0.3936
   86MOL   H33332803   6.777   3.005   3.378 -2.0190 -3.0181  0.6529
   86MOL   H33432804   6.524   3.148   3.269 -0.0815 -1.6029 -0.7367
   86MOL   H33532805   6.651   3.363   3.305 -2.5885 -0.2590 -0.8761
   86MOL   H33632806   6.799   3.265   3.305  0.7660  1.2493 -1.1411
   86MOL   H33732807   6.767   3.230   3.055 -0.1800  0.9781 -0.8969
   86MOL   H33832808   6.600   3.281   3.073 -0.7566  1.1963  0.8202
   86MOL   H33932809   6.646   3.516   3.121 -0.2529  1.3526 -2.1294
   86MOL   H34032810   6.818   3.482   3.137 -0.2236  0.0111  0.0306
   86MOL   H34132811   6.776   3.403   2.879  1.8084  1.4292  0.2127
   86MOL   H34232812   6.627   3.484   2.890 -0.6331 -0.3028 -1.5370
   86MOL   H34332813   6.770   3.580   2.916  1.1378 -0.1731  1.2676
   86MOL   C34432814   6.531   3.086   3.545 -0.2257  0.4437 -0.6272
   86MOL   C34532815   6.474   3.150   3.667 -0.2543 -0.1009  0.4134
   86MOL   C34632816   6.350   3.076   3.720  0.3110  0.0659  0.2220
   86MOL   C34732817   6.306   3.135   3.863 -0.3675  0.8188  0.3983
   86MOL   C34832818   6.195   3.061   3.947  0.4121 -0.7438  0.1071
   86MOL   C34932819   6.174   3.129   4.079 -0.0213  0.1054 -0.4049
   86MOL   O35032820   6.571   3.147   3.771  0.1089 -0.5793  0.6358
   86MOL   H35132821   6.607   3.012   3.570  0.0104  0.1271 -2.2266
   86MOL   H35232822   6.447   3.044   3.491 -1.0303 -0.7262  1.4761
   86MOL   H35332823   6.446   3.253   3.647  0.6673 -0.4888 -3.3173
   86MOL   H35432824   6.380   2.971   3.727  2.1458  0.4244 -1.6166
   86MOL   H35532825   6.274   3.092   3.644 -0.5018 -0.4603  0.9083
   86MOL   H35632826   6.254   3.227   3.840  0.2012  1.1352  0.3562
   86MOL   H35732827   6.396   3.156   3.921  1.1912 -2.3345 -0.6911
   86MOL   H35832828   6.212   2.957   3.976 -0.8662 -1.4237 -1.4622
   86MOL   H35932829   6.100   3.067   3.895  0.8877 -0.5933 -0.7651
   86MOL   H36032830   6.136   3.231   4.071 -2.8073 -0.9553 -1.0121
   86MOL   H36132831   6.267   3.131   4.136 -0.1280  1.1288 -0.2593
   86MOL   H36232832   6.098   3.076   4.137 -2.0489  4.1245  0.8607
   86MOL   C36332833   6.654   3.263   3.786  0.3972  0.0228 -0.3713
   86MOL   C36432834   6.789   3.226   3.858 -0.1934 -0.2613  0.1373
   86MOL   C36532835   6.884   3.338   3.854  0.1536 -0.0937 -0.4293
   86MOL   C36632836   7.013   3.308   3.930  0.3219  0.4861  0.2284
   86MOL   C36732837   7.106   3.430   3.929 -0.1625 -0.6278 -0.3533
   86MOL   C36832838   7.214   3.421   4.033  0.2341  0.2230 -0.5461
   86MOL   O36932839   6.752   3.200   3.991  0.0729  0.4334 -0.3640
   86MOL   H37032840   6.596   3.345   3.830 -1.5102 -0.3254 -2.1447
   86MOL   H37132841   6.671   3.296   3.683  0.5162 -1.4041 -0.8264
   86MOL   H37232842   6.829   3.135   3.814 -0.5319 -1.3917  2.0802
   86MOL   H37332843   6.902   3.364   3.750  0.4345 -0.5422 -0.4899
   86MOL   H37432844   6.825   3.418   3.900 -1.0303 -0.2645 -1.5986
   86MOL   H37532845   6.997   3.271   4.031 -1.8067 -0.6920 -0.5124
   86MOL   H37632846   7.069   3.234   3.873  1.1322  0.9953  0.3443
   86MOL   H37732847   7.148   3.456   3.832  1.1371  0.0596  0.3785
   86MOL   H37832848   7.045   3.517   3.955  0.9810 -0.0784  0.5058
   86MOL   H37932849   7.252   3.322   4.056 -3.1369 -0.5099  2.3438
   86MOL   H38032850   7.294   3.483   3.992 -0.5669  0.2163 -2.1896
   86MOL   H38132851   7.190   3.468   4.128  1.8910 -2.5962  1.3166
   86MOL   H38232852   6.664   3.170   3.975 -0.5315  1.2521  1.3668
   87MOL     C132853   0.292   7.547   0.422  0.5207  0.4567 -0.4608
   87MOL     C232854   0.361   7.652   0.341  0.2079 -0.3666  0.2733
   87MOL     C332855   0.415   7.594   0.212  0.9478  0.1696 -0.3526
   87MOL     C432856   0.478   7.701   0.124 -0.6222  0.4283  0.0126
   87MOL     C532857   0.525   7.631   7.786 -0.3012 -0.4935 -0.3949
   87MOL     C632858   0.588   7.743   7.697 -0.1668  0.3449 -0.5204
   87MOL     O732859   0.263   7.747   0.280 -0.4457 -0.6840 -0.0260
   87MOL     H832860   0.363   7.475   0.463  0.2881  0.2942 -0.3439
   87MOL     H932861   0.220   7.495   0.359  2.2893 -1.6559 -0.7981
   87MOL    H1032862   0.430   7.710   0.402 -0.7483  0.1909  0.8459
   87MOL    H1132863   0.495   7.522   0.227 -0.2827 -1.2625 -0.5922
   87MOL    H1232864   0.326   7.561   0.160  0.7380  0.9896 -0.5271
   87MOL    H1332865   0.400   7.772   0.097 -0.2011  0.6332 -0.6977
   87MOL    H1432866   0.559   7.763   0.161 -1.6523  1.4855  0.5293
   87MOL    H1532867   0.604   7.559   0.022 -0.2498  0.1428  1.6157
   87MOL    H1632868   0.442   7.578   7.739  0.6836 -1.0890 -1.5051
   87MOL    H1732869   0.675   7.785   7.747  0.1922  0.2102 -1.0171
   87MOL    H1832870   0.623   7.712   7.598  2.1341 -1.9833  0.9736
   87MOL    H1932871   0.513   0.036   7.688 -0.6422  0.2917  2.6743
   87MOL    H2032872   0.254   7.589   0.515  2.6148 -0.4157  0.8141
   87MOL    C2132873   0.176   0.034   0.372 -0.6357 -0.3281 -0.4896
   87MOL    C2232874   0.097   0.130   0.286 -0.0555 -0.0009 -0.1845
   87MOL    C2332875   7.744   0.168   0.352  0.1187  0.3693 -0.1875
   87MOL    C2432876   7.642   0.242   0.259  0.1008 -0.2378  1.3209
   87MOL    C2532877   7.573   0.156   0.154 -0.1240  0.3910  0.0085
   87MOL    C2632878   7.488   0.250   0.067  0.5841 -0.3727 -0.6861
   87MOL    O2732879   0.177   0.246   0.274  0.3323 -0.3641 -0.3120
   87MOL    H2832880   0.100   7.757   0.420 -0.4446  0.6523  1.1231
   87MOL    H2932881   0.242   0.080   0.445 -1.6233  0.8502 -0.3238
   87MOL    H3032882   0.078   0.067   0.199  2.2617 -0.7577 -0.1960
   87MOL    H3132883   7.766   0.228   0.440 -0.5999  1.0808 -0.4833
   87MOL    H3232884   7.699   0.083   0.402 -0.1653 -0.2933 -1.5444
   87MOL    H3332885   7.691   0.325   0.209 -1.6697  0.1712  0.2278
   87MOL    H3432886   7.572   0.271   0.337  0.1421  2.5711  0.3924
   87MOL    H3532887   7.628   0.092   0.085  0.4270 -0.0747  0.8755
   87MOL    H3632888   7.508   0.086   0.208  1.0671 -0.8231 -0.1122
   87MOL    H3732889   7.406   0.280   0.132  0.2183 -1.7861 -0.4804
   87MOL    H3832890   7.447   0.207   7.761 -0.0911 -0.7937 -0.1868
   87MOL    H3932891   7.546   0.337   0.037  0.3829 -1.0086 -3.0529
   87MOL    C4032892   0.169   0.321   0.152  0.1955 -0.2892 -0.5258
   87MOL    C4132893   0.285   0.286   0.068  0.1367 -0.2049  0.3912
   87MOL    C4232894   0.400   0.386   0.078 -0.2592  0.6201 -0.3767
   87MOL    C4332895   0.524   0.352   7.775  0.2426 -0.7505 -0.3106
   87MOL    C4432896   0.620   0.471   7.756  0.0404 -0.1929 -0.4924
   87MOL    C4532897   0.754   0.438   7.685 -0.8825 -0.7129 -0.1599
   87MOL    O4632898   0.244   0.277   7.717 -0.0981  0.0626 -0.8352
   87MOL    H4732899   0.176   0.421   0.195 -0.1000 -0.3374 -0.3647
   87MOL    H4832900   0.075   0.299   0.101 -0.3167  0.3111  0.1591
   87MOL    H4932901   0.327   0.188   0.089 -0.3621 -0.4316  0.3438
   87MOL    H5032902   0.362   0.480   0.038 -0.5591  0.7414  0.1847
   87MOL    H5132903   0.421   0.422   0.179  0.0511  1.2189 -0.6538
   87MOL    H5232904   0.502   0.300   7.682 -1.8121  2.5259 -1.7326
   87MOL    H5332905   0.572   0.277   0.052 -1.1594 -1.7368 -0.3924
   87MOL    H5432906   0.584   0.556   7.699  1.9718  0.3175 -0.9809
   87MOL    H5532907   0.634   0.521   0.066  0.0860 -0.1236 -0.5359
   87MOL    H5632908   0.830   0.515   7.682 -1.3865 -0.1204  1.8071
   87MOL    H5732909   0.790   0.351   7.741 -1.3240 -0.0669  1.1510
   87MOL    H5832910   0.744   0.401   7.583  1.3200  1.0098 -1.0335
   87MOL    C5932911   0.185   0.158   7.681  0.2368  0.6309  0.2844
   87MOL    C6032912   0.161   0.141   7.526  0.3948  0.1332 -0.5801
   87MOL    C6132913   0.149   7.776   7.493 -0.1398  0.2988  0.6482
   87MOL    C6232914   0.129   7.761   7.335  0.3849 -0.1528 -1.1451
   87MOL    C6332915   0.096   7.617   7.293  0.2949  0.2631 -0.0078
   87MOL    C6432916   0.065   7.612   7.140  0.5241  0.0485 -0.0857
   87MOL    O6532917   0.038   0.193   7.487 -0.5994 -0.1729  0.1498
   87MOL    H6632918   0.091   0.139   7.731  0.1630 -1.7474 -0.6723
   87MOL    H6732919   0.243   0.071   7.713 -1.7142 -1.2554 -1.1060
   87MOL    H6832920   0.241   0.173   7.460  0.0699 -0.2073 -1.1439
   87MOL    H6932921   0.063   7.742   7.551  2.2344 -1.6726  3.1286
   87MOL    H7032922   0.240   7.721   7.517  0.0116 -0.9968 -2.6484
   87MOL    H7132923   0.215   0.014   7.279  0.4572 -0.6226 -1.3562
   87MOL    H7232924   0.048   0.038   7.298  0.0284  0.0183 -0.0811
   87MOL    H7332925   0.004   7.583   7.341  0.9451  0.8326  1.6948
   87MOL    H7432926   0.178   7.550   7.319  0.3847 -0.0276 -1.0382
   87MOL    H7532927   0.144   7.667   7.088 -0.5401  0.9627 -0.7642
   87MOL    H7632928   0.063   7.510   7.100 -0.7249 -0.5047  1.3592
   87MOL    H7732929   7.759   7.662   7.106  0.1038  0.6234  1.8711
   87MOL    C7832930   0.039   0.328   7.458  0.6246 -0.1913 -0.3623
   87MOL    C7932931   7.706   0.395   7.407 -0.2559  0.4137  0.0919
   87MOL    C8032932   7.577   0.346   7.484 -0.1071 -0.6906  0.5728
   87MOL    C8132933   7.452   0.431   7.482  0.9489  0.4711 -0.0196
   87MOL    C8232934   7.330   0.351   7.526  0.5454 -0.0245 -0.1024
   87MOL    C8332935   7.193   0.402   7.492 -0.3267 -0.5681  0.5808
   87MOL    O8432936   7.699   0.377   7.261 -0.4704  0.0539 -0.1291
   87MOL    H8532937   0.120   0.340   7.386  1.3554 -0.3507  0.4265
   87MOL    H8632938   0.060   0.372   7.555 -0.6244  0.4008 -0.3602
   87MOL    H8732939   7.715   0.500   7.436  0.8126  1.1710 -2.7980
   87MOL    H8832940   7.562   0.250   7.435 -2.1250  1.1803 -2.6467
   87MOL    H8932941   7.602   0.328   7.589 -1.0182  0.6227  1.0314
   87MOL    H9032942   7.445   0.477   7.383  0.7439 -1.3533 -0.8690
   87MOL    H9132943   7.460   0.523   7.541 -0.3489  1.4171 -1.2752
   87MOL    H9232944   7.329   0.244   7.505 -3.4431  0.2074 -1.4027
   87MOL    H9332945   7.329   0.366   7.634  2.0198 -1.4927  0.1248
   87MOL    H9432946   7.183   0.405   7.383 -0.0015 -0.4182  0.5520
   87MOL    H9532947   7.170   0.505   7.521  2.5960  0.6202 -1.0812
   87MOL    H9632948   7.124   0.325   7.525 -0.1063  0.3955  3.3941
   87MOL    C9732949   7.733   0.484   7.177 -0.2733 -0.0149 -0.3881
   87MOL    C9832950   7.739   0.440   7.034 -0.1080 -0.1201 -0.3582
   87MOL    C9932951   0.037   0.315   6.999  0.1431  0.2516 -0.2153
   87MOL   C10032952   0.174   0.303   7.079 -0.4415  0.0407  0.5821
   87MOL   C10132953   0.267   0.203   7.019  0.0675  0.0466  0.0399
   87MOL   C10232954   0.336   0.261   6.899  0.0406 -0.0204  0.1118
   87MOL   O10332955   7.607   0.425   6.987 -0.5520  0.0496  0.9214
   87MOL   H10432956   0.045   0.525   7.205 -0.9978  0.8720  0.9242
   87MOL   H10532957   7.665   0.569   7.185 -0.3658 -0.0957 -0.3181
   87MOL   H10632958   7.777   0.522   6.974  0.5782  1.6384  2.3639
   87MOL   H10732959   0.071   0.318   6.896  0.4261  1.0553 -0.1036
   87MOL   H10832960   7.759   0.229   7.018 -1.6135  1.6604  0.4257
   87MOL   H10932961   0.155   0.277   7.183 -0.9180 -0.1715  0.4436
   87MOL   H11032962   0.228   0.398   7.072 -2.6696  1.2722 -0.5172
   87MOL   H11132963   0.228   0.103   7.001  0.3952 -0.0200 -0.3214
   87MOL   H11232964   0.346   0.195   7.094  0.1565 -2.8888 -0.3004
   87MOL   H11332965   0.278   0.310   6.821 -0.5461  2.0664  1.7895
   87MOL   H11432966   0.399   0.344   6.930  0.0596  0.7166 -1.8516
   87MOL   H11532967   0.403   0.189   6.852 -0.9559 -0.3569 -0.8179
   87MOL   C11632968   7.575   0.354   6.869 -0.4922  0.6912  0.5056
   87MOL   C11732969   7.425   0.318   6.857  0.2537  0.0753 -0.7124
   87MOL   C11832970   7.328   0.426   6.812  0.5987  0.6548 -0.3535
   87MOL   C11932971   7.177   0.396   6.827 -0.3681  0.1109  0.6394
   87MOL   C12032972   7.086   0.508   6.777  0.4359  0.2610  0.2476
   87MOL   C12132973   6.935   0.462   6.795  0.0301  0.1100 -0.7756
   87MOL   O12232974   7.369   0.266   6.977 -0.1256 -0.2408  0.8400
   87MOL   H12332975   7.614   0.412   6.785  0.2553  0.2588  0.5556
   87MOL   H12432976   7.624   0.257   6.870 -0.6176  0.6227  0.1333
   87MOL   H12532977   7.425   0.242   6.779 -2.3854 -1.6402  0.8969
   87MOL   H12632978   7.354   0.516   6.868 -0.2158  0.3680  0.5121
   87MOL   H12732979   7.349   0.451   6.708 -0.2944 -3.5471 -1.6279
   87MOL   H12832980   7.153   0.376   6.931 -0.0655 -1.0051  0.5059
   87MOL   H12932981   7.151   0.310   6.765  1.1593  1.4436 -1.9667
   87MOL   H13032982   7.099   0.595   6.842 -0.3323 -1.2079  2.4217
   87MOL   H13132983   7.109   0.540   6.675 -2.1662  0.0453 -0.4487
   87MOL   H13232984   6.870   0.532   6.742  1.4862 -0.0140 -2.8039
   87MOL   H13332985   6.921   0.367   6.742  0.1035 -0.2285 -0.1901
   87MOL   H13432986   6.900   0.441   6.896  0.3703 -1.1163 -0.9030
   87MOL   C13532987   7.418   0.140   7.034  0.6743 -0.7141  0.0642
   87MOL   C13632988   7.308   0.070   7.115  0.0964 -0.2639 -0.0381
   87MOL   C13732989   7.370   0.030   7.253 -0.7573  0.0979  0.6016
   87MOL   C13832990   7.270   7.739   7.345  0.4042 -0.1960  0.3114
   87MOL   C13932991   7.338   7.700   7.475  0.5500  0.4414 -0.4202
   87MOL   C14032992   7.476   7.631   7.463  0.4066  0.0771 -0.5864
   87MOL   O14132993   7.263   7.739   7.049  0.0885  0.2509 -0.0343
   87MOL   H14232994   7.435   0.069   6.952  1.1949 -1.0189  0.4325
   87MOL   H14332995   7.496   0.170   7.104 -1.1904  1.1209  1.3815
   87MOL   H14432996   7.224   0.136   7.135  0.4718 -0.0668  0.9214
   87MOL   H14532997   7.457   7.752   7.232 -1.6652  0.2897 -4.5217
   87MOL   H14632998   7.402   0.123   7.299 -0.4616  0.6029 -0.6015
   87MOL   H14732999   7.226   7.649   7.301  1.6475 -0.4407 -0.4701
   87MOL   H14833000   7.187   0.018   7.371 -1.0593 -1.6771 -0.5515
   87MOL   H14933001   7.270   7.636   7.532 -0.5810 -0.2613 -2.4906
   87MOL   H15033002   7.339   7.785   7.543 -1.4548  0.0072  0.1958
   87MOL   H15133003   7.559   7.701   7.461  0.1373  0.3776 -1.5780
   87MOL   H15233004   7.494   7.570   7.552  0.1078 -0.1866 -0.7051
   87MOL   H15333005   7.481   7.561   7.379  0.0260 -0.4618 -0.1619
   87MOL   C15433006   7.176   7.769   6.943 -0.3942 -0.4016 -0.1434
   87MOL   C15533007   7.042   7.694   6.979 -0.2607  0.2246 -1.1239
   87MOL   C15633008   7.060   7.545   6.996 -0.3220 -0.1200  0.2766
   87MOL   C15733009   6.929   7.471   7.022 -0.2331  0.0594 -0.1852
   87MOL   C15833010   6.941   7.320   7.015  0.4613 -0.4417  0.8353
   87MOL   C15933011   6.805   7.251   7.023 -0.5414  0.6109 -0.4999
   87MOL   O16033012   6.988   7.749   7.099  0.3246  0.4323  0.3097
   87MOL   H16133013   7.221   7.717   6.859 -0.0580 -0.6115  0.1624
   87MOL   H16233014   7.171   0.086   6.909  1.1264  0.4123  1.9961
   87MOL   H16333015   6.967   7.709   6.902 -0.6514  0.3538 -0.7225
   87MOL   H16433016   7.129   7.530   7.079 -1.6685  0.9930  1.6169
   87MOL   H16533017   7.105   7.511   6.902  1.2259  0.0897  0.9204
   87MOL   H16633018   6.859   7.514   6.951  1.6912  0.7806 -1.7033
   87MOL   H16733019   6.881   7.497   7.116  0.5472 -3.4333  1.2603
   87MOL   H16833020   6.976   7.278   6.921  0.2545 -0.9223  0.9703
   87MOL   H16933021   7.008   7.289   7.095 -0.8777 -0.6685  1.8800
   87MOL   H17033022   6.729   7.283   6.952 -2.7010 -1.4243  0.8224
   87MOL   H17133023   6.765   7.248   7.125 -1.3295 -0.2277 -0.8333
   87MOL   H17233024   6.816   7.146   6.995 -0.5877  0.5587 -0.3260
   87MOL   C17333025   6.922   0.099   7.088  0.4190  0.3878 -0.7230
   87MOL   C17433026   6.903   0.171   7.219  0.0830  0.6664  0.0341
   87MOL   C17533027   6.885   0.325   7.200  0.4242  0.0113  0.1064
   87MOL   C17633028   6.840   0.401   7.329  0.0430 -0.1326 -0.2685
   87MOL   C17733029   6.835   0.557   7.311 -0.5621 -0.4923 -0.4372
   87MOL   C17833030   6.779   0.623   7.433  0.1435 -0.0624 -0.8846
   87MOL   O17933031   6.798   0.121   7.300 -0.0525 -0.2667  0.3073
   87MOL   H18033032   6.818   0.082   7.059  0.1529 -0.9071  0.8779
   87MOL   H18133033   6.983   0.169   7.031  0.2958  1.9152  0.9716
   87MOL   H18233034   7.000   0.162   7.268  0.7770 -1.8626 -1.7458
   87MOL   H18333035   6.969   0.380   7.158 -0.1336  0.5878 -0.2636
   87MOL   H18433036   6.804   0.347   7.129 -0.5637 -2.5921  0.3768
   87MOL   H18533037   6.737   0.375   7.351 -0.3236  2.0194  0.5679
   87MOL   H18633038   6.890   0.357   7.415 -1.2683  0.3378  0.7390
   87MOL   H18733039   6.937   0.594   7.301 -0.2781 -1.0534  0.3080
   87MOL   H18833040   6.786   0.578   7.216  0.9823  0.1916 -1.0979
   87MOL   H18933041   6.823   0.573   7.520 -0.9593  0.7671  0.1741
   87MOL   H19033042   6.671   0.609   7.443 -0.1150  1.8672 -0.7156
   87MOL   H19133043   6.785   0.732   7.437  0.0738 -0.1099  1.7839
   87MOL   C19233044   6.827   7.777   7.355  0.4731 -0.2679 -0.2632
   87MOL   C19333045   6.707   7.734   7.433  0.3869 -0.5883 -0.1185
   87MOL   C19433046   6.568   7.739   7.357 -0.2960  0.3954 -0.1731
   87MOL   C19533047   6.447   7.703   7.446  0.5394  0.6769 -1.2126
   87MOL   C19633048   6.322   7.678   7.374 -1.2318 -0.3175 -0.5986
   87MOL   C19733049   6.208   7.652   7.472  0.0190  0.6167  0.3386
   87MOL   O19833050   6.692   0.031   7.544  0.4631 -0.0531  0.0487
   87MOL   H19933051   6.833   7.700   7.278 -0.4061 -1.0032  0.3849
   87MOL   H20033052   6.921   7.765   7.409 -0.0817 -1.0387  0.5601
   87MOL   H20133053   6.722   7.631   7.467  1.3273 -0.4206 -0.0136
   87MOL   H20233054   6.562   0.056   7.321  0.1894 -0.3397 -2.4317
   87MOL   H20333055   6.576   7.692   7.259 -3.8993 -0.5314 -0.0876
   87MOL   H20433056   6.430   0.007   7.506  1.3080 -0.8230  1.3124
   87MOL   H20533057   6.476   7.628   7.519 -0.4080  0.8168 -0.6879
   87MOL   H20633058   6.300   7.762   7.308 -2.0020 -1.2207 -1.5175
   87MOL   H20733059   6.334   7.584   7.320 -1.8043 -0.5071 -0.3989
   87MOL   H20833060   6.188   7.738   7.536 -2.3969  0.4340 -0.1238
   87MOL   H20933061   6.110   7.641   7.425  0.5442  0.3011 -0.6887
   87MOL   H21033062   6.229   7.563   7.532 -2.6973 -0.6429 -0.5072
   87MOL   C21133063   6.756   7.772   7.659  0.8877  0.5390  0.1770
   87MOL   C21233064   6.806   0.113   7.735  0.6470  0.5251  0.2253
   87MOL   C21333065   6.917   0.082   0.052 -0.4253 -0.1531  0.3736
   87MOL   C21433066   6.985   0.203   0.122  0.4697 -0.0545  0.5581
   87MOL   C21533067   7.042   0.162   0.257  1.1798  0.4039  0.4120
   87MOL   C21633068   7.166   0.075   0.232 -0.4091 -0.0618 -0.8441
   87MOL   O21733069   6.699   0.167   0.031  0.3180 -0.5166 -0.1840
   87MOL   H21833070   6.848   7.721   7.634 -0.2438 -1.1301 -0.6875
   87MOL   H21933071   6.696   7.698   7.713  1.8247 -1.0067 -0.8673
   87MOL   H22033072   6.842   0.183   7.659 -0.2619  0.1570 -0.5471
   87MOL   H22133073   6.874   0.016   0.127 -0.4671  0.7915  1.1855
   87MOL   H22233074   6.993   0.020   0.005  0.2475  0.5707  0.4926
   87MOL   H22333075   7.065   0.247   0.062  1.0950  0.4029  1.6996
   87MOL   H22433076   6.912   0.280   0.148 -0.2185 -0.7376  0.6532
   87MOL   H22533077   7.066   0.255   0.310  1.0167  0.7350 -0.0871
   87MOL   H22633078   6.972   0.114   0.325  0.4752  1.2471  0.2862
   87MOL   H22733079   7.233   0.131   0.166 -0.5899 -0.0438 -1.0116
   87MOL   H22833080   7.131   7.769   0.184  0.9470 -0.5847 -0.8497
   87MOL   H22933081   7.215   0.067   0.330  1.2809  1.5142 -1.5268
   87MOL   C23033082   6.603   0.244   7.746 -0.6765  0.1751 -0.4166
   87MOL   C23133083   6.470   0.227   0.025 -0.1062 -0.4510 -0.3250
   87MOL   C23233084   6.441   0.078   0.055 -0.2626  0.0724  0.4659
   87MOL   C23333085   6.293   0.059   0.111 -0.3626 -0.1695 -0.1606
   87MOL   C23433086   6.256   7.711   0.169  0.0823  0.5027 -0.1546
   87MOL   C23533087   6.287   7.596   0.069  0.0657 -0.2364 -0.1990
   87MOL   O23633088   6.365   0.281   7.730  0.5207 -0.0423  0.3338
   87MOL   H23733089   6.629   0.348   7.729 -2.7270  0.5166 -1.5969
   87MOL   H23833090   6.598   0.216   7.641 -1.3179 -0.6146 -0.1854
   87MOL   H23933091   6.477   0.292   0.112 -1.5028  1.5336 -1.6600
   87MOL   H24033092   6.500   0.034   0.135 -0.1854 -0.8698 -0.1014
   87MOL   H24133093   6.458   0.019   7.750 -0.4224 -0.1883  0.6043
   87MOL   H24233094   6.230   0.084   0.026 -1.3982 -1.4072  0.2300
   87MOL   H24333095   6.259   0.134   0.183 -1.4251 -2.2540  1.5844
   87MOL   H24433096   6.309   7.703   0.264  0.2904  1.5813 -0.1724
   87MOL   H24533097   6.151   7.701   0.197  0.0743 -0.2291 -0.4415
   87MOL   H24633098   6.247   7.503   0.108 -0.8570 -0.5151 -1.7735
   87MOL   H24733099   6.395   7.579   0.063  0.1268  0.5778 -1.8769
   87MOL   H24833100   6.228   7.601   7.763  0.1916  0.1863 -0.2594
   87MOL   C24933101   6.368   0.420   7.708 -0.0847  0.0532 -0.6318
   87MOL   C25033102   6.253   0.461   7.613  0.1485 -0.6379 -0.5046
   87MOL   C25133103   6.123   0.376   7.623  0.1844 -0.6602  0.1712
   87MOL   C25233104   6.062   0.382   7.764  0.5729  0.1122 -1.0121
   87MOL   C25333105   5.954   0.277   0.004 -0.0193  0.3936  0.2624
   87MOL   C25433106   5.879   0.287   0.139 -0.0294  0.1368  0.1647
   87MOL   O25533107   6.290   0.457   7.478 -0.4129 -0.3373  0.0230
   87MOL   H25633108   6.354   0.484   0.009 -0.4974  0.4270 -0.9652
   87MOL   H25733109   6.456   0.462   7.660  0.5815 -3.7018 -2.9324
   87MOL   H25833110   6.224   0.564   7.629  0.4066 -0.8330  1.3012
   87MOL   H25933111   6.054   0.411   7.547  1.5847  1.5709 -0.1190
   87MOL   H26033112   6.152   0.277   7.588 -0.1642 -0.2533 -1.3049
   87MOL   H26133113   6.138   0.370   0.055 -0.6309 -3.2678 -0.2524
   87MOL   H26233114   6.009   0.475   7.785 -0.9992 -0.3394 -2.8519
   87MOL   H26333115   5.879   0.279   7.711 -1.5939 -3.3717  1.5261
   87MOL   H26433116   5.989   0.175   7.771  0.1394  0.8732 -2.2359
   87MOL   H26533117   5.820   0.374   0.168 -1.6389 -1.4614  1.7992
   87MOL   H26633118   5.953   0.281   0.218 -1.2229  1.4346  1.3991
   87MOL   H26733119   5.799   0.214   0.152  0.1418 -0.3191 -1.2644
   87MOL   C26833120   6.359   0.343   7.421  0.4712 -0.0048  0.1860
   87MOL   C26933121   6.313   0.325   7.273  0.4914 -0.0993 -0.3757
   87MOL   C27033122   6.163   0.308   7.277  0.0060  1.0072  0.2446
   87MOL   C27133123   6.101   0.339   7.137 -0.4702 -0.0883  0.1789
   87MOL   C27233124   5.958   0.285   7.112 -0.3707 -0.3815 -0.1386
   87MOL   C27333125   5.896   0.315   6.972 -0.4419 -0.4632  0.4443
   87MOL   O27433126   6.370   0.213   7.214 -0.3059  0.4476  0.1236
   87MOL   H27533127   6.338   0.258   7.486 -3.8580  1.0103  0.2599
   87MOL   H27633128   6.466   0.362   7.431  0.7387 -0.7471 -1.1299
   87MOL   H27733129   6.339   0.416   7.220  1.3786  0.7348  1.4506
   87MOL   H27833130   6.135   0.205   7.300  1.5591  0.7683  1.0965
   87MOL   H27933131   6.112   0.375   7.346  0.9032  3.0369 -1.0262
   87MOL   H28033132   6.095   0.448   7.127 -0.8493 -0.0469  0.8282
   87MOL   H28133133   6.168   0.306   7.057 -1.5169 -1.3771 -0.1853
   87MOL   H28233134   5.957   0.180   7.139  2.0247  0.1126  2.0793
   87MOL   H28333135   5.884   0.321   7.184  0.4351  1.4953 -0.2188
   87MOL   H28433136   5.863   0.419   6.968 -1.2847 -0.7532 -0.2159
   87MOL   H28533137   5.959   0.289   6.887  0.4653 -2.7261  1.7573
   87MOL   H28633138   5.803   0.258   6.961  0.6339 -1.6401 -3.0466
   87MOL   C28733139   6.475   0.228   7.119 -0.1550  0.1239  0.8252
   87MOL   C28833140   6.507   0.109   7.028  0.7292  0.4314  0.0140
   87MOL   C28933141   6.592   0.158   6.914 -0.0404 -0.2081 -0.1195
   87MOL   C29033142   6.650   0.047   6.825  0.5567 -0.3125  0.5391
   87MOL   C29133143   6.777   0.089   6.750  0.0824 -0.3883  0.1328
   87MOL   C29233144   6.827   7.765   6.661  0.3531 -0.3969  0.4863
   87MOL   O29333145   6.397   0.045   6.957  0.0085  0.8589  0.0179
   87MOL   H29433146   6.570   0.257   7.163 -0.0198  0.5783  0.2446
   87MOL   H29533147   6.455   0.308   7.048  2.2058  1.2853  1.4451
   87MOL   H29633148   6.556   0.028   7.081 -2.5828 -1.1599  0.7717
   87MOL   H29733149   6.549   0.230   6.844  4.1530  1.2981 -1.2891
   87MOL   H29833150   6.675   0.209   6.963 -1.4769 -0.6419  2.8496
   87MOL   H29933151   6.682   7.741   6.875  1.2003 -0.8439 -0.8060
   87MOL   H30033152   6.573   0.014   6.756 -0.5652 -1.7059  2.4152
   87MOL   H30133153   6.853   0.124   6.819  1.5338 -0.0239 -1.6134
   87MOL   H30233154   6.743   0.171   6.686 -0.6836 -1.3936 -0.7662
   87MOL   H30333155   6.760   7.720   6.588  0.0541  1.6335 -0.5228
   87MOL   H30433156   6.922   7.782   6.611  1.5697 -2.1052  2.1317
   87MOL   H30533157   6.848   7.684   6.731 -0.3519 -1.1501 -0.1572
   87MOL   C30633158   6.297   7.755   7.024 -0.7032  0.3578 -0.4117
   87MOL   C30733159   6.179   7.711   6.934 -0.2813  0.2143 -0.4343
   87MOL   C30833160   6.052   7.667   7.015 -0.2726  0.4532 -0.8500
   87MOL   C30933161   5.911   7.645   6.945 -0.8176 -0.3030 -0.8675
   87MOL   C31033162   5.854   7.761   6.878  0.1872 -0.8415  0.8178
   87MOL   C31133163   5.732   7.742   6.790 -0.3158  0.2869 -0.0706
   87MOL   O31233164   6.203   7.595   6.843 -0.1365  0.1292  0.0951
   87MOL   H31333165   6.345   7.663   7.057 -1.6221 -0.4202 -1.2013
   87MOL   H31433166   6.252   0.028   7.105 -1.8252 -0.0533 -0.7286
   87MOL   H31533167   6.155   0.008   6.868 -0.5161  2.0414  1.8520
   87MOL   H31633168   6.043   7.739   7.096  0.0275  0.7112 -1.0427
   87MOL   H31733169   6.068   7.575   7.071 -1.2729  0.7766 -0.0169
   87MOL   H31833170   5.920   7.569   6.867  0.9401 -1.7331  0.6911
   87MOL   H31933171   5.840   7.603   7.016  0.2311 -0.1686  0.2706
   87MOL   H32033172   5.936   0.007   6.814 -1.6842  0.4064 -1.0345
   87MOL   H32133173   5.836   0.045   6.961  2.9153  2.5969 -1.2997
   87MOL   H32233174   5.686   0.052   6.767 -0.4490  0.3011  0.2528
   87MOL   H32333175   5.752   7.689   6.697  2.9533  0.8696  0.2608
   87MOL   H32433176   5.661   7.674   6.839  0.1294 -0.7418 -0.8207
   87MOL   C32533177   6.289   7.606   6.734  0.5616  1.0100 -0.2908
   87MOL   C32633178   6.302   7.474   6.654 -0.8145 -0.3805  0.1998
   87MOL   C32733179   6.431   7.467   6.561  0.0084 -0.5002  0.1964
   87MOL   C32833180   6.561   7.439   6.645  0.4606 -0.2973  0.6508
   87MOL   C32933181   6.688   7.396   6.558 -0.0318 -1.0223 -0.3219
   87MOL   C33033182   6.791   7.329   6.646  0.3642 -0.5649  0.2261
   87MOL   O33133183   6.188   7.450   6.571  0.5337 -0.7246  0.4131
   87MOL   H33233184   6.385   7.652   6.758 -0.4245  2.7899  0.3669
   87MOL   H33333185   6.255   7.677   6.659 -2.5670 -1.4716 -1.3428
   87MOL   H33433186   6.308   7.388   6.721  1.0618 -0.0629  0.4667
   87MOL   H33533187   6.425   7.385   6.489 -0.2227 -0.0084 -0.3513
   87MOL   H33633188   6.432   7.549   6.489 -1.3112 -0.6242  0.0284
   87MOL   H33733189   6.579   7.530   6.702 -1.5749  0.3015  0.3536
   87MOL   H33833190   6.553   7.363   6.723 -0.7587 -1.6872 -0.7944
   87MOL   H33933191   6.649   7.330   6.481  0.5246 -1.4566 -0.2296
   87MOL   H34033192   6.737   7.486   6.520  1.4273 -1.2318  1.0355
   87MOL   H34133193   6.839   7.389   6.723  1.8496  1.2081 -1.9911
   87MOL   H34233194   6.744   7.238   6.684 -1.9075 -0.0500 -1.2859
   87MOL   H34333195   6.881   7.301   6.589  0.6433  1.1064 -0.1708
   87MOL   C34433196   6.077   7.404   6.645  0.5579 -0.0760 -0.1343
   87MOL   C34533197   5.953   7.377   6.554 -0.4881  0.1714 -0.4741
   87MOL   C34633198   5.899   7.490   6.465 -0.3680  0.0414 -0.1673
   87MOL   C34733199   5.758   7.457   6.409  0.2646  0.0482  0.2784
   87MOL   C34833200   5.724   7.545   6.286 -0.4716 -0.1201 -0.1093
   87MOL   C34933201   5.582   7.600   6.286 -0.8487  0.3530  0.1449
   87MOL   O35033202   5.964   7.253   6.481  0.3099 -0.1199 -0.0014
   87MOL   H35133203   6.049   7.472   6.725  0.3882 -0.5230  0.1869
   87MOL   H35233204   6.112   7.310   6.688  1.1751 -0.5122 -1.5253
   87MOL   H35333205   5.883   7.356   6.635 -0.3998  1.9379  0.0745
   87MOL   H35433206   5.962   7.508   6.377  0.3894 -3.0606 -0.2995
   87MOL   H35533207   5.895   7.585   6.519 -0.1873 -0.4674  0.7383
   87MOL   H35633208   5.683   7.455   6.488  0.7290 -1.3415  0.6929
   87MOL   H35733209   5.761   7.353   6.375  2.0063  0.0153  0.5175
   87MOL   H35833210   5.745   7.488   6.195  2.4118 -1.6125  1.4033
   87MOL   H35933211   5.795   7.628   6.284 -0.4953  0.0383  2.9880
   87MOL   H36033212   5.555   7.640   6.188 -0.4353  2.1060  0.7278
   87MOL   H36133213   5.570   7.675   6.364 -1.6490  2.1815 -1.6969
   87MOL   H36233214   5.508   7.522   6.304  1.1064 -1.3146  1.1699
   87MOL   C36333215   6.057   7.249   6.380  0.4965  0.1952  1.0137
   87MOL   C36433216   6.072   7.109   6.328  0.3028  0.7363 -0.5725
   87MOL   C36533217   6.091   7.008   6.437 -0.3947 -0.4033 -0.5509
   87MOL   C36633218   6.103   6.863   6.384  0.5814 -0.1063  0.2377
   87MOL   C36733219   6.130   6.771   6.501 -0.4654 -0.7996 -0.1267
   87MOL   C36833220   6.031   6.752   6.610 -0.1417  0.2554  0.2329
   87MOL   O36933221   5.958   7.085   6.254  0.4492 -0.0498  0.2323
   87MOL   H37033222   6.154   7.264   6.429 -0.0966 -0.6249  2.4654
   87MOL   H37133223   6.056   7.322   6.300 -1.4022 -0.9949 -0.0720
   87MOL   H37233224   6.156   7.115   6.259 -0.8461  0.3935 -2.0474
   87MOL   H37333225   6.167   7.022   6.514 -2.1814 -0.3269  1.2367
   87MOL   H37433226   6.002   7.016   6.500 -1.5204  0.2574 -2.1749
   87MOL   H37533227   6.014   6.833   6.329 -0.4958  2.6095  0.4545
   87MOL   H37633228   6.179   6.854   6.306 -0.2098  1.6042 -0.7574
   87MOL   H37733229   6.154   6.681   6.444 -2.7925 -0.5391 -1.5608
   87MOL   H37833230   6.228   6.792   6.544  0.0724  1.4072 -2.3131
   87MOL   H37933231   6.051   6.662   6.669 -1.3808  0.9184  1.6855
   87MOL   H38033232   6.019   6.836   6.678 -0.7370 -0.8502  1.5091
   87MOL   H38133233   5.931   6.750   6.568 -1.5422  0.5496  3.4360
   87MOL   H38233234   5.888   7.109   6.312 -0.3954  0.5114 -0.9971
   88MOL     C133235   7.378   2.304   0.551 -0.0909  0.0244  0.6463
   88MOL     C233236   7.397   2.401   0.670  0.0468 -0.3282  0.0797
   88MOL     C333237   7.504   2.503   0.638  0.3831 -0.5582 -0.7046
   88MOL     C433238   7.535   2.590   0.758  0.3927 -0.1000 -0.3223
   88MOL     C533239   7.670   2.652   0.741 -0.3657 -0.1459 -0.3451
   88MOL     C633240   7.707   2.758   0.849  0.5373  0.7784 -0.1882
   88MOL     O733241   7.277   2.473   0.693  0.1967  0.0774 -0.2905
   88MOL     H833242   7.298   2.331   0.482  0.2097 -3.2187 -1.0728
   88MOL     H933243   7.363   2.199   0.575 -3.7571  0.1181 -0.9191
   88MOL    H1033244   7.425   2.354   0.765  0.7684 -1.5656 -0.7307
   88MOL    H1133245   7.598   2.457   0.606 -0.0650 -1.0154 -1.3877
   88MOL    H1233246   7.482   2.552   0.543  2.1289 -2.7162 -2.2994
   88MOL    H1333247   7.466   2.675   0.759  0.6369  0.1169 -1.4254
   88MOL    H1433248   7.534   2.536   0.853  1.9806 -1.0062 -0.8080
   88MOL    H1533249   7.736   2.566   0.728 -0.1470 -0.1121  0.5515
   88MOL    H1633250   7.670   2.709   0.647  2.3445 -1.2692 -1.0830
   88MOL    H1733251   7.694   2.721   0.951 -1.2697  2.2600  0.1459
   88MOL    H1833252   0.023   2.798   0.843  1.5027 -1.7655 -1.8527
   88MOL    H1933253   7.650   2.850   0.835 -1.5943 -0.7366 -1.8960
   88MOL    H2033254   7.471   2.285   0.499 -0.5436 -1.1006  0.2401
   88MOL    C2133255   7.160   2.395   0.738 -0.0807  0.0065  0.2962
   88MOL    C2233256   7.165   2.378   0.888 -0.0210  0.1521  0.4111
   88MOL    C2333257   7.020   2.380   0.952  0.7485 -0.6074  0.0269
   88MOL    C2433258   6.991   2.516   1.016  0.1633 -0.2486  0.4692
   88MOL    C2533259   6.869   2.513   1.108  0.3599  0.6766 -0.0097
   88MOL    C2633260   6.816   2.655   1.138  0.1093 -0.1346  0.4406
   88MOL    O2733261   7.214   2.252   0.920 -0.5427  0.6552 -0.8484
   88MOL    H2833262   7.075   2.453   0.704  0.4445  0.8826  0.4612
   88MOL    H2933263   7.149   2.299   0.686  1.6857  0.1488 -0.3777
   88MOL    H3033264   7.234   2.450   0.932  1.3035 -0.2191 -1.0243
   88MOL    H3133265   7.032   2.311   1.036  0.5719 -2.6944 -1.6035
   88MOL    H3233266   6.938   2.344   0.889  1.6196 -0.5995 -1.1263
   88MOL    H3333267   6.967   2.589   0.938  1.3188  1.1258  1.3604
   88MOL    H3433268   7.082   2.553   1.063 -0.1666  1.4182 -0.1608
   88MOL    H3533269   6.783   2.453   1.079 -0.4721  0.9695  1.8568
   88MOL    H3633270   6.892   2.474   1.207 -1.8893  0.3702  0.4197
   88MOL    H3733271   6.785   2.708   1.048  0.4394  1.0436  1.0121
   88MOL    H3833272   6.885   2.715   1.196  2.3333 -0.4154 -1.8489
   88MOL    H3933273   6.728   2.644   1.202  0.0652 -4.3499 -0.1588
   88MOL    C4033274   7.326   2.252   1.012  1.1395  0.2748 -0.2967
   88MOL    C4133275   7.370   2.106   1.055 -0.5279 -0.4843 -0.3273
   88MOL    C4233276   7.444   2.097   1.189 -0.9123 -0.3851  0.0225
   88MOL    C4333277   7.496   1.957   1.231  0.3022  0.2128  0.2839
   88MOL    C4433278   7.574   1.952   1.358  1.0019  0.5636 -0.4536
   88MOL    C4533279   7.610   1.817   1.398  0.4232  0.1819 -0.0262
   88MOL    O4633280   7.458   2.060   0.956 -0.3287  0.5934 -0.1212
   88MOL    H4733281   7.289   2.305   1.100  1.5755  2.4344 -1.3852
   88MOL    H4833282   7.410   2.311   0.977  1.5718  0.6125  1.2676
   88MOL    H4933283   7.285   2.039   1.065 -1.9993  1.2530 -0.8473
   88MOL    H5033284   7.527   2.167   1.186 -2.5777  1.6326  0.0459
   88MOL    H5133285   7.383   2.135   1.271  1.0683  1.0103  0.8615
   88MOL    H5233286   7.551   1.914   1.147  0.2811  0.3734  0.1876
   88MOL    H5333287   7.407   1.898   1.249 -0.6519  0.9226 -1.8961
   88MOL    H5433288   7.667   2.009   1.353 -0.2654  2.7182 -0.2066
   88MOL    H5533289   7.507   1.991   1.435  1.4872 -1.0594  0.8280
   88MOL    H5633290   7.667   1.767   1.319 -2.7135 -0.1055 -2.2197
   88MOL    H5733291   7.668   1.812   1.490  1.5085 -2.4520 -0.8038
   88MOL    H5833292   7.516   1.764   1.410  0.1406  0.8994  1.0217
   88MOL    C5933293   7.396   2.008   0.841  0.2090  0.0936  0.2113
   88MOL    C6033294   7.506   1.958   0.743  0.4453  0.1879 -0.2929
   88MOL    C6133295   7.453   1.877   0.625  0.1398 -0.6647 -0.0740
   88MOL    C6233296   7.565   1.824   0.536 -0.1801 -0.4002 -0.2226
   88MOL    C6333297   7.499   1.754   0.416 -0.4225  0.0199 -0.4536
   88MOL    C6433298   7.594   1.707   0.306  0.2549 -0.0192 -0.3858
   88MOL    O6533299   7.580   2.068   0.696 -0.3131 -0.2899 -0.3518
   88MOL    H6633300   7.335   2.081   0.787 -0.6037 -2.1194 -1.9333
   88MOL    H6733301   7.318   1.934   0.857  0.5028 -0.2417  0.0900
   88MOL    H6833302   7.573   1.893   0.799  0.1036 -0.4452 -0.6185
   88MOL    H6933303   7.395   1.943   0.561  0.0476 -1.0586 -0.3998
   88MOL    H7033304   7.380   1.799   0.646 -0.0958 -0.9664 -1.9367
   88MOL    H7133305   7.631   1.761   0.596 -0.9827 -2.6707 -1.6615
   88MOL    H7233306   7.621   1.905   0.491  1.6015 -1.7260 -0.4338
   88MOL    H7333307   7.420   1.813   0.368  0.6247  1.5033 -0.3926
   88MOL    H7433308   7.458   1.660   0.454  0.1117  0.2257  0.6547
   88MOL    H7533309   7.678   1.653   0.351 -0.1043 -1.8272 -1.7835
   88MOL    H7633310   7.546   1.646   0.229 -2.0181  0.4521  0.6405
   88MOL    H7733311   7.638   1.786   0.245 -0.6561 -0.2281 -1.3280
   88MOL    C7833312   7.711   2.073   0.748 -0.6258  0.9254  0.0037
   88MOL    C7933313   7.766   2.210   0.722 -0.9368 -0.7955  0.4434
   88MOL    C8033314   0.077   2.209   0.606 -0.3684  0.1716 -0.2532
   88MOL    C8133315   0.142   2.346   0.573  0.8669  0.2153  0.1045
   88MOL    C8233316   0.273   2.327   0.495  0.0534  0.0615 -0.3076
   88MOL    C8333317   0.351   2.453   0.505 -0.3662 -0.1544 -0.5177
   88MOL    O8433318   0.034   2.265   0.839 -0.1516 -0.2984 -0.0871
   88MOL    H8533319   7.765   1.998   0.690 -1.1661 -0.7732  1.6523
   88MOL    H8633320   7.715   2.044   0.853 -0.0353  0.6747 -0.0885
   88MOL    H8733321   7.680   2.272   0.693 -0.9752 -0.9656  0.1951
   88MOL    H8833322   0.153   2.133   0.622 -1.7384 -0.8240  1.6811
   88MOL    H8933323   0.027   2.167   0.518  1.1472 -0.9353 -0.6083
   88MOL    H9033324   0.173   2.392   0.667 -0.0619 -0.1812  0.6111
   88MOL    H9133325   0.065   2.412   0.532  0.3682 -0.7679 -0.5695
   88MOL    H9233326   0.331   2.241   0.530 -0.9650 -1.0487 -1.3266
   88MOL    H9333327   0.252   2.306   0.390 -1.1128 -1.0366  0.1383
   88MOL    H9433328   0.398   2.452   0.603  0.8913  0.0553 -1.1140
   88MOL    H9533329   0.295   2.546   0.509  1.1143  0.6684  2.3123
   88MOL    H9633330   0.439   2.448   0.440  1.5042  0.2463  1.9298
   88MOL    C9733331   7.729   2.298   0.941 -0.3565  0.4271 -0.0779
   88MOL    C9833332   0.020   2.343   1.059 -0.5620 -0.0401 -0.3789
   88MOL    C9933333   7.699   2.412   1.150 -0.0273  0.2204  0.2348
   88MOL   C10033334   7.768   2.516   1.248 -0.3036  0.0205 -0.5162
   88MOL   C10133335   7.667   2.588   1.341  0.1912 -0.2374 -0.2874
   88MOL   C10233336   7.735   2.676   1.445  0.1309  0.2720 -0.5589
   88MOL   O10333337   0.080   2.243   1.132  0.2836 -0.1133  0.2155
   88MOL   H10433338   7.676   2.213   0.986 -0.3452  1.0715  1.1714
   88MOL   H10533339   7.657   2.367   0.897  2.0980  1.7575 -2.1403
   88MOL   H10633340   0.093   2.418   1.027  0.5394 -0.8440  0.2313
   88MOL   H10733341   7.657   2.332   1.210  0.1703 -0.5545 -0.6591
   88MOL   H10833342   7.629   2.470   1.090 -0.3987 -2.2142 -1.7600
   88MOL   H10933343   0.049   2.588   1.201  2.2166 -1.0705  1.2960
   88MOL   H11033344   0.052   2.466   1.315 -0.6744 -0.0892 -0.2145
   88MOL   H11133345   7.595   2.527   1.397 -1.3258  1.5264 -0.2665
   88MOL   H11233346   7.600   2.647   1.279 -0.9393  0.6572  1.7200
   88MOL   H11333347   7.663   2.730   1.506 -0.6962 -0.6598 -0.6999
   88MOL   H11433348   0.018   2.622   1.509  0.3815 -1.2465 -2.0787
   88MOL   H11533349   0.013   2.745   1.389  0.3579  0.4514 -0.0792
   88MOL   C11633350   0.190   2.167   1.074  0.5336 -0.2024  0.1779
   88MOL   C11733351   0.308   2.259   1.020  0.5406 -0.3012  0.2982
   88MOL   C11833352   0.401   2.177   0.929  0.7435 -0.6303  0.5093
   88MOL   C11933353   0.540   2.245   0.890  0.3202 -0.0558 -0.5178
   88MOL   C12033354   0.597   2.203   0.749  0.0101  0.6564 -0.2052
   88MOL   C12133355   0.624   2.052   0.743  0.2247  0.1277  0.1367
   88MOL   O12233356   0.396   2.308   1.124 -0.6442  0.0198  0.0522
   88MOL   H12333357   0.230   2.089   1.139 -0.2150  0.1855  1.1033
   88MOL   H12433358   0.152   2.101   0.996  2.3620 -1.9266  0.6979
   88MOL   H12533359   0.276   2.341   0.956 -1.2132  0.2857  1.8803
   88MOL   H12633360   0.416   2.084   0.983  1.5811 -0.3747  0.7211
   88MOL   H12733361   0.343   2.166   0.837  1.5895 -1.0452  0.0240
   88MOL   H12833362   0.614   2.238   0.970 -1.2835 -0.4978  0.9501
   88MOL   H12933363   0.521   2.352   0.880  1.2734  0.2616  0.7773
   88MOL   H13033364   0.524   2.239   0.676  1.2257  2.3483 -0.6272
   88MOL   H13133365   0.684   2.267   0.736  0.8048  0.0872  2.0227
   88MOL   H13233366   0.664   2.023   0.645  1.8488  1.9369  0.2202
   88MOL   H13333367   0.705   2.031   0.813  0.3709  1.8224  0.4951
   88MOL   H13433368   0.538   1.989   0.764  0.8958 -0.8099  0.1146
   88MOL   C13533369   0.352   2.415   1.207 -0.2316 -0.3816  0.3486
   88MOL   C13633370   0.459   2.437   1.317 -0.3636 -0.0708 -0.0990
   88MOL   C13733371   0.418   2.541   1.415  0.2578 -0.8233  0.2226
   88MOL   C13833372   0.420   2.685   1.356 -0.2111 -0.3685 -0.1446
   88MOL   C13933373   0.350   2.783   1.437 -1.2220  0.0255 -0.2020
   88MOL   C14033374   0.379   2.922   1.396  0.3807 -0.7997  0.4277
   88MOL   O14133375   0.583   2.472   1.253  0.0055  0.6047  0.0340
   88MOL   H14233376   0.330   2.505   1.151  1.1458 -1.2545 -1.6508
   88MOL   H14333377   0.259   2.392   1.259 -0.1353  3.2580  2.2692
   88MOL   H14433378   0.476   2.341   1.367  3.3316 -0.2759 -1.5789
   88MOL   H14533379   0.319   2.503   1.437  0.5280 -2.3493 -1.0666
   88MOL   H14633380   0.483   2.524   1.500 -1.0810 -0.1659  1.3972
   88MOL   H14733381   0.372   2.690   1.258 -1.0481  0.7713  0.3163
   88MOL   H14833382   0.524   2.716   1.344 -0.1673 -0.9832 -1.4749
   88MOL   H14933383   0.387   2.766   1.538  1.1300  0.3545 -0.9855
   88MOL   H15033384   0.243   2.763   1.430 -1.0986 -1.2708  1.2916
   88MOL   H15133385   0.346   2.996   1.468  0.7281  1.0120 -1.2202
   88MOL   H15233386   0.484   2.939   1.371 -0.3108 -0.0977 -2.1778
   88MOL   H15333387   0.322   2.946   1.306 -2.0607 -0.0313  2.1103
   88MOL   C15433388   0.669   2.359   1.232 -0.5472 -0.4727  0.3850
   88MOL   C15533389   0.774   2.332   1.340 -0.2240 -0.1878 -0.3816
   88MOL   C15633390   0.859   2.203   1.317 -0.4381  0.1173  0.3986
   88MOL   C15733391   0.945   2.206   1.187 -0.1211 -0.5401 -0.1369
   88MOL   C15833392   0.982   2.067   1.136  0.6908  0.2758  0.1472
   88MOL   C15933393   1.034   2.060   0.994  0.6432  0.8805  0.3051
   88MOL   O16033394   0.878   2.436   1.338  0.2056  0.3004 -0.0769
   88MOL   H16133395   0.728   2.390   1.146  0.1456  0.9083  1.3329
   88MOL   H16233396   0.612   2.277   1.188  0.2838 -0.4704 -0.6958
   88MOL   H16333397   0.727   2.318   1.437  0.7349 -2.5943 -0.2494
   88MOL   H16433398   0.792   2.116   1.319  1.1409 -1.1192  0.6311
   88MOL   H16533399   0.923   2.178   1.402  0.7519  0.3928 -0.3964
   88MOL   H16633400   1.038   2.263   1.191 -0.0008 -0.6108 -1.5976
   88MOL   H16733401   0.884   2.251   1.107 -0.4330 -3.2730 -1.4812
   88MOL   H16833402   1.041   2.017   1.212  0.4390  0.1939  0.2912
   88MOL   H16933403   0.891   2.006   1.141  1.8713 -1.4717  0.7507
   88MOL   H17033404   1.122   2.124   0.986  0.1295  1.5275 -0.2279
   88MOL   H17133405   0.963   2.099   0.921 -0.0893 -2.0825 -0.5936
   88MOL   H17233406   1.071   1.961   0.969  1.7094  1.1987  0.6041
   88MOL   C17333407   0.827   2.564   1.378 -0.3586 -0.1914  0.9288
   88MOL   C17433408   0.953   2.630   1.452 -0.4287 -0.0174  0.7124
   88MOL   C17533409   0.917   2.775   1.463 -0.3718  0.2451  0.0736
   88MOL   C17633410   1.029   2.868   1.505  0.1629 -0.2838 -0.1831
   88MOL   C17733411   0.974   3.008   1.521 -0.7272 -0.3399  0.5206
   88MOL   C17833412   1.091   3.112   1.540  0.0900 -0.2826 -0.0908
   88MOL   O17933413   0.967   2.575   1.581 -0.1305 -0.1425 -0.7521
   88MOL   H18033414   0.751   2.567   1.456 -0.4737 -0.3268  0.8220
   88MOL   H18133415   0.796   2.622   1.292  1.1580 -1.6608 -0.6682
   88MOL   H18233416   1.048   2.619   1.400 -1.7628 -0.6127 -1.6575
   88MOL   H18333417   0.872   2.823   1.376  2.6958  1.7202 -0.7723
   88MOL   H18433418   0.843   2.775   1.542 -0.1007 -0.2960  0.3336
   88MOL   H18533419   1.085   2.842   1.595  0.9470  0.9276 -0.3074
   88MOL   H18633420   1.102   2.879   1.425  0.1022  3.4028  0.1536
   88MOL   H18733421   0.919   3.028   1.429 -0.6892 -0.7249  0.4095
   88MOL   H18833422   0.894   3.015   1.595 -0.2633 -1.0310  1.0980
   88MOL   H18933423   1.149   3.094   1.631 -0.5619 -0.6107  0.2689
   88MOL   H19033424   1.053   3.214   1.545 -2.1264 -0.9936 -1.5365
   88MOL   H19133425   1.159   3.106   1.456 -0.1652  0.6824 -0.3640
   88MOL   C19233426   1.025   2.438   1.576 -0.2756 -0.3500 -0.2644
   88MOL   C19333427   1.123   2.429   1.698 -0.3182  0.0564 -0.3179
   88MOL   C19433428   1.184   2.287   1.704 -0.1565  0.2722 -0.5479
   88MOL   C19533429   1.294   2.264   1.807 -0.3447  0.4690  0.3153
   88MOL   C19633430   1.404   2.161   1.766  0.0447 -0.5714  0.2604
   88MOL   C19733431   1.532   2.179   1.855 -0.0591  0.3668 -0.2835
   88MOL   O19833432   1.063   2.461   1.821 -0.3497  0.5492  0.5384
   88MOL   H19933433   0.961   2.350   1.583  3.5464 -3.1603  1.3478
   88MOL   H20033434   1.089   2.425   1.489  0.5295 -1.2884  0.4435
   88MOL   H20133435   1.206   2.495   1.675  0.9657 -1.1398  0.7947
   88MOL   H20233436   1.113   2.206   1.721  0.4742 -0.4317 -1.2314
   88MOL   H20333437   1.233   2.269   1.609  0.8245  1.2718 -0.2372
   88MOL   H20433438   1.253   2.233   1.903 -0.9116 -0.6692 -0.2876
   88MOL   H20533439   1.351   2.355   1.828 -0.5325  0.2884  1.6546
   88MOL   H20633440   1.355   2.064   1.770 -2.3913  0.6520  0.8222
   88MOL   H20733441   1.431   2.184   1.663 -1.7461 -1.8458 -0.5225
   88MOL   H20833442   1.572   2.281   1.850 -1.6538  0.9349 -1.8423
   88MOL   H20933443   1.506   2.167   1.960  0.0608  0.7005 -0.2145
   88MOL   H21033444   1.605   2.099   1.836 -0.5804 -0.3627  0.7655
   88MOL   C21133445   1.097   2.591   1.872  0.4071  0.9925 -0.7040
   88MOL   C21233446   1.000   2.624   1.982 -0.0197  0.7877  0.1204
   88MOL   C21333447   0.995   2.775   1.997  0.1410 -0.3279  0.2880
   88MOL   C21433448   0.909   2.825   2.114  0.2801  0.1740  0.6433
   88MOL   C21533449   0.908   2.975   2.107  0.5391  0.3906 -0.2628
   88MOL   C21633450   0.812   3.040   2.203  0.4235  0.7079 -0.2434
   88MOL   O21733451   1.030   2.568   2.110 -0.4478  0.3215  0.3608
   88MOL   H21833452   1.078   2.660   1.790 -2.3470  2.3143  0.9303
   88MOL   H21933453   1.200   2.618   1.894  0.2054  0.7077  0.6611
   88MOL   H22033454   0.897   2.600   1.955  0.3537  1.1077 -1.6196
   88MOL   H22133455   1.094   2.819   2.007 -0.9240  1.9295  1.4858
   88MOL   H22233456   0.948   2.808   1.904 -1.3432 -1.2617  0.6837
   88MOL   H22333457   0.807   2.787   2.118  1.0028 -1.7867  0.8015
   88MOL   H22433458   0.964   2.787   2.200  2.2353  0.2409 -0.5427
   88MOL   H22533459   1.013   2.989   2.130  0.8644  0.2875 -1.6001
   88MOL   H22633460   0.878   3.019   2.011 -2.7588  0.7373  0.8708
   88MOL   H22733461   0.722   2.978   2.215  1.2213 -0.4637 -0.1956
   88MOL   H22833462   0.780   3.138   2.167 -4.3732  0.2277  2.2520
   88MOL   H22933463   0.853   3.066   2.300 -0.0528 -1.5319  0.6032
   88MOL   C23033464   1.051   2.423   2.103 -0.2571 -0.2228  0.2920
   88MOL   C23133465   1.057   2.363   2.246 -0.0030  0.1857  0.6842
   88MOL   C23233466   1.112   2.216   2.252 -0.1131  0.2528 -0.8550
   88MOL   C23333467   1.125   2.161   2.397 -0.5950  0.3393  0.4596
   88MOL   C23433468   1.175   2.014   2.411  0.4728  0.2724  0.6519
   88MOL   C23533469   1.178   1.952   2.557  0.2834  0.3705 -0.1586
   88MOL   O23633470   0.925   2.353   2.285  0.1981  0.0507 -0.3914
   88MOL   H23733471   0.978   2.371   2.041  0.8272 -1.5182  0.0651
   88MOL   H23833472   1.151   2.409   2.062 -0.2626 -1.5805  0.6958
   88MOL   H23933473   1.125   2.423   2.307 -2.8433  1.2949  2.8692
   88MOL   H24033474   1.210   2.218   2.204  0.1748  1.1376 -0.2482
   88MOL   H24133475   1.052   2.157   2.182  2.1473 -0.6840 -2.0656
   88MOL   H24233476   1.025   2.174   2.439 -0.2937  2.9457  0.4257
   88MOL   H24333477   1.176   2.226   2.467 -0.0376 -0.0968  0.4580
   88MOL   H24433478   1.112   1.941   2.359  0.7426  1.2488 -1.0701
   88MOL   H24533479   1.275   2.010   2.367  0.5389 -2.3237  0.9445
   88MOL   H24633480   1.078   1.963   2.598  1.0781  1.0815  1.6188
   88MOL   H24733481   1.250   2.002   2.621 -1.7743  2.1444  0.8506
   88MOL   H24833482   1.192   1.844   2.553  1.7128  0.5538 -0.2651
   88MOL   C24933483   0.859   2.458   2.346  0.2900  0.2154 -0.1735
   88MOL   C25033484   0.712   2.433   2.356  0.5932  0.0025  0.3630
   88MOL   C25133485   0.634   2.558   2.365 -0.3273 -0.2511 -0.0282
   88MOL   C25233486   0.623   2.629   2.499 -0.4274  0.5287 -0.5037
   88MOL   C25333487   0.568   2.771   2.488 -0.4735  0.0979 -0.0987
   88MOL   C25433488   0.576   2.847   2.625  0.7626 -0.8238  0.2985
   88MOL   O25533489   0.665   2.341   2.454  0.0047  0.3039  0.1216
   88MOL   H25633490   0.905   2.467   2.444 -0.9295 -1.1146  0.5270
   88MOL   H25733491   0.877   2.554   2.297 -0.9649  0.1409 -0.7864
   88MOL   H25833492   0.661   2.395   2.268 -3.2006  0.5807  2.2279
   88MOL   H25933493   0.674   2.627   2.291 -0.0999 -0.8797 -0.4924
   88MOL   H26033494   0.532   2.546   2.327 -0.7520  3.2331 -0.1881
   88MOL   H26133495   0.558   2.577   2.568  1.7173 -0.8416  0.5491
   88MOL   H26233496   0.724   2.636   2.541 -0.4148  1.0290 -0.6090
   88MOL   H26333497   0.633   2.826   2.420  0.3307 -0.1337  0.4772
   88MOL   H26433498   0.470   2.771   2.439 -0.4325 -1.0148 -0.1819
   88MOL   H26533499   0.679   2.853   2.661  0.2221 -2.4476  2.2547
   88MOL   H26633500   0.507   2.798   2.694 -1.7975  2.2918  0.0888
   88MOL   H26733501   0.547   2.952   2.617  1.7449 -0.3702  2.3684
   88MOL   C26833502   0.707   2.205   2.453 -0.8995 -0.7873  0.4036
   88MOL   C26933503   0.618   2.119   2.539  0.2932 -0.0634 -0.7664
   88MOL   C27033504   0.684   1.979   2.577  0.2155 -0.7945  0.7799
   88MOL   C27133505   0.598   1.890   2.673  0.3501 -0.3791  0.3191
   88MOL   C27233506   0.677   1.771   2.722 -0.4363 -0.2430 -0.5699
   88MOL   C27333507   0.612   1.701   2.840 -0.4717 -0.2147 -0.1078
   88MOL   O27433508   0.499   2.081   2.474  0.3390 -0.0979 -0.2551
   88MOL   H27533509   0.812   2.196   2.480 -0.7237  0.6513  0.2548
   88MOL   H27633510   0.692   2.172   2.350  0.3589  0.5579 -0.2298
   88MOL   H27733511   0.602   2.172   2.634 -1.9307 -0.4066 -0.9090
   88MOL   H27833512   0.686   1.911   2.492  0.3693 -1.2040  1.1134
   88MOL   H27933513   0.784   1.999   2.614  0.9276 -1.2024 -0.8719
   88MOL   H28033514   0.567   1.945   2.762  0.1887  0.7767 -0.4373
   88MOL   H28133515   0.509   1.862   2.617 -0.5449  1.1913  0.9059
   88MOL   H28233516   0.685   1.705   2.636  1.0149  1.1790 -1.5606
   88MOL   H28333517   0.783   1.792   2.732  0.2348 -2.1204 -3.3187
   88MOL   H28433518   0.694   1.639   2.876  0.0299 -0.0701 -0.9732
   88MOL   H28533519   0.574   1.766   2.919 -0.7009 -0.3830 -0.0803
   88MOL   H28633520   0.535   1.631   2.809 -1.0934  0.8240 -0.9507
   88MOL   C28733521   0.395   2.182   2.485 -0.2956  0.8341  0.3009
   88MOL   C28833522   0.375   2.253   2.353 -0.1106 -0.3574 -0.1088
   88MOL   C28933523   0.305   2.389   2.394  0.0432  0.2953  0.3342
   88MOL   C29033524   0.260   2.461   2.271 -0.0050  0.0803 -0.3728
   88MOL   C29133525   0.231   2.617   2.289  0.3356  0.2887  0.2696
   88MOL   C29233526   0.142   2.648   2.415 -0.6044  0.2071  0.5146
   88MOL   O29333527   0.292   2.190   2.263 -0.0087  0.3343  0.4501
   88MOL   H29433528   0.412   2.249   2.569 -1.1533  2.8472 -1.1082
   88MOL   H29533529   0.307   2.126   2.516  0.7169 -0.1297  1.4942
   88MOL   H29633530   0.471   2.276   2.308  0.9549  1.3568  2.8831
   88MOL   H29733531   0.216   2.365   2.452 -0.7133 -2.8552 -1.9689
   88MOL   H29833532   0.377   2.448   2.451 -2.2792  2.2316  1.3528
   88MOL   H29933533   0.339   2.462   2.196 -0.0763  2.4047 -0.4357
   88MOL   H30033534   0.185   2.412   2.208 -1.9964  1.5918  0.7747
   88MOL   H30133535   0.200   2.681   2.206  2.1971  3.4479  1.9149
   88MOL   H30233536   0.330   2.651   2.320  0.7350 -1.1669  0.6043
   88MOL   H30333537   0.037   2.623   2.398 -0.8568  0.3888  1.7269
   88MOL   H30433538   0.166   2.592   2.506 -1.8211  1.1727  1.4478
   88MOL   H30533539   0.145   2.755   2.436 -0.5132  0.4404 -0.6483
   88MOL   C30633540   0.359   2.091   2.185 -0.5059  0.5464  0.0121
   88MOL   C30733541   0.289   2.058   2.056 -0.4328 -0.8592  0.0647
   88MOL   C30833542   0.334   1.929   1.998  0.8341 -0.1028 -0.6704
   88MOL   C30933543   0.269   1.893   1.860 -0.1289  0.5953 -0.6561
   88MOL   C31033544   0.316   1.761   1.806 -0.1790  0.4346  0.5950
   88MOL   C31133545   0.300   1.732   1.654 -0.2134  0.4684  0.4394
   88MOL   O31233546   0.328   2.159   1.961 -0.1428 -0.0516  0.0974
   88MOL   H31333547   0.460   2.121   2.158 -0.4687  0.2239 -0.1988
   88MOL   H31433548   0.374   2.005   2.251 -0.4830  0.9509  0.5429
   88MOL   H31533549   0.181   2.063   2.075 -0.1828  2.0499  1.0337
   88MOL   H31633550   0.316   1.854   2.075  1.5985  0.0147 -0.3701
   88MOL   H31733551   0.443   1.938   1.990  1.0485 -1.6516  0.4085
   88MOL   H31833552   0.161   1.899   1.875  0.2178  0.8131  1.9364
   88MOL   H31933553   0.291   1.972   1.789  1.8091  1.5213  0.9152
   88MOL   H32033554   0.272   1.675   1.857  1.3116 -0.5090  0.3072
   88MOL   H32133555   0.420   1.748   1.833  0.7248  2.2976 -1.8397
   88MOL   H32233556   0.194   1.740   1.630 -0.1726 -1.9851 -0.7268
   88MOL   H32333557   0.352   1.804   1.590  4.2472 -2.0517  1.0474
   88MOL   H32433558   0.337   1.637   1.616 -1.2326  0.2626 -0.0436
   88MOL   C32533559   0.222   2.250   1.929  0.4975 -0.1467  0.1323
   88MOL   C32633560   0.274   2.381   1.865  0.1507 -0.2426 -0.5006
   88MOL   C32733561   0.158   2.492   1.870 -0.4943 -0.1516  0.4205
   88MOL   C32833562   0.180   2.621   1.783 -0.6014  0.6726 -0.0363
   88MOL   C32933563   0.096   2.736   1.828  0.7934  0.3355  0.5322
   88MOL   C33033564   0.117   2.849   1.727 -0.0415  0.4302 -0.3768
   88MOL   O33133565   0.293   2.367   1.727 -0.0942 -0.1354 -0.2675
   88MOL   H33233566   0.162   2.287   2.012  0.7831  2.1806 -0.6382
   88MOL   H33333567   0.150   2.194   1.871 -0.5760  1.0338  0.2996
   88MOL   H33433568   0.370   2.405   1.909  0.5586 -0.5726 -1.2077
   88MOL   H33533569   0.066   2.443   1.839 -0.7451  0.5975 -0.0444
   88MOL   H33633570   0.150   2.530   1.972 -1.1835  0.9007 -0.0108
   88MOL   H33733571   0.287   2.641   1.790 -0.1291 -1.0255 -1.8653
   88MOL   H33833572   0.171   2.611   1.675 -0.0429  1.4696 -0.1609
   88MOL   H33933573   7.775   2.711   1.834  1.3029 -1.5088  2.0104
   88MOL   H34033574   0.124   2.768   1.928  1.6648 -1.4160  0.8668
   88MOL   H34133575   0.087   2.800   1.635 -2.2144  1.9378 -0.5061
   88MOL   H34233576   0.054   2.936   1.745  0.0018  0.3520  0.1889
   88MOL   H34333577   0.222   2.878   1.720 -0.8951  4.0226  0.4425
   88MOL   C34433578   0.395   2.272   1.685 -0.6567 -0.3050 -0.5242
   88MOL   C34533579   0.535   2.282   1.752  0.5680 -0.0842  0.5407
   88MOL   C34633580   0.642   2.183   1.712 -0.4397  0.1221  0.0242
   88MOL   C34733581   0.601   2.040   1.746 -0.6914 -0.4582  0.2222
   88MOL   C34833582   0.728   1.944   1.761  0.1525 -0.1132 -0.0671
   88MOL   C34933583   0.848   1.974   1.673  0.3784  0.8834  0.5627
   88MOL   O35033584   0.569   2.417   1.729 -0.3843 -0.5137 -0.1541
   88MOL   H35133585   0.408   2.270   1.577 -0.8264 -0.5568 -0.5402
   88MOL   H35233586   0.345   2.177   1.706 -2.1433  0.7442  0.8570
   88MOL   H35333587   0.523   2.274   1.860 -1.5284  1.3795  0.4748
   88MOL   H35433588   0.724   2.220   1.773  0.4746 -1.0789 -0.4785
   88MOL   H35533589   0.653   2.195   1.605 -0.1933 -0.1862  0.0141
   88MOL   H35633590   0.547   2.001   1.660 -0.8046 -0.4991  0.3116
   88MOL   H35733591   0.529   2.031   1.827 -1.5313  3.0816 -0.0151
   88MOL   H35833592   0.710   1.840   1.735 -0.2743  0.2225 -1.1260
   88MOL   H35933593   0.759   1.929   1.865 -1.3816 -1.3021  0.2453
   88MOL   H36033594   0.828   1.965   1.567 -0.8112 -1.8681  0.9726
   88MOL   H36133595   0.936   1.910   1.685  0.7778  1.5978  1.5038
   88MOL   H36233596   0.885   2.074   1.696 -1.0891  1.5159  0.2322
   88MOL   C36333597   0.667   2.469   1.817  0.3173  0.4773  0.0536
   88MOL   C36433598   0.614   2.604   1.880 -0.1122  0.4826  0.6310
   88MOL   C36533599   0.599   2.712   1.776  0.3649  0.5739  0.3742
   88MOL   C36633600   0.555   2.849   1.840  0.2733 -0.1356 -0.1418
   88MOL   C36733601   0.522   2.958   1.736 -0.5472 -0.1584  0.0033
   88MOL   C36833602   0.472   3.076   1.809  0.3401 -0.2697 -0.1556
   88MOL   O36933603   0.502   2.585   1.952  0.3775  0.2800 -0.1872
   88MOL   H37033604   0.753   2.489   1.754 -0.9540  0.8070 -1.6106
   88MOL   H37133605   0.707   2.409   1.900  1.0300 -0.4452 -0.9464
   88MOL   H37233606   0.686   2.644   1.952  0.2839 -0.3009  0.6695
   88MOL   H37333607   0.696   2.729   1.728 -0.5858  0.5869 -1.6069
   88MOL   H37433608   0.532   2.675   1.699 -0.0511 -0.9990  1.4860
   88MOL   H37533609   0.465   2.841   1.900  1.2351  0.1948  1.3649
   88MOL   H37633610   0.633   2.878   1.910  0.6866  0.8658 -0.9967
   88MOL   H37733611   0.611   2.965   1.673  0.1261  0.6762  1.0469
   88MOL   H37833612   0.432   2.929   1.681  0.3255  0.6598 -1.9103
   88MOL   H37933613   0.387   3.037   1.866  0.7131 -2.8704 -1.3039
   88MOL   H38033614   0.544   3.118   1.878 -0.0824 -0.3774  0.3542
   88MOL   H38133615   0.440   3.158   1.744  1.9969  0.9172  0.5236
   88MOL   H38233616   0.447   2.557   1.881  2.0129 -0.6491 -1.1129
   89MOL     C133617   7.520   2.600   4.499  0.1798  0.3613 -0.2782
   89MOL     C233618   7.616   2.661   4.599  0.2725 -0.4162  0.1561
   89MOL     C333619   7.739   2.577   4.606 -0.1167  0.0875 -0.3264
   89MOL     C433620   0.016   2.551   4.462 -0.0968 -0.2368 -0.7500
   89MOL     C533621   0.143   2.468   4.470  0.7680  0.3563 -0.3055
   89MOL     C633622   0.240   2.492   4.354  0.2043 -0.0747 -0.1128
   89MOL     O733623   7.662   2.793   4.549 -0.1856  0.1513 -0.8578
   89MOL     H833624   7.421   2.644   4.503 -0.2748 -0.4273 -2.1825
   89MOL     H933625   7.497   2.493   4.499  0.2804  0.3389 -0.4864
   89MOL    H1033626   7.562   2.675   4.693 -0.5127 -0.5887 -0.2641
   89MOL    H1133627   0.027   2.629   4.666 -0.3177  0.2823 -0.2456
   89MOL    H1233628   7.718   2.481   4.653  1.8911  0.1377  0.7396
   89MOL    H1333629   7.737   2.489   4.399 -1.5334 -0.3970  0.8464
   89MOL    H1433630   0.036   2.643   4.407  0.7948 -0.2811 -0.4999
   89MOL    H1533631   0.186   2.483   4.569 -1.3378  1.3160  0.4973
   89MOL    H1633632   0.103   2.367   4.477  1.2200  0.2080  0.1854
   89MOL    H1733633   0.318   2.419   4.370 -1.4322 -1.9487 -0.5362
   89MOL    H1833634   0.190   2.472   4.259  1.7483  0.9451 -1.1759
   89MOL    H1933635   0.282   2.593   4.349  0.1883  0.0330  1.5517
   89MOL    H2033636   7.546   2.623   4.396 -1.6577  1.3951 -0.5325
   89MOL    C2133637   7.567   2.899   4.538 -0.1788 -0.9758  0.4870
   89MOL    C2233638   7.641   3.030   4.496 -0.3694 -0.2520 -0.2225
   89MOL    C2333639   7.544   3.141   4.451 -0.7529 -0.8684  0.1120
   89MOL    C2433640   7.598   3.289   4.424 -0.7437  0.5256  0.3063
   89MOL    C2533641   7.486   3.381   4.374 -0.3589  0.3789 -0.5921
   89MOL    C2633642   7.387   3.423   4.492 -0.5508 -0.0284  0.2048
   89MOL    O2733643   7.708   3.069   4.620  0.1552  0.2233  0.1386
   89MOL    H2833644   7.510   2.870   4.450  0.6810  2.2040 -1.1828
   89MOL    H2933645   7.502   2.901   4.625  0.0974  1.2272  0.6614
   89MOL    H3033646   7.708   3.020   4.410 -1.6638  1.7244 -1.5164
   89MOL    H3133647   7.469   3.143   4.530 -0.1727 -2.1290  0.7018
   89MOL    H3233648   7.493   3.107   4.360  3.2947 -1.5480 -2.0007
   89MOL    H3333649   7.683   3.306   4.359  0.3527 -1.3809  1.1925
   89MOL    H3433650   7.640   3.321   4.519  1.1788  1.4851 -0.8538
   89MOL    H3533651   7.522   3.477   4.337  2.2100 -0.3409 -0.0419
   89MOL    H3633652   7.431   3.328   4.296 -2.8411  0.9366  0.7294
   89MOL    H3733653   7.329   3.337   4.524  0.0227 -0.4021  0.2489
   89MOL    H3833654   7.298   3.479   4.464  0.0454  1.5091  1.2808
   89MOL    H3933655   7.427   3.458   4.588  1.7288  1.4929 -1.2525
   89MOL    C4033656   0.061   3.034   4.617  0.6194 -0.2915 -0.0016
   89MOL    C4133657   0.139   3.058   4.751  1.0001 -0.2638 -0.3489
   89MOL    C4233658   0.135   2.933   4.838  0.8951 -0.1000  0.3083
   89MOL    C4333659   0.224   2.944   4.962 -0.3721 -0.1672  0.5616
   89MOL    C4433660   0.256   2.811   5.037 -0.5387  0.4910  0.0211
   89MOL    C4533661   0.326   2.839   5.173  0.2684 -0.9296 -0.0741
   89MOL    O4633662   0.099   3.181   4.819 -0.1801 -0.1043  0.7689
   89MOL    H4733663   0.110   3.102   4.547  0.4004  1.6534  1.6909
   89MOL    H4833664   0.085   2.938   4.572  1.9134  0.1829 -0.3452
   89MOL    H4933665   0.241   3.072   4.718  0.8389 -0.5576 -0.9653
   89MOL    H5033666   0.029   2.931   4.861  0.1601  2.6376 -2.5253
   89MOL    H5133667   0.154   2.845   4.777 -1.1134 -1.5156  1.6915
   89MOL    H5233668   0.170   2.996   5.041 -0.4692 -1.7749  1.5703
   89MOL    H5333669   0.316   3.003   4.949 -1.4999  1.6244  0.4596
   89MOL    H5433670   0.163   2.755   5.033  1.2023 -2.5963  0.5679
   89MOL    H5533671   0.323   2.753   4.974 -0.7198 -1.2274  1.3604
   89MOL    H5633672   0.250   2.879   5.240 -0.3217 -1.6708 -0.2967
   89MOL    H5733673   0.366   2.742   5.202 -0.5087 -0.5930  2.2235
   89MOL    H5833674   0.404   2.916   5.179 -0.4080  0.0036 -2.7855
   89MOL    C5933675   7.758   3.184   4.873 -0.2288 -0.0103  0.5756
   89MOL    C6033676   7.687   3.311   4.828 -0.0204  0.5953  0.0131
   89MOL    C6133677   7.543   3.320   4.883 -0.1241  1.3499  0.1631
   89MOL    C6233678   7.443   3.207   4.837 -0.2620 -1.1407 -0.0485
   89MOL    C6333679   7.330   3.172   4.937 -0.1971 -0.5911 -0.1101
   89MOL    C6433680   7.383   3.084   5.046 -0.0495  0.1290  0.0695
   89MOL    O6533681   7.754   3.420   4.882  0.6117 -0.1965 -0.6547
   89MOL    H6633682   7.777   3.176   4.981  1.3630  1.7990  0.4653
   89MOL    H6733683   7.700   3.098   4.841  0.6105 -1.4691  2.8682
   89MOL    H6833684   7.689   3.313   4.719  1.3611  0.6582  0.0214
   89MOL    H6933685   7.495   3.415   4.862  1.8739  2.1830 -0.7576
   89MOL    H7033686   7.553   3.324   4.991  0.5004 -2.2340  0.2962
   89MOL    H7133687   7.492   3.112   4.812  0.3028 -0.4958 -1.4193
   89MOL    H7233688   7.394   3.239   4.746 -1.7356  0.2219  1.2093
   89MOL    H7333689   7.240   3.132   4.888  0.1425 -0.7732 -0.5877
   89MOL    H7433690   7.299   3.268   4.978  0.2881 -0.6091  0.2914
   89MOL    H7533691   7.292   3.068   5.105 -0.2124 -0.7478 -0.4114
   89MOL    H7633692   7.410   2.989   5.000 -1.0208  0.1028 -0.4767
   89MOL    H7733693   7.451   3.132   5.116 -2.2308 -0.2664  2.5250
   89MOL    C7833694   0.074   3.484   4.814  0.1032 -0.6364 -0.2676
   89MOL    C7933695   0.127   3.593   4.900  0.4981 -0.3203  0.2140
   89MOL    C8033696   0.183   3.722   4.832  0.2786  0.5002 -0.3384
   89MOL    C8133697   0.237   3.836   4.918  0.1850 -0.1160  0.6553
   89MOL    C8233698   0.132   3.913   4.995 -0.1378  0.0760  0.2352
   89MOL    C8333699   0.178   4.053   5.043  1.0619  0.2257 -0.8365
   89MOL    O8433700   0.244   3.544   4.967 -0.6494  0.3664  0.0296
   89MOL    H8533701   0.040   3.538   4.726 -3.0883  2.9647  2.9987
   89MOL    H8633702   0.148   3.413   4.778  1.5373  0.6636  0.0621
   89MOL    H8733703   0.049   3.626   4.969  0.6076  1.1429 -0.3364
   89MOL    H8833704   0.257   3.691   4.757  1.4129 -1.6462  1.6358
   89MOL    H8933705   0.116   3.769   4.760  1.6226 -0.0817 -2.0088
   89MOL    H9033706   0.296   3.903   4.856  1.9424 -1.7079  0.5866
   89MOL    H9133707   0.312   3.789   4.981  1.3782  0.1572 -0.5488
   89MOL    H9233708   0.061   3.943   4.918  3.9139 -0.4676 -3.9105
   89MOL    H9333709   0.089   3.856   5.077  1.7568 -1.4363  0.2213
   89MOL    H9433710   0.262   4.029   5.109  2.7396 -0.5589 -3.2079
   89MOL    H9533711   0.100   4.089   5.110  0.6168 -0.3372 -1.0452
   89MOL    H9633712   0.216   4.132   4.979 -0.6695  2.1460  0.4345
   89MOL    C9733713   0.230   3.425   5.050 -0.4550 -0.5719 -0.1394
   89MOL    C9833714   0.364   3.383   5.123  0.3369  0.0410  0.1278
   89MOL    C9933715   0.341   3.296   5.248  0.1146  0.2773  0.7036
   89MOL   C10033716   0.474   3.274   5.325 -0.2567 -0.4511 -0.0258
   89MOL   C10133717   0.468   3.223   5.470 -0.0303  0.2711  0.9942
   89MOL   C10233718   0.442   3.078   5.479 -0.4024  0.5622  0.6360
   89MOL   O10333719   0.443   3.306   5.035  0.3838 -0.0119 -0.4748
   89MOL   H10433720   0.194   3.332   5.005 -0.3532 -0.5311 -0.3052
   89MOL   H10533721   0.161   3.457   5.128 -1.7430 -0.0267 -1.4845
   89MOL   H10633722   0.418   3.472   5.157  2.2928 -0.4292 -1.6255
   89MOL   H10733723   0.303   3.196   5.227 -0.8754  1.1255 -1.6598
   89MOL   H10833724   0.278   3.348   5.319  0.4351 -1.5875  2.4051
   89MOL   H10933725   0.544   3.357   5.320 -2.2424  1.2146 -1.1484
   89MOL   H11033726   0.534   3.201   5.270 -0.0828 -0.5968  0.3591
   89MOL   H11133727   0.394   3.279   5.527  1.4889  1.9135  1.3726
   89MOL   H11233728   0.565   3.243   5.514  0.5342  1.3790 -0.6779
   89MOL   H11333729   0.340   3.068   5.442  0.6522 -0.7021 -2.0190
   89MOL   H11433730   0.499   3.014   5.412 -1.4048 -0.5292  0.7903
   89MOL   H11533731   0.441   3.034   5.579 -1.0447 -1.0400 -0.0587
   89MOL   C11633732   0.526   3.379   4.948  0.7350 -0.4159 -0.5272
   89MOL   C11733733   0.645   3.304   4.892 -0.2930 -0.0425  0.1216
   89MOL   C11833734   0.774   3.296   4.972  0.4148 -0.0026 -0.3310
   89MOL   C11933735   0.841   3.435   5.000  0.1546  0.3187  0.0437
   89MOL   C12033736   0.979   3.444   4.939 -0.2151  0.2655  0.1233
   89MOL   C12133737   1.038   3.584   4.958 -0.1419  0.0086 -0.0685
   89MOL   O12233738   0.690   3.367   4.771  0.5453 -0.3480 -0.6499
   89MOL   H12333739   0.478   3.426   4.863 -1.0029  0.3547  0.8715
   89MOL   H12433740   0.552   3.465   5.009 -4.0954  0.1683  0.8788
   89MOL   H12533741   0.599   3.211   4.862  0.6856 -0.4841 -0.0414
   89MOL   H12633742   0.743   3.259   5.070  0.4572  1.6293  0.3116
   89MOL   H12733743   0.850   3.228   4.932  1.2555  1.4061 -1.1773
   89MOL   H12833744   0.848   3.451   5.108 -0.4128  0.5135  0.0574
   89MOL   H12933745   0.772   3.514   4.969  1.2248  1.4528  0.5306
   89MOL   H13033746   1.046   3.378   4.994 -0.0496  0.8239  0.5994
   89MOL   H13133747   0.982   3.413   4.834 -1.7955  1.1815 -0.2052
   89MOL   H13233748   1.081   3.597   5.057 -0.0640  2.9563 -0.4641
   89MOL   H13333749   1.124   3.600   4.894  0.4846  0.7710  0.9482
   89MOL   H13433750   0.963   3.662   4.946 -1.4414 -0.6486  3.2227
   89MOL   C13533751   0.661   3.294   4.644 -0.5888 -0.6685 -0.0294
   89MOL   C13633752   0.740   3.167   4.621  0.1966  0.6812  0.3306
   89MOL   C13733753   0.875   3.205   4.553  0.0296  0.0651  0.4799
   89MOL   C13833754   0.987   3.096   4.541  0.0840 -0.1844 -0.0827
   89MOL   C13933755   0.961   2.999   4.418 -0.2117 -0.8856 -0.1197
   89MOL   C14033756   0.975   3.058   4.272  0.1983  0.3493 -0.0764
   89MOL   O14133757   0.671   3.076   4.537 -0.2205  0.3225  0.2954
   89MOL   H14233758   0.556   3.265   4.643 -0.6030 -0.7079 -3.3194
   89MOL   H14333759   0.672   3.364   4.562 -0.2326 -0.8230 -0.1136
   89MOL   H14433760   0.761   3.122   4.718 -0.0218 -0.1717 -0.0059
   89MOL   H14533761   0.850   3.258   4.461  0.0069  1.2473  1.1518
   89MOL   H14633762   0.914   3.290   4.609  2.8810 -0.5501 -0.4663
   89MOL   H14733763   0.988   3.041   4.635  2.0579  0.1222  0.0869
   89MOL   H14833764   1.086   3.140   4.530  0.8477 -1.9904 -0.5886
   89MOL   H14933765   0.870   2.940   4.424 -0.3240 -0.5154  2.0172
   89MOL   H15033766   1.042   2.930   4.441  0.0760 -1.8036 -3.5863
   89MOL   H15133767   0.961   2.984   4.194  1.2836 -0.6035  0.6232
   89MOL   H15233768   0.903   3.137   4.250  0.2550  0.0549 -1.3309
   89MOL   H15333769   1.071   3.107   4.257  0.5716 -0.9199 -1.9617
   89MOL   C15433770   0.607   2.972   4.615 -0.4752 -0.3072  0.4700
   89MOL   C15533771   0.538   2.869   4.519 -0.1255  0.1837  0.6985
   89MOL   C15633772   0.540   2.726   4.573  0.2275  0.0800 -0.6902
   89MOL   C15733773   0.463   2.688   4.700 -0.3477 -0.2512  0.4464
   89MOL   C15833774   0.514   2.560   4.767 -0.0592  0.6265 -0.4829
   89MOL   C15933775   0.508   2.451   4.661 -0.1807  0.1481  0.1161
   89MOL   O16033776   0.393   2.896   4.512 -0.1021 -0.8009  0.6557
   89MOL   H16133777   0.551   3.020   4.695  0.1580 -1.5114  1.6598
   89MOL   H16233778   0.683   2.906   4.655  0.9035  0.5782 -0.6130
   89MOL   H16333779   0.582   2.880   4.420 -3.0866  1.1972 -0.5534
   89MOL   H16433780   0.646   2.703   4.583  0.6878  2.7158  1.0560
   89MOL   H16533781   0.496   2.664   4.495 -0.0219  0.3172 -0.7364
   89MOL   H16633782   0.358   2.672   4.677  0.0557 -2.7805  0.3017
   89MOL   H16733783   0.472   2.772   4.770  2.1562 -2.5510  3.0534
   89MOL   H16833784   0.612   2.573   4.811 -0.9567 -0.9240  2.1072
   89MOL   H16933785   0.446   2.534   4.848  1.8227 -0.8151  0.6727
   89MOL   H17033786   0.524   2.351   4.701  1.1015 -0.1388 -1.0687
   89MOL   H17133787   0.584   2.457   4.584  1.7574 -0.3619  1.9472
   89MOL   H17233788   0.412   2.446   4.610  0.0915  2.2964 -0.6333
   89MOL   C17333789   0.361   3.002   4.422 -0.0092  0.4361 -0.0430
   89MOL   C17433790   0.261   2.975   4.302 -0.5097  0.3447 -0.3942
   89MOL   C17533791   0.196   3.102   4.252  0.2851 -0.4858 -0.1961
   89MOL   C17633792   0.091   3.075   4.136  0.7244 -0.4102  0.1549
   89MOL   C17733793   0.047   3.210   4.072  0.2328 -0.2536 -0.3729
   89MOL   C17833794   0.161   3.270   3.990 -0.2449 -0.4750  0.3344
   89MOL   O17933795   0.329   2.937   4.186  0.2684 -0.2396  0.2765
   89MOL   H18033796   0.454   3.037   4.377  0.2070 -1.0295 -0.7691
   89MOL   H18133797   0.317   3.076   4.489 -1.0493 -1.3830  1.3552
   89MOL   H18233798   0.185   2.905   4.334 -1.3201  1.6519  0.5784
   89MOL   H18333799   0.144   3.150   4.335 -1.2196 -2.2684 -0.0752
   89MOL   H18433800   0.277   3.170   4.227  1.1115  0.1460  3.8869
   89MOL   H18533801   0.132   2.998   4.071  0.6940 -1.1077  0.9477
   89MOL   H18633802   0.001   3.020   4.164  1.0904 -1.8800 -1.4864
   89MOL   H18733803   7.750   3.197   4.002 -0.6283 -2.0234  0.9042
   89MOL   H18833804   0.022   3.282   4.150  0.8711  0.3233 -0.7050
   89MOL   H18933805   0.210   3.199   3.923 -0.6482 -0.9618  0.5581
   89MOL   H19033806   0.242   3.313   4.049  0.4869  0.2082 -1.1292
   89MOL   H19133807   0.132   3.352   3.924  0.8969 -0.6690 -0.4304
   89MOL   C19233808   0.354   2.801   4.174 -0.6729 -1.0763 -0.4631
   89MOL   C19333809   0.439   2.787   4.052 -0.1237  0.4095 -0.2240
   89MOL   C19433810   0.362   2.808   3.920  0.0386 -0.1548  0.1000
   89MOL   C19533811   0.454   2.814   3.803  0.0931 -0.1560  0.3063
   89MOL   C19633812   0.372   2.842   3.672  0.4803  0.3847  0.4784
   89MOL   C19733813   0.455   2.860   3.535 -0.3853 -0.0678  0.9630
   89MOL   O19833814   0.488   2.650   4.064  0.1106 -0.0083 -0.2658
   89MOL   H19933815   0.381   2.758   4.270  0.5616  0.9891  0.1527
   89MOL   H20033816   0.259   2.754   4.148 -0.6954 -2.1474  1.4780
   89MOL   H20133817   0.519   2.861   4.052  0.2195  0.0578 -1.4886
   89MOL   H20233818   0.289   2.727   3.921  0.1629 -0.2591  0.5436
   89MOL   H20333819   0.311   2.904   3.926  0.8535  0.1967  1.4187
   89MOL   H20433820   0.504   2.717   3.796  1.2764  0.2967  2.1728
   89MOL   H20533821   0.540   2.881   3.809  0.9565 -0.7429 -3.7141
   89MOL   H20633822   0.301   2.761   3.656  0.6873  0.6072 -1.7482
   89MOL   H20733823   0.300   2.923   3.678  0.6778  0.5659  0.4296
   89MOL   H20833824   0.522   2.777   3.514 -0.2103 -0.1614  1.8692
   89MOL   H20933825   0.398   2.854   3.442  2.1696  2.4021 -0.8499
   89MOL   H21033826   0.518   2.949   3.528  0.4137 -0.7288 -0.3563
   89MOL   C21133827   0.608   2.636   4.137 -0.0084 -0.3747  0.0858
   89MOL   C21233828   0.643   2.487   4.139 -0.5196 -0.2899 -0.4552
   89MOL   C21333829   0.740   2.449   4.257 -1.3498  1.0159 -0.0831
   89MOL   C21433830   0.769   2.295   4.261 -0.3840 -0.9630 -0.8426
   89MOL   C21533831   0.828   2.242   4.396  0.4883  0.2065 -0.0286
   89MOL   C21633832   0.846   2.087   4.404 -0.1717 -0.0490  0.1460
   89MOL   O21733833   0.704   2.441   4.018  0.1860  0.0790  0.3752
   89MOL   H21833834   0.591   2.677   4.236  1.6403  1.2678 -0.2848
   89MOL   H21933835   0.689   2.700   4.101 -1.0843  0.3615 -1.0762
   89MOL   H22033836   0.546   2.447   4.166 -1.5557  1.1148 -1.9940
   89MOL   H22133837   0.832   2.506   4.262  0.3161 -1.4582 -1.3854
   89MOL   H22233838   0.689   2.474   4.350  1.3868  0.9070  1.4822
   89MOL   H22333839   0.672   2.251   4.238  0.0836 -2.0320 -0.7813
   89MOL   H22433840   0.838   2.275   4.180  1.1489  0.1926  0.1548
   89MOL   H22533841   0.925   2.286   4.415  0.3843  0.8758 -1.0505
   89MOL   H22633842   0.764   2.263   4.482  2.3117  2.1269  0.8834
   89MOL   H22733843   0.874   2.043   4.500  1.9503 -1.2012 -0.9410
   89MOL   H22833844   0.921   2.062   4.329 -0.1050 -0.6801  0.4187
   89MOL   H22933845   0.757   2.028   4.385  1.2501 -1.7354 -1.5146
   89MOL   C23033846   0.616   2.408   3.910 -0.2638 -0.5216  0.0195
   89MOL   C23133847   0.693   2.391   3.774 -0.1353 -0.4364 -0.2416
   89MOL   C23233848   0.620   2.455   3.651 -0.8992 -0.0801 -0.8228
   89MOL   C23333849   0.684   2.425   3.520 -0.2665 -0.2807 -0.2888
   89MOL   C23433850   0.619   2.475   3.396  0.0012 -0.1172 -0.6278
   89MOL   C23533851   0.714   2.467   3.274  0.4923 -0.3497  0.8707
   89MOL   O23633852   0.734   2.254   3.758 -0.2271 -0.2788  0.3574
   89MOL   H23733853   0.560   2.316   3.926 -0.3560 -0.5327 -0.3515
   89MOL   H23833854   0.544   2.489   3.901 -0.5921 -0.6852  1.1000
   89MOL   H23933855   0.779   2.457   3.784 -1.5870  2.0636 -3.2944
   89MOL   H24033856   0.619   2.564   3.661 -1.7839 -0.3684  2.7969
   89MOL   H24133857   0.521   2.409   3.651 -1.0204  0.1560 -1.6256
   89MOL   H24233858   0.693   2.317   3.515  1.0528 -0.4383  3.3385
   89MOL   H24333859   0.785   2.466   3.524 -0.6013  0.4967  0.5979
   89MOL   H24433860   0.522   2.425   3.397  0.7140 -1.5091  0.2905
   89MOL   H24533861   0.602   2.580   3.420 -0.4307 -0.1687 -0.7002
   89MOL   H24633862   0.818   2.484   3.300  1.0428  1.0843 -2.1580
   89MOL   H24733863   0.689   2.535   3.193 -0.0224 -0.4224  0.9661
   89MOL   H24833864   0.718   2.362   3.244  0.2467  0.4082 -1.9473
   89MOL   C24933865   0.809   2.199   3.869  0.2014  0.4919  0.4471
   89MOL   C25033866   0.891   2.074   3.833  0.0481  1.0190  0.4155
   89MOL   C25133867   0.925   2.011   3.967 -0.6418 -0.4438 -0.1033
   89MOL   C25233868   1.015   1.889   3.963 -0.3967 -0.0522  0.3713
   89MOL   C25333869   1.007   1.819   4.100  0.2718  0.5767  0.6166
   89MOL   C25433870   1.074   1.677   4.100  0.2423 -0.0385  0.4307
   89MOL   O25533871   1.003   2.122   3.762  0.4632  0.2524  0.0451
   89MOL   H25633872   0.864   2.281   3.915  0.8708 -0.3539  1.1573
   89MOL   H25733873   0.741   2.168   3.948  0.8546 -2.8062 -0.2130
   89MOL   H25833874   0.833   2.001   3.777 -0.4303 -0.1237  2.3895
   89MOL   H25933875   0.970   2.084   4.034  1.2045 -1.3350 -0.3164
   89MOL   H26033876   0.829   1.976   4.004 -0.4401 -2.3361 -1.2741
   89MOL   H26133877   0.981   1.820   3.886 -0.9661 -0.1017  0.6636
   89MOL   H26233878   1.118   1.919   3.941 -0.1837 -2.1484 -1.7231
   89MOL   H26333879   1.059   1.881   4.172  1.3711 -0.9090  1.1241
   89MOL   H26433880   0.902   1.793   4.118  0.9087 -2.0265  0.8893
   89MOL   H26533881   1.073   1.627   4.197  1.3448  0.2685  0.6107
   89MOL   H26633882   1.179   1.673   4.071 -0.0569 -1.8949 -0.4697
   89MOL   H26733883   1.014   1.618   4.031  2.1737 -1.6540  0.0897
   89MOL   C26833884   0.991   2.165   3.628  0.4733 -0.1245  0.5639
   89MOL   C26933885   1.132   2.150   3.553 -0.4444  0.3098  0.9762
   89MOL   C27033886   1.151   2.217   3.410 -0.4878  1.3363  0.3290
   89MOL   C27133887   1.155   2.373   3.407 -0.6657 -0.2655  0.2549
   89MOL   C27233888   1.184   2.437   3.271  0.0701 -0.3755 -0.0968
   89MOL   C27333889   1.184   2.587   3.293  0.2291  0.1644 -0.4079
   89MOL   O27433890   1.149   2.016   3.514  0.0245  0.1681  0.3570
   89MOL   H27533891   0.961   2.269   3.641  1.4874  0.4543 -1.4009
   89MOL   H27633892   0.917   2.110   3.570  3.2007 -1.0818 -2.1624
   89MOL   H27733893   1.218   2.172   3.617  0.2118 -1.1653  0.6262
   89MOL   H27833894   1.248   2.185   3.375 -0.4912 -0.5054  1.9494
   89MOL   H27933895   1.071   2.178   3.347  0.4744 -0.0882 -0.0225
   89MOL   H28033896   1.055   2.410   3.431  0.9728  4.4206  0.2117
   89MOL   H28133897   1.221   2.409   3.485 -1.3868  2.8090 -0.4968
   89MOL   H28233898   1.275   2.395   3.227  0.1413  0.6963 -0.9894
   89MOL   H28333899   1.105   2.410   3.202 -1.4841  0.6067  1.2784
   89MOL   H28433900   1.276   2.611   3.347  0.5109  0.8093 -1.1548
   89MOL   H28533901   1.208   2.638   3.200 -0.5883 -2.2989 -2.0008
   89MOL   H28633902   1.092   2.632   3.331  0.4046  1.0763 -1.0434
   89MOL   C28733903   1.181   1.935   3.623  0.0532 -0.2240 -0.3111
   89MOL   C28833904   1.250   1.809   3.568 -0.2313 -0.1006 -0.2915
   89MOL   C28933905   1.317   1.710   3.663 -0.7501 -0.0378 -0.4822
   89MOL   C29033906   1.368   1.587   3.585  0.3861  0.6434  0.4511
   89MOL   C29133907   1.409   1.471   3.683 -0.1014 -0.5774 -0.1613
   89MOL   C29233908   1.526   1.516   3.775 -0.5318 -0.7320 -0.7703
   89MOL   O29333909   1.359   1.854   3.486 -0.2634 -0.2652 -0.3287
   89MOL   H29433910   1.095   1.897   3.677  0.3794 -0.5415 -0.0110
   89MOL   H29533911   1.248   1.982   3.696  0.6802  0.3808 -1.2527
   89MOL   H29633912   1.175   1.760   3.506 -0.9703  3.0587 -2.0325
   89MOL   H29733913   1.393   1.761   3.723  0.0023  0.4811 -1.8574
   89MOL   H29833914   1.240   1.670   3.729 -0.3706 -1.6176 -0.9738
   89MOL   H29933915   1.284   1.548   3.528  1.3873  0.0763 -0.6442
   89MOL   H30033916   1.452   1.617   3.523  0.9570 -0.6093  0.5949
   89MOL   H30133917   1.446   1.390   3.620  0.6972 -0.5487  0.2637
   89MOL   H30233918   1.325   1.427   3.735 -1.3585  1.8503 -0.0333
   89MOL   H30333919   1.609   1.548   3.711  1.2599  0.8453  2.2625
   89MOL   H30433920   1.503   1.601   3.838  3.0493 -0.2109 -0.0703
   89MOL   H30533921   1.553   1.434   3.842 -0.4296  0.8067  1.1044
   89MOL   C30633922   1.344   1.865   3.342 -0.1675 -0.6734  0.4739
   89MOL   C30733923   1.487   1.879   3.274  0.0606  0.3656  0.5883
   89MOL   C30833924   1.559   2.005   3.325 -0.8369 -0.1013 -0.5641
   89MOL   C30933925   1.714   2.016   3.300 -0.3439  0.5994  0.4001
   89MOL   C31033926   1.799   1.897   3.345 -0.4093  0.4934  0.2962
   89MOL   C31133927   1.778   1.865   3.501  0.6083 -0.7625 -0.9371
   89MOL   O31233928   1.472   1.902   3.131 -0.8902  0.8283  0.0700
   89MOL   H31333929   1.299   1.768   3.320  1.9418 -1.6959  0.5390
   89MOL   H31433930   1.285   1.948   3.301  1.0924  0.1486  0.3056
   89MOL   H31533931   1.538   1.786   3.300 -0.4277 -0.6360 -1.9058
   89MOL   H31633932   1.539   2.002   3.432 -3.6808 -0.1856 -1.0740
   89MOL   H31733933   1.508   2.094   3.287 -0.1752  0.6807  0.3342
   89MOL   H31833934   1.738   2.025   3.194 -2.5306  1.9443 -0.0018
   89MOL   H31933935   1.754   2.106   3.345 -2.0671  1.5482  0.0889
   89MOL   H32033936   1.905   1.917   3.331  0.0097  0.5951  3.1692
   89MOL   H32133937   1.795   1.813   3.275  0.9787  0.2286  0.5209
   89MOL   H32233938   1.860   1.800   3.531  0.6006 -1.2421 -1.9176
   89MOL   H32333939   1.789   1.949   3.569  0.9588 -0.3736 -1.4760
   89MOL   H32433940   1.682   1.815   3.514  0.9061 -1.3368 -0.9260
   89MOL   C32533941   1.557   1.818   3.046 -0.0932 -0.8776 -0.1721
   89MOL   C32633942   1.538   1.864   2.900 -0.3612 -0.1984  0.1912
   89MOL   C32733943   1.562   1.750   2.793  0.5117  0.7155  0.1718
   89MOL   C32833944   1.451   1.646   2.793 -0.1458 -0.3984 -0.3553
   89MOL   C32933945   1.453   1.549   2.673 -0.0976  0.1870  0.6126
   89MOL   C33033946   1.405   1.615   2.543  1.0056 -0.5863  0.6977
   89MOL   O33133947   1.634   1.966   2.877 -0.3425  0.2124 -0.2535
   89MOL   H33233948   1.518   1.719   3.068  2.6878 -2.4127 -1.8602
   89MOL   H33333949   1.662   1.822   3.074  0.5875  0.1738 -2.6925
   89MOL   H33433950   1.439   1.911   2.902 -1.0602 -1.6410  0.1634
   89MOL   H33533951   1.557   1.798   2.696 -0.5464  3.4683  1.5322
   89MOL   H33633952   1.661   1.706   2.803  0.0489 -0.0639  1.5462
   89MOL   H33733953   1.445   1.602   2.893 -0.5978 -0.5479 -0.4464
   89MOL   H33833954   1.361   1.708   2.786  0.7117  0.9376  0.2097
   89MOL   H33933955   1.551   1.505   2.660  0.3619  1.3443  0.1147
   89MOL   H34033956   1.391   1.460   2.686  0.6048 -0.7888 -2.3922
   89MOL   H34133957   1.324   1.683   2.569  1.2188 -0.4074  0.9028
   89MOL   H34233958   1.481   1.671   2.487  0.8441 -1.0500  0.0043
   89MOL   H34333959   1.377   1.534   2.476  0.0800  1.0180 -0.9224
   89MOL   C34433960   1.613   2.096   2.931  0.6313 -0.0314 -0.3086
   89MOL   C34533961   1.505   2.190   2.869 -0.6784 -0.0076 -0.0770
   89MOL   C34633962   1.521   2.180   2.718  0.4743 -0.1915 -0.5253
   89MOL   C34733963   1.447   2.287   2.639 -1.0363 -0.6848  0.6899
   89MOL   C34833964   1.457   2.273   2.486  0.5568  0.6586  0.7885
   89MOL   C34933965   1.410   2.401   2.418 -0.0402  0.1031  0.0139
   89MOL   O35033966   1.379   2.140   2.909 -0.2423  0.2738 -0.1269
   89MOL   H35133967   1.713   2.136   2.914  1.6653 -1.3924  2.3004
   89MOL   H35233968   1.620   2.094   3.040  2.7638 -1.3957 -0.4193
   89MOL   H35333969   1.525   2.290   2.907  1.3899 -1.3538  2.5146
   89MOL   H35433970   1.504   2.084   2.670 -1.2978  0.9698 -2.2785
   89MOL   H35533971   1.627   2.180   2.692  1.0249 -0.7898  1.5754
   89MOL   H35633972   1.477   2.390   2.660  0.0894 -1.0054  0.7331
   89MOL   H35733973   1.341   2.273   2.659 -1.1262  0.5456  1.0997
   89MOL   H35833974   1.390   2.189   2.467  0.4727  0.8578  0.2073
   89MOL   H35933975   1.555   2.242   2.450 -0.2071 -0.8488 -0.0307
   89MOL   H36033976   1.411   2.407   2.309  0.5736  2.9814  0.1290
   89MOL   H36133977   1.472   2.480   2.462 -2.1799  1.2963  0.9414
   89MOL   H36233978   1.306   2.422   2.441 -0.2141 -1.1134  0.3730
   89MOL   C36333979   1.335   2.204   3.028 -0.6749 -0.3255 -0.5741
   89MOL   C36433980   1.192   2.155   3.038  0.4286  0.3617  0.2418
   89MOL   C36533981   1.102   2.168   2.915 -0.2988  0.2369  0.0442
   89MOL   C36633982   1.081   2.316   2.874  0.3878  1.1729  0.5735
   89MOL   C36733983   0.978   2.342   2.764 -0.6181 -0.1733  0.1469
   89MOL   C36833984   0.831   2.330   2.798 -0.5855  0.6347 -0.1624
   89MOL   O36933985   1.200   2.018   3.073 -0.0033 -0.3344 -0.0867
   89MOL   H37033986   1.332   2.313   3.024  0.0542 -0.1828  1.7351
   89MOL   H37133987   1.399   2.188   3.115 -0.5323  1.0569 -0.4054
   89MOL   H37233988   1.161   2.222   3.117  0.7503  2.6965 -1.5376
   89MOL   H37333989   1.142   2.106   2.834 -1.5693 -0.7945  0.1904
   89MOL   H37433990   1.004   2.124   2.933  0.0431 -0.4159  0.3250
   89MOL   H37533991   1.048   2.357   2.969  3.5792  3.0718  0.9505
   89MOL   H37633992   1.179   2.356   2.845  0.9669  0.4029  1.4251
   89MOL   H37733993   0.991   2.449   2.750 -3.1444  0.5519  2.7871
   89MOL   H37833994   1.012   2.290   2.675  1.0147  0.7641  0.2137
   89MOL   H37933995   0.807   2.400   2.878  1.0626  0.4875  0.4861
   89MOL   H38033996   0.769   2.352   2.711  1.3275  1.5061 -1.3438
   89MOL   H38133997   0.801   2.233   2.835 -0.3538  0.9888  0.9636
   89MOL   H38233998   1.290   1.990   3.065 -0.1434 -0.4863 -1.2260
   90MOL     C133999   4.087   7.503   7.404 -0.2354 -0.8268 -0.2249
   90MOL     C234000   4.074   7.355   7.442  0.2468 -0.0252  0.4905
   90MOL     C334001   4.040   7.264   7.322  0.0291  0.3322 -0.1652
   90MOL     C434002   3.896   7.282   7.263  0.0700  0.1589 -0.9729
   90MOL     C534003   3.846   7.151   7.195 -0.5650  0.1122 -0.5108
   90MOL     C634004   3.753   7.177   7.075 -1.2013 -0.0010 -0.3463
   90MOL     O734005   4.196   7.296   7.503  0.0565 -0.0694  0.3573
   90MOL     H834006   4.173   7.533   7.344 -0.0432 -0.6565  0.1383
   90MOL     H934007   4.101   7.550   7.501  2.0793  0.4963 -1.1718
   90MOL    H1034008   3.995   7.362   7.516  0.2011  0.0787  0.4325
   90MOL    H1134009   4.116   7.293   7.249 -1.0567  1.3335 -0.9151
   90MOL    H1234010   4.055   7.164   7.361 -0.6783 -0.2902 -1.4651
   90MOL    H1334011   3.823   7.309   7.340  0.2612  0.9590 -1.0628
   90MOL    H1434012   3.885   7.368   7.196 -1.5344  1.2032  0.5844
   90MOL    H1534013   3.929   7.089   7.162 -0.8894 -1.3885  1.4274
   90MOL    H1634014   3.793   7.091   7.269  0.6236  1.5581  1.5432
   90MOL    H1734015   3.804   7.220   6.988 -2.9859 -1.3088 -2.0915
   90MOL    H1834016   3.721   7.081   7.035 -1.5952 -0.5841  1.3771
   90MOL    H1934017   3.668   7.240   7.098  1.1381  2.9848  0.4946
   90MOL    H2034018   4.000   7.552   7.360 -1.0174 -1.6917  0.3205
   90MOL    C2134019   4.238   7.338   7.630 -0.4543  0.6578 -1.0533
   90MOL    C2234020   4.382   7.299   7.667 -0.2256 -0.1692 -0.4622
   90MOL    C2334021   4.406   7.379   0.010 -1.1095  0.4383 -0.1769
   90MOL    C2434022   4.549   7.365   0.069 -0.2851  0.4036  0.0615
   90MOL    C2534023   4.573   7.441   0.196  0.1514 -0.2832  0.5649
   90MOL    C2634024   4.707   7.411   0.254 -0.5454  0.7571 -0.5179
   90MOL    O2734025   4.390   7.160   7.704 -0.4302 -0.2987 -0.8086
   90MOL    H2834026   4.222   7.445   7.635  1.3162  0.8537  1.4619
   90MOL    H2934027   4.171   7.293   7.704  1.6865  2.4975  2.1420
   90MOL    H3034028   4.453   7.328   7.590  2.0328 -0.0099  1.6216
   90MOL    H3134029   4.326   7.353   0.079 -0.4122  2.4435  1.4473
   90MOL    H3234030   4.395   7.485   7.773  1.1661  0.7097 -0.1068
   90MOL    H3334031   4.609   7.412   7.776  1.2189  1.1822  1.6572
   90MOL    H3434032   4.563   7.257   0.082 -3.1559 -0.0349 -0.1307
   90MOL    H3534033   4.559   7.549   0.185  0.6899 -0.3056 -0.3674
   90MOL    H3634034   4.494   7.416   0.267 -0.2360  0.7085  0.5000
   90MOL    H3734035   4.723   7.475   0.341 -0.8267 -0.1747  0.2348
   90MOL    H3834036   4.791   7.420   0.186 -1.7954  0.6933 -2.0803
   90MOL    H3934037   4.716   7.313   0.302 -0.8859 -0.0395 -2.0420
   90MOL    C4034038   4.399   7.077   7.586  0.5098 -0.0136  0.4049
   90MOL    C4134039   4.427   6.926   7.631  0.4859 -0.6823 -0.1427
   90MOL    C4234040   4.341   6.875   7.746  0.7402 -0.6085  0.4694
   90MOL    C4334041   4.332   6.722   7.735  0.0616  0.0505 -0.0470
   90MOL    C4434042   4.336   6.653   0.089  1.2073  0.3290  0.2438
   90MOL    C4534043   4.316   6.507   0.070  0.2956 -0.5603  0.0240
   90MOL    O4634044   4.565   6.921   7.673  0.2976 -0.1782 -0.4431
   90MOL    H4734045   4.475   7.111   7.515 -2.4017  0.0313 -2.8004
   90MOL    H4834046   4.307   7.073   7.528 -1.4837 -0.3918  3.4889
   90MOL    H4934047   4.393   6.874   7.542  1.0203  0.0844 -0.8046
   90MOL    H5034048   4.379   6.908   0.057 -0.7856  0.8243  0.5954
   90MOL    H5134049   4.240   6.912   7.730  1.1505  0.1789 -0.3092
   90MOL    H5234050   4.409   6.683   7.668 -0.3501 -1.0585  0.1136
   90MOL    H5334051   4.241   6.703   7.679  0.6143 -0.6274 -0.7344
   90MOL    H5434052   4.440   6.672   0.116  0.7352  0.5235  2.0441
   90MOL    H5534053   4.277   6.702   0.167  3.6867  2.6482  0.7606
   90MOL    H5634054   4.387   6.457   0.004 -0.5695 -2.1645  0.2579
   90MOL    H5734055   4.324   6.460   0.168  0.4841 -0.8111 -0.1129
   90MOL    H5834056   4.224   6.473   0.020  1.0122 -2.8869  0.2171
   90MOL    C5934057   4.662   6.894   7.576 -0.5707  0.2386 -0.3289
   90MOL    C6034058   4.807   6.927   7.618 -0.5841 -0.5848 -0.3916
   90MOL    C6134059   4.827   7.068   7.675  0.3064  0.5298 -0.5878
   90MOL    C6234060   4.769   7.187   7.596  0.1247  1.1285  0.5533
   90MOL    C6334061   4.825   7.330   7.624 -0.5145 -0.0806  0.1142
   90MOL    C6434062   4.965   7.336   7.575  0.2070 -0.2570  0.6864
   90MOL    O6534063   4.886   6.828   7.697  0.2154  0.2009  0.0380
   90MOL    H6634064   4.642   6.950   7.485  0.7481  1.8400  0.3400
   90MOL    H6734065   4.668   6.788   7.549  1.2422  0.5177 -1.0705
   90MOL    H6834066   4.870   6.929   7.529  0.6154  0.6213  0.4706
   90MOL    H6934067   4.935   7.083   7.681  0.2310  1.0059 -0.3594
   90MOL    H7034068   4.801   7.074   7.781  2.4232 -1.1099  0.0612
   90MOL    H7134069   4.663   7.196   7.624  0.6804  1.4671  2.6539
   90MOL    H7234070   4.774   7.156   7.492  1.5619 -0.5108  1.1005
   90MOL    H7334071   4.822   7.350   7.731  1.3037 -1.6823  0.4967
   90MOL    H7434072   4.754   7.393   7.570  0.1273  1.0420  0.5601
   90MOL    H7534073   4.981   7.286   7.480  0.9982  0.3016  0.5249
   90MOL    H7634074   5.004   7.437   7.564  1.9192 -0.9187  0.5859
   90MOL    H7734075   5.039   7.300   7.647  0.6145 -0.9153 -0.0466
   90MOL    C7834076   4.856   6.819   0.046 -0.4680 -0.1290  0.0632
   90MOL    C7934077   4.917   6.689   0.100 -0.6289  0.6647 -0.4600
   90MOL    C8034078   4.825   6.650   0.212  0.9385  0.0124  0.1030
   90MOL    C8134079   4.857   6.508   0.272 -0.0717 -0.1603  0.3079
   90MOL    C8234080   4.779   6.477   0.402 -0.4593  0.7088 -0.2374
   90MOL    C8334081   4.833   6.366   0.483  0.0829 -0.3972  1.2229
   90MOL    O8434082   5.050   6.716   0.155 -0.2505 -0.3379  0.0047
   90MOL    H8534083   4.747   6.817   0.048 -0.5267 -4.9317 -1.3599
   90MOL    H8634084   4.890   6.905   0.104 -0.9297  0.6270 -0.7628
   90MOL    H8734085   4.927   6.616   0.019 -1.7039  0.7877 -0.7179
   90MOL    H8834086   4.842   6.726   0.289 -1.5270  0.9085 -0.2011
   90MOL    H8934087   4.724   6.645   0.172  0.8988 -0.5007  0.2594
   90MOL    H9034088   4.961   6.500   0.305 -0.6137 -2.1040  1.6847
   90MOL    H9134089   4.844   6.433   0.194 -1.7236 -0.0318  0.4399
   90MOL    H9234090   4.750   6.564   0.460 -1.2859  0.7453 -0.7042
   90MOL    H9334091   4.683   6.438   0.368 -0.7660 -0.3389  1.7900
   90MOL    H9434092   4.912   6.404   0.549  0.3543 -1.4574  1.5157
   90MOL    H9534093   4.872   6.282   0.426 -0.5765  1.7729 -2.5976
   90MOL    H9634094   4.758   6.324   0.550 -1.3545  4.3699  2.7821
   90MOL    C9734095   5.136   6.751   0.053  0.3573  0.4401  0.2744
   90MOL    C9834096   5.280   6.730   0.107 -0.2428  0.1522 -0.1391
   90MOL    C9934097   5.362   6.636   0.019 -0.4933  0.6981 -0.4030
   90MOL   C10034098   5.499   6.609   0.089  0.4676  0.5881  0.8693
   90MOL   C10134099   5.613   6.549   0.003 -0.4610  0.3015  0.1845
   90MOL   C10234100   5.726   6.504   0.094 -0.1724 -0.2212 -0.6174
   90MOL   O10334101   5.339   6.855   0.132 -0.0869  0.3916 -0.2452
   90MOL   H10434102   5.120   6.854   0.024 -0.8175  0.1454 -0.1671
   90MOL   H10534103   5.128   6.694   7.746 -1.0334 -0.3565  0.8577
   90MOL   H10634104   5.263   6.686   0.205  1.2991 -4.7350 -1.9276
   90MOL   H10734105   5.389   6.693   7.716  0.9074  0.9799  0.1829
   90MOL   H10834106   5.311   6.547   7.768  0.5881 -0.6791  1.3282
   90MOL   H10934107   5.482   6.541   0.173 -1.4609  0.8846  0.7349
   90MOL   H11034108   5.547   6.698   0.131 -1.3254  0.2544  3.7758
   90MOL   H11134109   5.648   6.620   7.713 -2.8273  2.2839  0.8846
   90MOL   H11234110   5.574   6.463   7.734 -0.2541 -0.6887  1.5824
   90MOL   H11334111   5.779   6.424   0.042  1.2960 -1.3463  2.4739
   90MOL   H11434112   5.787   6.592   0.117  0.3405 -1.2367  2.0666
   90MOL   H11534113   5.686   6.466   0.188 -0.2619 -0.0824 -0.5990
   90MOL   C11634114   5.392   6.870   0.260 -0.2873  0.3460  0.1185
   90MOL   C11734115   5.466   7.014   0.268 -0.2022 -0.7493 -0.0706
   90MOL   C11834116   5.604   7.010   0.216  0.0804  0.4846 -0.0134
   90MOL   C11934117   5.610   6.977   0.064 -0.3054  0.0720 -0.2491
   90MOL   C12034118   5.758   6.974   0.019  1.0493  0.5363  0.6684
   90MOL   C12134119   5.766   6.969   7.655  0.5418  0.1417  0.1597
   90MOL   O12234120   5.485   7.058   0.406  0.8403  0.4550 -0.4021
   90MOL   H12334121   5.310   6.865   0.331  0.9373  0.9120  1.6243
   90MOL   H12434122   5.465   6.790   0.277 -1.0088 -0.5093 -0.7514
   90MOL   H12534123   5.411   7.088   0.210 -1.6315 -0.6996  1.3008
   90MOL   H12634124   5.665   7.100   0.227  2.6905 -1.0138 -1.6297
   90MOL   H12734125   5.653   6.927   0.267 -1.3893 -0.8768 -0.7896
   90MOL   H12834126   5.553   7.049   0.005  0.1558 -0.2567 -1.0970
   90MOL   H12934127   5.567   6.880   0.040  0.3631  0.2085 -2.0260
   90MOL   H13034128   5.807   7.068   0.044  2.9760  0.4442 -2.5744
   90MOL   H13134129   5.816   6.897   0.070  0.4752  0.4195  1.1582
   90MOL   H13234130   5.870   6.982   7.626  1.0038 -0.2826  1.5896
   90MOL   H13334131   5.720   6.882   7.609 -1.1314  0.9876  0.1765
   90MOL   H13434132   5.706   7.052   7.617 -1.4893 -0.4076  2.0307
   90MOL   C13534133   5.372   7.097   0.485  1.0090 -0.3973 -0.1187
   90MOL   C13634134   5.414   7.197   0.597 -0.0849  1.4486 -0.1920
   90MOL   C13734135   5.308   7.225   0.712  0.0971  0.7785  0.0359
   90MOL   C13834136   5.352   7.312   0.827  0.2535 -0.4078  0.1808
   90MOL   C13934137   5.487   7.286   0.893 -0.0647 -1.1719  0.5884
   90MOL   C14034138   5.507   7.137   0.936  0.3820  0.8638 -0.2669
   90MOL   O14134139   5.447   7.321   0.547 -0.0123  0.6132 -0.2438
   90MOL   H14234140   5.309   7.169   0.431  0.4511 -0.0252  1.0186
   90MOL   H14334141   5.309   7.013   0.515 -0.2880  0.3659 -0.6526
   90MOL   H14434142   5.503   7.157   0.646 -2.3817  0.7007  3.5192
   90MOL   H14534143   5.229   7.279   0.661  0.0632 -1.5042 -2.4465
   90MOL   H14634144   5.270   7.129   0.748  2.0849 -0.3668 -0.8730
   90MOL   H14734145   5.275   7.295   0.902  0.6873 -1.5758  0.3633
   90MOL   H14834146   5.352   7.418   0.803  0.2422 -0.5127 -0.2900
   90MOL   H14934147   5.503   7.354   0.976  0.4694 -1.5716  0.8153
   90MOL   H15034148   5.571   7.318   0.831 -0.5041  0.3433  0.7615
   90MOL   H15134149   5.497   7.067   0.853  0.7346  3.3126 -2.4499
   90MOL   H15234150   5.609   7.134   0.976  1.3166 -2.7398 -2.6563
   90MOL   H15334151   5.432   7.109   1.009 -0.2713  0.9660 -0.8997
   90MOL   C15434152   5.556   7.332   0.457  0.0846 -0.2228  0.0683
   90MOL   C15534153   5.592   7.482   0.418 -0.0091 -0.0705  0.3724
   90MOL   C15634154   5.722   7.529   0.481 -0.0264  0.1933 -0.3377
   90MOL   C15734155   5.860   7.468   0.446 -0.2281 -0.2315  0.2731
   90MOL   C15834156   5.983   7.513   0.533 -0.6428  0.9831  0.2868
   90MOL   C15934157   6.111   7.491   0.463  0.1740  0.2801  0.2828
   90MOL   O16034158   5.610   7.495   0.277  0.7471 -0.1572  0.1287
   90MOL   H16134159   5.531   7.280   0.365  0.0700 -0.0451 -0.0294
   90MOL   H16234160   5.640   7.271   0.490  2.3479  1.7949 -1.7261
   90MOL   H16334161   5.517   7.552   0.453 -0.4575 -0.5677  0.4070
   90MOL   H16434162   5.696   7.522   0.587  0.5633 -0.7318 -0.2447
   90MOL   H16534163   5.737   7.634   0.456 -1.3732 -0.1453 -2.7305
   90MOL   H16634164   5.889   7.490   0.344  1.5775 -0.8608  0.6251
   90MOL   H16734165   5.861   7.359   0.438 -0.0200 -0.1640 -0.6629
   90MOL   H16834166   5.971   7.619   0.554 -2.0442  1.0348 -0.7067
   90MOL   H16934167   5.984   7.469   0.633  1.5312 -2.6522 -1.2478
   90MOL   H17034168   6.132   7.384   0.459 -0.2891  0.1872  0.3674
   90MOL   H17134169   6.198   7.524   0.521 -1.5527 -0.9393  3.6901
   90MOL   H17234170   6.114   7.545   0.368  0.2670 -0.4696 -0.1390
   90MOL   C17334171   5.599   7.630   0.221 -0.4179  0.0985  0.8722
   90MOL   C17434172   5.556   7.634   0.071  0.2292 -0.4586  0.2411
   90MOL   C17534173   5.497   7.773   0.031  0.8068  0.0018  0.4745
   90MOL   C17634174   5.431   7.759   7.678  0.0618 -0.2389  0.7049
   90MOL   C17734175   5.284   7.710   7.694  0.4560 -0.5911  0.1807
   90MOL   C17834176   5.214   7.688   7.559  0.7947 -0.5274 -0.4582
   90MOL   O17934177   5.659   7.603   7.770  0.3153  0.9067  0.4527
   90MOL   H18034178   5.693   7.684   0.234 -0.7952  1.1145 -0.5492
   90MOL   H18134179   5.523   7.685   0.276  1.0512  1.1368  1.9104
   90MOL   H18234180   5.481   7.555   0.062 -1.0942  1.0618 -2.9926
   90MOL   H18334181   5.426   0.005   0.111  2.0232  0.2701  1.5151
   90MOL   H18434182   5.567   0.070   0.030  0.0614  0.6374 -1.2557
   90MOL   H18534183   5.439   0.073   7.636 -1.1056 -0.7355 -0.7313
   90MOL   H18634184   5.482   7.686   7.614  0.6527  0.9219 -0.1757
   90MOL   H18734185   5.298   7.617   7.750 -1.2177 -0.1680  1.3391
   90MOL   H18834186   5.223   7.782   7.747  1.1811 -0.2460  0.5594
   90MOL   H18934187   5.116   7.645   7.578  1.0498  0.3784  3.4302
   90MOL   H19034188   5.270   7.619   7.497  0.2849 -0.3114 -1.1602
   90MOL   H19134189   5.204   7.785   7.510 -1.4624 -0.1662  0.6488
   90MOL   C19234190   5.707   7.468   7.781 -0.0282 -0.0967 -0.8038
   90MOL   C19334191   5.833   7.432   7.696  0.3159 -0.1794 -0.3575
   90MOL   C19434192   5.795   7.405   7.555 -0.5859  0.1443 -0.4824
   90MOL   C19534193   5.919   7.377   7.468  0.0024 -0.1990 -0.0915
   90MOL   C19634194   5.896   7.373   7.317 -0.7370 -0.0836 -0.2156
   90MOL   C19734195   5.821   7.256   7.245 -0.3396 -0.4874 -0.2056
   90MOL   O19834196   5.908   7.323   7.744 -0.0428  0.4776  0.1126
   90MOL   H19934197   5.731   7.444   0.099  0.1726  4.5456  0.3550
   90MOL   H20034198   5.627   7.399   7.755 -0.9597 -0.4330  2.7334
   90MOL   H20134199   5.904   7.514   7.709 -0.3378  0.1033  1.5423
   90MOL   H20234200   5.730   7.317   7.547  0.1441 -0.7327  2.5650
   90MOL   H20334201   5.735   7.492   7.528 -0.8246  0.2253  0.3005
   90MOL   H20434202   5.972   7.288   7.501  1.3848  0.2217 -1.1339
   90MOL   H20534203   5.984   7.458   7.497 -0.6412  0.0596  0.6309
   90MOL   H20634204   5.846   7.466   7.290  0.9679  1.0993  0.6021
   90MOL   H20734205   5.994   7.377   7.270 -1.2795  0.7009 -1.2997
   90MOL   H20834206   5.853   7.250   7.141 -0.2221  0.5785 -0.2384
   90MOL   H20934207   5.848   7.159   7.286  1.5904  0.1237  0.0258
   90MOL   H21034208   5.713   7.270   7.248 -0.2307  1.0326 -2.1433
   90MOL   C21134209   5.984   7.338   0.078  0.0364 -0.1498 -0.0307
   90MOL   C21234210   6.090   7.227   0.084  0.3797 -0.5472 -0.6213
   90MOL   C21334211   6.158   7.221   0.218 -0.7509  0.3894  0.4447
   90MOL   C21434212   6.294   7.149   0.217  0.2760  0.8633 -0.3759
   90MOL   C21534213   6.349   7.107   0.354 -0.5699  0.3540 -0.2302
   90MOL   C21634214   6.386   7.215   0.450  0.4706  0.5909 -0.0179
   90MOL   O21734215   6.189   7.271   7.772  0.0782 -0.1436 -0.3530
   90MOL   H21834216   5.921   7.333   0.167 -1.3915 -0.1123 -1.0037
   90MOL   H21934217   6.027   7.437   0.088 -1.0867  0.1825  1.7075
   90MOL   H22034218   6.053   7.126   0.064  0.5110 -0.7161 -0.0330
   90MOL   H22134219   6.187   7.317   0.263  0.1436 -0.2900  1.3445
   90MOL   H22234220   6.091   7.166   0.284 -0.3252 -1.6435 -0.7918
   90MOL   H22334221   6.287   7.065   0.148  2.7255 -0.5538  1.0029
   90MOL   H22434222   6.371   7.214   0.174 -0.4918  1.0490 -1.4781
   90MOL   H22534223   6.281   7.034   0.398 -0.6318  0.4605 -0.1490
   90MOL   H22634224   6.436   7.045   0.333  0.0723  0.8994  0.7962
   90MOL   H22734225   6.406   7.309   0.398 -0.5782 -0.0020 -1.5261
   90MOL   H22834226   6.464   7.180   0.517  1.5684  1.4470 -0.8346
   90MOL   H22934227   6.301   7.235   0.516 -0.6369  1.3590 -1.6467
   90MOL   C23034228   6.200   7.195   7.656  0.8798  0.1136  0.0572
   90MOL   C23134229   6.299   7.249   7.552  0.0649 -0.1472 -0.8682
   90MOL   C23234230   6.277   7.212   7.407 -0.6117 -0.1627  0.1000
   90MOL   C23334231   6.378   7.277   7.310 -0.4010 -0.2478  0.1451
   90MOL   C23434232   6.326   7.298   7.168  0.1936 -0.3466 -0.5464
   90MOL   C23534233   6.428   7.374   7.082  0.4244 -0.2125 -0.4577
   90MOL   O23634234   6.435   7.222   7.579  0.4004 -0.1878  0.2572
   90MOL   H23734235   6.220   7.092   7.688 -0.0399  0.2091  0.9561
   90MOL   H23834236   6.101   7.189   7.611  0.8496 -2.6824  0.4080
   90MOL   H23934237   6.272   7.354   7.556 -0.0007 -0.1514 -1.2269
   90MOL   H24034238   6.180   7.251   7.374 -1.4103 -2.4018 -0.2542
   90MOL   H24134239   6.280   7.104   7.396  0.3632 -0.5830  3.7525
   90MOL   H24234240   6.471   7.220   7.306 -0.0611  0.4138 -4.0789
   90MOL   H24334241   6.417   7.369   7.355 -0.3577 -0.5358  0.6948
   90MOL   H24434242   6.317   7.200   7.122  0.8490 -0.9959  0.6539
   90MOL   H24534243   6.232   7.353   7.171 -0.6495 -1.7844 -0.0779
   90MOL   H24634244   6.434   7.474   7.123  0.2143  0.4711 -2.0744
   90MOL   H24734245   6.387   7.390   6.982 -1.0858  1.2313  0.3785
   90MOL   H24834246   6.527   7.331   7.065 -0.3449 -1.1133 -2.9820
   90MOL   C24934247   6.491   7.319   7.663 -0.1275 -0.1327 -0.5982
   90MOL   C25034248   6.648   7.323   7.681  0.4189  0.6348  0.4616
   90MOL   C25134249   6.723   7.312   7.542  0.0056  0.0313 -0.4678
   90MOL   C25234250   6.858   7.383   7.551  0.2706  0.5378  0.6008
   90MOL   C25334251   6.933   7.375   7.423 -0.4924  0.0051  0.3199
   90MOL   C25434252   7.080   7.433   7.425 -0.2433  0.4463  0.3135
   90MOL   O25534253   6.709   7.246   7.785  0.4282 -0.1802  0.4655
   90MOL   H25634254   6.468   7.410   7.608 -0.0713 -1.5753 -3.0779
   90MOL   H25734255   6.432   7.325   7.754  0.7948 -1.6026  0.1225
   90MOL   H25834256   6.672   7.426   7.710  0.5225 -0.3257  3.9755
   90MOL   H25934257   6.750   7.209   7.517 -0.9134 -0.5178  0.7641
   90MOL   H26034258   6.656   7.346   7.463 -2.1244 -3.1028 -0.1107
   90MOL   H26134259   6.848   7.490   7.570  0.7505  0.7381 -0.2059
   90MOL   H26234260   6.911   7.332   7.632 -1.4041 -1.0418  0.7291
   90MOL   H26334261   6.952   7.273   7.391  1.1944  0.6358 -0.7578
   90MOL   H26434262   6.883   7.426   7.341 -0.9941 -1.2333 -0.1441
   90MOL   H26534263   7.154   7.378   7.483 -0.0782  0.5500  0.2030
   90MOL   H26634264   7.074   7.538   7.454 -0.8791 -0.3267  3.1182
   90MOL   H26734265   7.130   7.432   7.328 -1.1050  0.7400 -0.1416
   90MOL   C26834266   6.652   7.117   0.018 -0.7955  0.0163 -0.3291
   90MOL   C26934267   6.735   7.044   0.120 -0.8285 -0.1147  0.3797
   90MOL   C27034268   6.689   6.897   0.135 -0.1184  0.4257  0.4053
   90MOL   C27134269   6.769   6.814   0.234 -0.1418 -0.3501  0.0205
   90MOL   C27234270   6.719   6.667   0.243  0.0246 -0.5695  0.0322
   90MOL   C27334271   6.590   6.637   0.321 -0.6555 -0.7748 -0.0132
   90MOL   O27434272   6.707   7.111   0.239  0.4929 -0.4512 -0.2206
   90MOL   H27534273   6.654   7.065   7.708  1.5216  1.3709 -1.0562
   90MOL   H27634274   6.549   7.112   0.053 -0.6022 -0.4503  0.1909
   90MOL   H27734275   6.839   7.048   0.086 -0.3017  2.9905  2.1923
   90MOL   H27834276   6.587   6.897   0.172  0.3795 -1.4003  1.9223
   90MOL   H27934277   6.694   6.845   0.040  2.4702  0.1425  0.6409
   90MOL   H28034278   6.875   6.814   0.209 -0.3826 -1.6729 -1.0484
   90MOL   H28134279   6.757   6.844   0.339  0.2760 -2.9426  0.8491
   90MOL   H28234280   6.710   6.625   0.143  0.1934  1.1341 -0.7337
   90MOL   H28334281   6.803   6.613   0.286  1.6897  0.9839 -1.1829
   90MOL   H28434282   6.547   6.541   0.291  0.2145 -1.0361 -0.4376
   90MOL   H28534283   6.608   6.633   0.428  1.0794 -0.2762 -0.2723
   90MOL   H28634284   6.514   6.713   0.303 -0.3932 -0.1258  1.5601
   90MOL   C28734285   6.815   7.183   0.288  0.4573  0.0339  0.3387
   90MOL   C28834286   6.780   7.296   0.395 -0.1650 -0.3313 -0.0196
   90MOL   C28934287   6.703   7.420   0.324 -0.5215 -0.3713  0.7435
   90MOL   C29034288   6.655   7.528   0.416 -0.3779  0.2070 -0.1087
   90MOL   C29134289   6.612   7.664   0.353 -0.1528 -0.5163 -0.4789
   90MOL   C29234290   6.560   7.776   0.444  0.0236 -0.4086  0.5579
   90MOL   O29334291   6.901   7.336   0.465 -0.5488 -0.2274  0.1308
   90MOL   H29434292   6.867   7.237   0.209  0.7871 -0.8415 -0.0415
   90MOL   H29534293   6.893   7.122   0.334  0.2172  1.2067  2.3962
   90MOL   H29634294   6.715   7.264   0.476 -1.5630 -0.5623 -1.2049
   90MOL   H29734295   6.748   7.470   0.239 -0.2405 -0.6035  0.7561
   90MOL   H29834296   6.616   7.386   0.267  1.1574 -1.1692 -1.4021
   90MOL   H29934297   6.567   7.493   0.470  0.3201  1.3080  1.7693
   90MOL   H30034298   6.726   7.535   0.498  0.5398  0.2720 -0.8948
   90MOL   H30134299   6.536   7.645   0.277  0.5526 -0.0058 -1.3212
   90MOL   H30234300   6.695   7.704   0.295  1.9340 -1.8689  1.5102
   90MOL   H30334301   6.455   7.753   0.463 -0.1511 -0.0541  0.0280
   90MOL   H30434302   6.627   0.005   0.528  0.3160  0.2741  0.2032
   90MOL   H30534303   6.554   0.073   0.373  1.5889 -0.9788 -0.2635
   90MOL   C30634304   6.992   7.420   0.401 -0.1683 -0.0420 -0.0633
   90MOL   C30734305   7.114   7.431   0.495 -0.3079  0.2049  0.4394
   90MOL   C30834306   7.189   7.570   0.489  0.4491 -0.6395 -0.6270
   90MOL   C30934307   7.284   7.607   0.598 -0.3587 -0.1377 -0.1635
   90MOL   C31034308   7.327   7.754   0.590 -0.3839 -0.1927 -0.1934
   90MOL   C31134309   7.454   0.003   0.507  0.1053  0.4270 -0.3436
   90MOL   O31234310   7.206   7.328   0.465 -0.2088  0.3423 -0.4275
   90MOL   H31334311   7.030   7.381   0.307 -2.5308 -2.1263 -0.2045
   90MOL   H31434312   6.946   7.518   0.391 -1.0102 -0.6637 -2.4093
   90MOL   H31534313   7.082   7.420   0.599  0.3204 -1.5522  0.4651
   90MOL   H31634314   7.108   7.642   0.501  1.6135  0.5391  0.2457
   90MOL   H31734315   7.235   7.580   0.391  0.8093 -2.0585 -0.6087
   90MOL   H31834316   7.231   7.601   0.693 -1.4474 -1.9407 -0.8691
   90MOL   H31934317   7.368   7.539   0.611  0.2810  0.5203 -0.8016
   90MOL   H32034318   7.357   7.769   0.694  0.1785 -0.5689 -0.3062
   90MOL   H32134319   7.233   0.025   0.587 -2.6883 -3.8276 -0.2672
   90MOL   H32234320   7.423   7.772   0.404  1.7740  0.1256 -0.7953
   90MOL   H32334321   7.483   0.107   0.520 -1.1189  0.9626 -1.7117
   90MOL   H32434322   7.539   7.722   0.522  0.3753  0.6563 -0.8613
   90MOL   C32534323   7.187   7.206   0.538  0.0947  0.0074 -0.2665
   90MOL   C32634324   7.283   7.098   0.500  0.1185  0.4231  0.8844
   90MOL   C32734325   7.224   6.962   0.531 -0.1527  0.2853  0.1543
   90MOL   C32834326   7.303   6.840   0.495  0.6622  0.4972  0.8148
   90MOL   C32934327   7.218   6.708   0.525 -0.2133 -0.5717  0.3782
   90MOL   C33034328   7.132   6.673   0.404 -0.6840  0.0273  0.3058
   90MOL   O33134329   7.403   7.108   0.572  0.4156  0.1770  0.2137
   90MOL   H33234330   7.086   7.170   0.517  0.3485 -0.0435 -1.4277
   90MOL   H33334331   7.188   7.211   0.647 -1.0196 -1.7072 -0.1455
   90MOL   H33434332   7.305   7.100   0.393  3.4272  1.3937  1.5104
   90MOL   H33534333   7.207   6.973   0.638 -0.5906 -0.9356  0.2138
   90MOL   H33634334   7.120   6.957   0.499 -0.3811  0.5285  0.8539
   90MOL   H33734335   7.330   6.843   0.390 -1.0489 -0.3883  0.3428
   90MOL   H33834336   7.393   6.844   0.556  1.5034  1.0768 -0.4487
   90MOL   H33934337   7.295   6.630   0.528 -0.9557 -1.2516  1.7178
   90MOL   H34034338   7.169   6.713   0.622 -2.4132 -0.5865 -0.7117
   90MOL   H34134339   7.052   6.601   0.423 -1.0260  0.5537  0.8596
   90MOL   H34234340   7.068   6.755   0.372 -2.5728 -1.1504  0.9973
   90MOL   H34334341   7.195   6.643   0.320 -0.6959 -1.0078  0.6555
   90MOL   C34434342   7.482   7.223   0.542  0.9711  0.6716  0.3359
   90MOL   C34534343   7.539   7.247   0.404 -0.0961 -0.3378  0.6521
   90MOL   C34634344   7.590   7.390   0.403 -0.1497  0.2631 -0.0156
   90MOL   C34734345   7.676   7.419   0.284 -0.0138 -0.4644  0.2704
   90MOL   C34834346   7.715   7.566   0.248 -0.3344  0.0149 -0.1897
   90MOL   C34934347   7.758   7.594   0.104  0.2212  0.4580 -0.3476
   90MOL   O35034348   7.660   7.169   0.393 -0.5965 -0.3484 -0.0338
   90MOL   H35134349   7.562   7.206   0.614 -0.4546  1.2168  2.1088
   90MOL   H35234350   7.419   7.306   0.575  0.3735 -1.2654  4.4618
   90MOL   H35334351   7.465   7.227   0.327 -0.1391  0.7853  0.4018
   90MOL   H35434352   7.643   7.427   0.491 -1.0634 -0.4588  0.8411
   90MOL   H35534353   7.506   7.453   0.375 -0.3772 -0.5029 -1.0919
   90MOL   H35634354   7.615   7.380   0.203 -0.1063  0.0021  0.1159
   90MOL   H35734355   7.772   7.368   0.296  0.8848  1.4587  1.5811
   90MOL   H35834356   0.008   7.608   0.310  0.4960 -0.2403 -1.0473
   90MOL   H35934357   7.634   7.636   0.268  0.7584  0.9864  0.9443
   90MOL   H36034358   0.002   7.698   0.092  1.8176  0.2544  1.4260
   90MOL   H36134359   7.687   7.585   0.022 -0.0496  1.6205 -0.2423
   90MOL   H36234360   0.068   7.544   0.086  1.7366  3.2242 -0.2680
   90MOL   C36334361   7.634   7.039   0.346 -0.1082 -0.7241  0.0115
   90MOL   C36434362   7.761   6.959   0.333 -0.4295 -0.2782  0.4177
   90MOL   C36534363   7.735   6.816   0.289 -0.4287 -0.0490  0.5003
   90MOL   C36634364   7.692   6.719   0.399  0.7210  0.1819  0.7476
   90MOL   C36734365   7.709   6.573   0.356  0.3613  0.1112  0.2031
   90MOL   C36834366   7.639   6.466   0.440  0.1647 -0.4555  0.0069
   90MOL   O36934367   0.057   7.029   0.241 -0.6696 -0.8188  0.4309
   90MOL   H37034368   7.593   7.053   0.246 -2.0561  0.9887  1.0119
   90MOL   H37134369   7.565   6.985   0.411 -1.1702 -0.3707 -0.8028
   90MOL   H37234370   0.014   6.957   0.435 -0.4697 -0.5367  0.4281
   90MOL   H37334371   7.667   6.821   0.204  0.3791 -0.5570 -0.1766
   90MOL   H37434372   0.047   6.780   0.257 -1.1993 -1.5185 -0.2590
   90MOL   H37534373   7.739   6.745   0.494  0.1435  0.4092  0.9722
   90MOL   H37634374   7.588   6.738   0.425  0.3544 -1.6448  0.6750
   90MOL   H37734375   7.657   6.565   0.261 -0.4326  2.7217  0.3745
   90MOL   H37834376   0.027   6.550   0.330 -0.3150  0.1606 -2.6242
   90MOL   H37934377   7.674   6.368   0.408 -2.2029 -1.3909  0.1438
   90MOL   H38034378   7.663   6.480   0.545 -0.4826 -1.1199  0.2534
   90MOL   H38134379   7.531   6.466   0.423  0.1129 -0.1862  0.3310
   90MOL   H38234380   0.024   7.117   0.245 -0.3494 -0.5174 -2.3984
   91MOL     C134381   2.147   5.779   7.179  0.3918  0.1267 -0.1590
   91MOL     C234382   2.091   5.802   7.040 -0.1124  0.3897 -0.0084
   91MOL     C334383   2.135   5.695   6.940  0.2556  0.1137  0.2134
   91MOL     C434384   2.108   5.728   6.792  0.1033  0.2650 -1.1565
   91MOL     C534385   2.124   5.600   6.699  0.3726 -0.7637  0.0243
   91MOL     C634386   2.261   5.576   6.636 -0.0219  0.3005  0.6252
   91MOL     O734387   1.948   5.806   7.034 -0.6604 -0.0511  0.7358
   91MOL     H834388   2.162   5.875   7.229 -0.8008  0.1264  0.2221
   91MOL     H934389   2.238   5.720   7.174  0.6027  0.5825 -1.7987
   91MOL    H1034390   2.138   5.895   7.009 -1.7438  1.0619 -0.5004
   91MOL    H1134391   2.243   5.681   6.944  0.2399  0.5226  2.6005
   91MOL    H1234392   2.091   5.598   6.967  3.6692 -1.4880  0.2742
   91MOL    H1334393   2.005   5.764   6.786 -0.7498 -1.7639  0.5910
   91MOL    H1434394   2.168   5.808   6.749  0.2986  1.0272  0.4976
   91MOL    H1534395   2.081   5.512   6.745  1.6548 -1.8148 -0.7541
   91MOL    H1634396   2.056   5.618   6.616  1.5166  2.3639 -0.2999
   91MOL    H1734397   2.264   5.481   6.582  2.5898  1.1054 -0.7647
   91MOL    H1834398   2.280   5.657   6.565 -1.0381  2.0671  2.3214
   91MOL    H1934399   2.331   5.579   6.720  0.7877  1.2338 -0.0580
   91MOL    H2034400   2.070   5.730   7.239  0.3771 -0.9770 -1.0610
   91MOL    C2134401   1.896   5.939   7.030  0.1883  0.9712  0.2852
   91MOL    C2234402   1.742   5.936   7.014  0.7437  0.0081 -0.1375
   91MOL    C2334403   1.695   5.864   6.887  0.1990  0.9373  0.2034
   91MOL    C2434404   1.705   5.950   6.760  0.5300  0.9368  0.9301
   91MOL    C2534405   1.628   5.882   6.645  0.8249  0.2522  0.1689
   91MOL    C2634406   1.613   5.960   6.514 -0.5120 -0.4300  0.2909
   91MOL    O2734407   1.657   5.888   7.126  0.3062  0.4709  0.2390
   91MOL    H2834408   1.940   5.996   7.112 -1.6128  0.6528  1.5047
   91MOL    H2934409   1.932   5.983   6.936 -2.2938 -0.0559 -1.2085
   91MOL    H3034410   1.706   6.038   7.006 -1.3900 -0.8469 -2.2728
   91MOL    H3134411   1.590   5.838   6.897  0.1845  0.2169 -1.5054
   91MOL    H3234412   1.741   5.768   6.859 -1.2211  0.6932 -1.3984
   91MOL    H3334413   1.809   5.951   6.727  0.5502  0.8420  0.9918
   91MOL    H3434414   1.666   6.051   6.772 -2.3951  0.0240 -0.3370
   91MOL    H3534415   1.661   5.779   6.633 -1.2688 -0.5118  0.7357
   91MOL    H3634416   1.528   5.873   6.688  0.2809 -1.8418 -1.4074
   91MOL    H3734417   1.708   5.981   6.464 -1.3340 -0.8266 -1.4891
   91MOL    H3834418   1.565   6.058   6.527  0.3127  0.1542 -0.9258
   91MOL    H3934419   1.545   5.903   6.451 -1.6701 -0.4936  1.5808
   91MOL    C4034420   1.677   5.752   7.166  0.2471 -0.0463 -0.5612
   91MOL    C4134421   1.563   5.711   7.266 -0.2979  0.3786  0.5839
   91MOL    C4234422   1.577   5.774   7.404 -0.5164 -0.0696 -0.3861
   91MOL    C4334423   1.543   5.923   7.397  0.8359 -0.4732  0.0729
   91MOL    C4434424   1.558   5.983   7.535  0.2021 -0.5594 -0.1429
   91MOL    C4534425   1.469   5.920   7.639 -0.6717  0.6559 -0.4690
   91MOL    O4634426   1.599   5.580   7.293 -0.4161  0.3467  0.8427
   91MOL    H4734427   1.770   5.739   7.221 -0.9376 -1.3747  1.1970
   91MOL    H4834428   1.674   5.677   7.087 -0.6909 -2.5693  1.7740
   91MOL    H4934429   1.464   5.715   7.221  0.9408  2.3795 -2.0507
   91MOL    H5034430   1.510   5.715   7.468 -1.7507  0.7633 -0.9025
   91MOL    H5134431   1.676   5.758   7.446  0.3017 -0.0554 -2.3088
   91MOL    H5234432   1.439   5.922   7.366  1.0442 -0.8902 -0.6292
   91MOL    H5334433   1.602   5.984   7.329  0.9129 -0.4778  0.1364
   91MOL    H5434434   1.663   5.984   7.562  0.0231  0.8920  0.5373
   91MOL    H5534435   1.534   6.089   7.526  0.8263 -0.4893 -1.1344
   91MOL    H5634436   1.494   5.816   7.662 -2.1122  0.0129 -1.6749
   91MOL    H5734437   1.480   5.979   7.729 -1.1082 -0.9471  0.6496
   91MOL    H5834438   1.369   5.926   7.597 -0.6251 -0.5433 -0.7875
   91MOL    C5934439   1.494   5.484   7.261 -0.5480  0.2124  0.4402
   91MOL    C6034440   1.534   5.339   7.285  0.0194 -0.1663  0.2662
   91MOL    C6134441   1.590   5.311   7.433  1.0158 -0.7063 -0.5509
   91MOL    C6234442   1.656   5.174   7.456  0.5558  0.1500  0.2262
   91MOL    C6334443   1.708   5.152   7.596  0.3981  0.9131  0.5466
   91MOL    C6434444   1.810   5.030   7.630 -0.0812  0.2149  0.0355
   91MOL    O6534445   1.422   5.247   7.251 -0.0849  0.2195 -0.4507
   91MOL    H6634446   1.456   5.494   7.160  0.4890 -1.6842 -0.1615
   91MOL    H6734447   1.411   5.488   7.332  0.4696 -2.5127  1.8777
   91MOL    H6834448   1.609   5.328   7.207 -0.7723  1.7105 -0.7992
   91MOL    H6934449   1.503   5.332   7.495  1.5476  2.1788 -0.7335
   91MOL    H7034450   1.648   5.397   7.465 -0.6034  0.1611  0.1090
   91MOL    H7134451   1.732   5.153   7.382 -0.2269 -0.9228 -0.2934
   91MOL    H7234452   1.586   5.091   7.444  2.4248 -1.2169 -1.3659
   91MOL    H7334453   1.622   5.147   7.662 -1.1244 -3.2220 -1.5846
   91MOL    H7434454   1.751   5.247   7.627  1.6873  0.5371 -0.0515
   91MOL    H7534455   1.897   5.056   7.570  0.2914 -1.2460 -0.0744
   91MOL    H7634456   1.826   5.025   7.738 -3.5452  0.3122  0.6172
   91MOL    H7734457   1.756   4.938   7.607 -0.3103  1.0330 -2.9191
   91MOL    C7834458   1.434   5.179   7.122  0.0597 -0.3155 -0.1804
   91MOL    C7934459   1.313   5.085   7.090  0.0954 -0.2828 -0.0514
   91MOL    C8034460   1.343   4.982   6.981 -0.0249 -0.1573  0.1392
   91MOL    C8134461   1.339   5.035   6.838  0.5644  0.4650  0.6306
   91MOL    C8234462   1.357   4.926   6.724 -0.6458 -0.6571 -0.1859
   91MOL    C8334463   1.314   4.964   6.580  0.5219 -0.0741  0.3223
   91MOL    O8434464   1.192   5.157   7.050  0.0239  0.5080 -0.6450
   91MOL    H8534465   1.522   5.116   7.136  0.2101 -0.2604 -0.8591
   91MOL    H8634466   1.450   5.252   7.044  2.0034  0.6134  1.0542
   91MOL    H8734467   1.301   5.028   7.182  2.8664 -0.0551  0.5075
   91MOL    H8834468   1.437   4.932   7.004 -0.0352  0.6574  2.0353
   91MOL    H8934469   1.277   4.895   6.990 -0.9972  0.7098  1.6530
   91MOL    H9034470   1.412   5.114   6.819  0.3778  0.8631  1.5738
   91MOL    H9134471   1.240   5.080   6.826 -0.2549 -1.6189 -0.5972
   91MOL    H9234472   1.462   4.901   6.740 -0.8912 -1.0020  0.9547
   91MOL    H9334473   1.305   4.834   6.748 -2.0983  0.0580 -0.5826
   91MOL    H9434474   1.401   5.005   6.528 -0.2264  0.3221 -0.6233
   91MOL    H9534475   1.226   5.029   6.581  0.8828  0.4499 -0.6017
   91MOL    H9634476   1.294   4.874   6.523  0.2623  1.3480 -1.9027
   91MOL    C9734477   1.102   5.189   7.157 -0.3427 -0.4724 -0.5489
   91MOL    C9834478   0.993   5.291   7.116 -0.2865  0.7523  0.2033
   91MOL    C9934479   0.862   5.287   7.202 -0.3626  0.7254  0.1824
   91MOL   C10034480   0.761   5.390   7.138  0.1743  0.0983 -0.2674
   91MOL   C10134481   0.620   5.374   7.194 -0.3928 -0.0707 -0.5333
   91MOL   C10234482   0.615   5.425   7.342  0.3304 -0.0003  0.1179
   91MOL   O10334483   1.040   5.418   7.145 -0.1422 -0.0153  0.2752
   91MOL   H10434484   1.164   5.227   7.238 -0.9882  1.9733 -1.1933
   91MOL   H10534485   1.063   5.094   7.194 -4.4599  1.4253  0.1210
   91MOL   H10634486   0.970   5.268   7.011  0.3468 -3.3637  0.8659
   91MOL   H10734487   0.877   5.309   7.308  1.3107 -0.1886  0.1541
   91MOL   H10834488   0.824   5.185   7.209  0.1024  0.2551 -3.3893
   91MOL   H10934489   0.764   5.392   7.029  2.9080 -1.2660 -0.2553
   91MOL   H11034490   0.787   5.492   7.165 -1.2529 -0.3975  3.2830
   91MOL   H11134491   0.589   5.270   7.184  3.6715 -1.5438  1.0705
   91MOL   H11234492   0.548   5.433   7.138  0.2838  2.5838  1.2734
   91MOL   H11334493   0.668   5.367   7.418  0.4474 -1.1164 -0.7861
   91MOL   H11434494   0.634   5.532   7.341  1.0724 -0.1320 -0.4654
   91MOL   H11534495   0.509   5.421   7.365  0.6253  0.9026  1.6927
   91MOL   C11634496   1.148   5.461   7.062  0.1454 -0.2486 -0.0441
   91MOL   C11734497   1.127   5.601   7.009 -0.3496  0.0050  0.1760
   91MOL   C11834498   1.204   5.620   6.879 -0.3191  0.1905  0.0079
   91MOL   C11934499   1.169   5.736   6.790  0.5831  0.7597  0.3840
   91MOL   C12034500   1.241   5.726   6.652 -0.3026  0.6319 -0.6389
   91MOL   C12134501   1.220   5.850   6.569  0.5621 -0.1332  0.4339
   91MOL   O12234502   1.184   5.681   7.115  0.6982  0.0864  0.7540
   91MOL   H12334503   1.249   5.455   7.103  1.4879 -0.2103 -3.2353
   91MOL   H12434504   1.155   5.391   6.979  0.5758 -0.6755  0.3502
   91MOL   H12534505   1.021   5.618   6.990  0.1096  0.1395 -2.5596
   91MOL   H12634506   1.308   5.633   6.908 -0.7099  0.9354  1.0902
   91MOL   H12734507   1.198   5.527   6.822  1.6335 -0.8900  1.5085
   91MOL   H12834508   1.209   5.823   6.841  1.0420 -0.1695  1.6133
   91MOL   H12934509   1.064   5.753   6.766  0.6671 -1.1010 -1.4711
   91MOL   H13034510   1.349   5.720   6.664 -0.3310  1.2610 -0.0947
   91MOL   H13134511   1.205   5.638   6.598  2.1589 -2.1505  2.0011
   91MOL   H13234512   1.120   5.861   6.527  1.2090  0.6568 -0.9285
   91MOL   H13334513   1.238   5.938   6.631 -2.7774  1.1831 -0.3152
   91MOL   H13434514   1.296   5.856   6.491  2.3816  2.6749  2.3112
   91MOL   C13534515   1.091   5.775   7.163  0.0322  0.1523 -1.4031
   91MOL   C13634516   1.140   5.835   7.306 -0.1216  0.4344 -0.4653
   91MOL   C13734517   1.100   5.740   7.422  0.1555  0.4151 -0.3241
   91MOL   C13834518   1.184   5.614   7.430 -0.2089  0.1581  1.0657
   91MOL   C13934519   1.126   5.520   7.542  0.1276 -0.7146 -0.4872
   91MOL   C14034520   1.173   5.378   7.527 -0.2482  0.1573  0.0481
   91MOL   O14134521   1.069   5.956   7.332  0.6578 -0.1315 -0.6868
   91MOL   H14234522   1.075   5.862   7.100  2.8996  0.7631 -1.3672
   91MOL   H14334523   0.992   5.734   7.185  0.3666  0.3297  0.5016
   91MOL   H14434524   1.247   5.859   7.305 -0.2392  1.1529  1.5591
   91MOL   H14534525   1.120   5.795   7.514  3.2059  0.7043 -1.1056
   91MOL   H14634526   0.994   5.719   7.407 -0.3906  2.2191  0.8268
   91MOL   H14734527   1.287   5.635   7.462 -0.2716 -0.3721  1.6412
   91MOL   H14834528   1.188   5.549   7.342  0.8563 -1.0186  1.9544
   91MOL   H14934529   1.021   5.521   7.512  0.3637  0.4894 -1.2743
   91MOL   H15034530   1.146   5.564   7.640  1.9852  0.1167 -1.2301
   91MOL   H15134531   1.122   5.333   7.442  0.6248 -0.9589  0.1000
   91MOL   H15234532   1.281   5.363   7.526 -0.7195 -3.8566  1.2409
   91MOL   H15334533   1.137   5.330   7.618 -1.0250  0.4441 -0.1049
   91MOL   C15434534   1.154   6.069   7.362  0.3037 -0.3163  0.0905
   91MOL   C15534535   1.056   6.192   7.366  0.0895  0.0641 -0.7210
   91MOL   C15634536   1.086   6.310   7.473 -0.4404  0.4128  0.3712
   91MOL   C15734537   0.967   6.405   7.495  0.4487  0.2461 -0.2248
   91MOL   C15834538   0.990   6.502   7.611  0.2929  0.7832 -0.1738
   91MOL   C15934539   0.901   6.620   7.602 -0.1928  0.5200 -0.3985
   91MOL   O16034540   1.044   6.246   7.246 -0.0403  0.1875 -0.3230
   91MOL   H16134541   1.226   6.104   7.287 -0.8011  0.4208 -0.6385
   91MOL   H16234542   1.197   6.057   7.461 -1.6148 -0.1179  0.9611
   91MOL   H16334543   0.963   6.148   7.403 -0.7722  1.9010 -0.6841
   91MOL   H16434544   1.163   6.376   7.434  1.6705 -3.1270 -1.7587
   91MOL   H16534545   1.110   6.273   7.573  0.6004 -2.3079 -0.8392
   91MOL   H16634546   0.886   6.342   7.532  0.1278 -0.3888 -1.9514
   91MOL   H16734547   0.922   6.438   7.402  0.0521 -1.0258 -0.4969
   91MOL   H16834548   0.980   6.445   7.703 -3.1297  2.7152  0.7551
   91MOL   H16934549   1.093   6.537   7.604  0.6947  0.0201  1.6267
   91MOL   H17034550   0.909   6.676   7.509  0.2613 -0.9726 -1.2719
   91MOL   H17134551   0.940   6.685   7.681  0.6743 -0.0357 -0.3666
   91MOL   H17234552   0.794   6.603   7.617 -0.1301  0.2146 -0.2949
   91MOL   C17334553   0.940   6.192   7.165 -0.5315  0.0681 -0.1694
   91MOL   C17434554   0.925   6.264   7.036 -0.3014  0.2379 -0.1430
   91MOL   C17534555   0.851   6.175   6.934 -0.1147 -0.0213  0.8885
   91MOL   C17634556   0.815   6.254   6.803  0.5693  0.3606  1.0165
   91MOL   C17734557   0.729   6.180   6.699 -0.4325 -0.4009  0.1288
   91MOL   C17834558   0.810   6.094   6.608  0.2123 -0.3424  0.0291
   91MOL   O17934559   0.846   6.383   7.055 -0.4180  0.1878  0.1741
   91MOL   H18034560   0.841   6.182   7.211 -1.6669  0.3542 -2.4491
   91MOL   H18134561   0.979   6.090   7.161 -1.2701 -0.2007 -0.7688
   91MOL   H18234562   1.024   6.304   7.013 -0.5407  1.2939  0.5790
   91MOL   H18334563   0.914   6.093   6.901 -0.0946  0.2667  0.1788
   91MOL   H18434564   0.765   6.129   6.983 -0.7701  0.2488  0.0076
   91MOL   H18534565   0.777   6.355   6.823  0.6787  1.0974 -2.1686
   91MOL   H18634566   0.915   6.266   6.760  0.4031 -1.6585  0.0225
   91MOL   H18734567   0.658   6.125   6.760 -0.8791  0.3127  0.2678
   91MOL   H18834568   0.671   6.250   6.638 -0.8028 -1.2484 -0.5103
   91MOL   H18934569   0.906   6.142   6.589 -0.1641 -0.2838 -1.7863
   91MOL   H19034570   0.758   6.076   6.514 -2.0109  0.0928  1.1527
   91MOL   H19134571   0.825   5.999   6.660 -0.3510 -1.4851 -1.8620
   91MOL   C19234572   0.910   6.487   7.113 -0.2483 -0.3363  0.2452
   91MOL   C19334573   0.808   6.600   7.149  0.3230 -0.4075 -0.4629
   91MOL   C19434574   0.895   6.730   7.173 -0.1259 -0.0584  0.4399
   91MOL   C19534575   0.805   6.849   7.185  0.1435 -0.7650 -0.1578
   91MOL   C19634576   0.785   6.918   7.325 -0.3998 -0.0308 -0.2276
   91MOL   C19734577   0.718   7.054   7.318  0.7599  0.1083 -0.3043
   91MOL   O19834578   0.740   6.576   7.270  0.2241 -0.0623 -0.5045
   91MOL   H19934579   0.986   6.464   7.188  1.3644  0.4828 -1.0966
   91MOL   H20034580   0.957   6.529   7.024  0.8347 -0.2060  0.8728
   91MOL   H20134581   0.746   6.612   7.060 -1.7593  3.7997  1.4501
   91MOL   H20234582   0.965   6.717   7.255 -0.6032  1.1336  1.0507
   91MOL   H20334583   0.968   6.742   7.093 -0.3187 -0.9469  0.1283
   91MOL   H20434584   0.707   6.821   7.146  1.4800 -1.8736 -2.8343
   91MOL   H20534585   0.846   6.925   7.119 -2.3304  1.2978  0.5908
   91MOL   H20634586   0.725   6.844   7.377 -0.4245 -0.9598 -1.5597
   91MOL   H20734587   0.883   6.935   7.371  0.7295 -1.5789 -2.0040
   91MOL   H20834588   0.699   7.089   7.420  2.9638  0.3500  0.0456
   91MOL   H20934589   0.768   7.130   7.258 -1.5283  3.1884  1.5432
   91MOL   H21034590   0.621   7.023   7.278  0.7115  0.2374 -0.2863
   91MOL   C21134591   0.640   6.471   7.268  0.3269 -1.1037 -0.6348
   91MOL   C21234592   0.559   6.489   7.401  0.0650 -0.0347 -0.6192
   91MOL   C21334593   0.545   6.361   7.483 -0.3672  0.3779 -0.0251
   91MOL   C21434594   0.468   6.390   7.615 -0.9631  0.1964  0.5546
   91MOL   C21534595   0.418   6.253   7.686 -0.2513  0.1759  0.1129
   91MOL   C21634596   0.380   6.288   0.039 -1.0448  0.3222  0.3149
   91MOL   O21734597   0.435   6.543   7.361 -0.3692  0.1429 -0.2966
   91MOL   H21834598   0.698   6.379   7.264  2.3680  0.1147  0.4425
   91MOL   H21934599   0.577   6.473   7.179 -0.1251 -1.9452 -0.3384
   91MOL   H22034600   0.607   6.562   7.467 -0.5721  0.4033 -0.6393
   91MOL   H22134601   0.486   6.290   7.424  0.0916  0.1882 -0.2578
   91MOL   H22234602   0.642   6.319   7.508  0.2705  1.2830 -0.9540
   91MOL   H22334603   0.532   6.446   7.683 -0.4893  0.0643  0.2119
   91MOL   H22434604   0.378   6.450   7.597 -0.5313  0.8127  0.4206
   91MOL   H22534605   0.332   6.209   7.635 -0.3057  0.5842 -0.1530
   91MOL   H22634606   0.496   6.177   7.682 -1.2487 -0.7947 -1.4211
   91MOL   H22734607   0.460   6.345   0.087  1.5337 -2.2840 -0.6904
   91MOL   H22834608   0.349   6.194   0.086 -0.2300  0.6049  1.4471
   91MOL   H22934609   0.295   6.355   0.030 -0.5097  0.9800  0.1545
   91MOL   C23034610   0.438   6.675   7.310  0.2248 -0.7104 -0.2235
   91MOL   C23134611   0.295   6.733   7.293  0.5220 -0.3576  0.7446
   91MOL   C23234612   0.296   6.883   7.255 -0.6327  0.2998  0.6254
   91MOL   C23334613   0.152   6.941   7.243  0.0343 -0.4755 -0.0002
   91MOL   C23434614   0.137   7.093   7.233  0.2024 -0.3946 -0.0182
   91MOL   C23534615   7.777   7.151   7.232  0.0476 -0.0725  0.5929
   91MOL   O23634616   0.224   6.716   7.411 -0.0315 -0.7462 -0.4473
   91MOL   H23734617   0.494   6.739   7.377  1.4977 -2.6238  0.5818
   91MOL   H23834618   0.496   6.685   7.219  0.3810  2.2636  0.1460
   91MOL   H23934619   0.238   6.692   7.210  0.9280  1.1590 -0.3123
   91MOL   H24034620   0.353   6.897   7.163 -2.7496  1.8831 -0.4916
   91MOL   H24134621   0.339   6.945   7.333 -2.6515 -0.7882  2.6577
   91MOL   H24234622   0.099   6.908   7.332 -1.8065 -2.3485 -1.7092
   91MOL   H24334623   0.102   6.892   7.159 -1.3663  1.6027 -0.4200
   91MOL   H24434624   0.186   7.126   7.325 -0.0254 -0.4602  0.1284
   91MOL   H24534625   0.201   7.131   7.153 -0.8867 -0.1532 -0.7882
   91MOL   H24634626   7.733   7.153   7.132 -1.0440  1.6964  1.0810
   91MOL   H24734627   7.770   7.251   7.273  0.1179  0.2120 -0.0915
   91MOL   H24834628   7.715   7.081   7.289  1.0306 -3.0842 -1.8583
   91MOL   C24934629   0.141   6.602   7.413 -0.3106 -0.1722 -1.3542
   91MOL   C25034630   0.090   6.590   7.559 -0.6343 -0.1053 -0.1102
   91MOL   C25134631   0.019   6.452   7.579  0.0351 -0.2064  0.0380
   91MOL   C25234632   0.001   6.418   7.723 -0.2434  0.1570 -0.3628
   91MOL   C25334633   7.744   6.277   7.763  0.0916 -0.1692  0.5552
   91MOL   C25434634   7.784   6.246   0.125  0.2699 -0.5157  0.4695
   91MOL   O25534635   7.771   6.690   7.575 -0.5851  0.2946 -0.3581
   91MOL   H25634636   0.049   6.612   7.355 -1.7311 -0.5116  0.7746
   91MOL   H25734637   0.190   6.512   7.377  2.0033  0.0875  1.0288
   91MOL   H25834638   0.178   6.604   7.623 -1.4052  0.6618  0.7898
   91MOL   H25934639   7.712   6.458   7.523 -0.5311 -2.0673  0.7294
   91MOL   H26034640   0.073   6.371   7.529 -1.1586 -0.8279 -0.2521
   91MOL   H26134641   0.087   6.452   7.782  0.6676  0.1922 -1.6947
   91MOL   H26234642   7.709   6.485   7.761 -0.8728 -0.8487  0.1460
   91MOL   H26334643   7.636   6.273   7.749  0.1924 -2.1396  0.2784
   91MOL   H26434644   0.005   6.199   7.703 -2.3305  0.2724 -2.0230
   91MOL   H26534645   0.103   6.273   0.139  0.0220 -0.2321  1.8646
   91MOL   H26634646   7.773   6.147   0.169  0.0308  0.2297  2.1162
   91MOL   H26734647   7.740   6.311   0.201  1.4749  0.2079  0.5614
   91MOL   C26834648   0.033   6.806   7.627 -0.1632 -0.3966 -0.1546
   91MOL   C26934649   7.704   6.909   7.636  0.0160 -0.3911 -0.2883
   91MOL   C27034650   7.772   7.043   7.656 -0.0251 -0.2398 -0.2066
   91MOL   C27134651   7.670   7.155   7.657 -0.3627  0.9114  1.0688
   91MOL   C27234652   7.724   7.288   7.715  0.2767 -0.2678 -0.4049
   91MOL   C27334653   7.784   7.377   7.602  0.1019  0.3563  0.1356
   91MOL   O27434654   7.613   6.884   7.743  0.5222 -0.4611 -0.0541
   91MOL   H27534655   0.120   6.846   7.575 -1.0481 -0.8244 -1.9901
   91MOL   H27634656   0.075   6.791   7.727  0.8041  1.2990 -0.2974
   91MOL   H27734657   7.650   6.912   7.541  0.3376  2.7012 -0.4451
   91MOL   H27834658   0.032   7.030   7.753 -1.1097 -0.5673  0.2669
   91MOL   H27934659   0.074   7.066   7.595 -0.3812 -1.7729 -1.3306
   91MOL   H28034660   7.633   7.164   7.555  2.4282 -0.0588 -0.0723
   91MOL   H28134661   7.585   7.123   7.718  0.7498 -1.8920  1.1863
   91MOL   H28234662   7.644   7.350   7.755  2.3976  1.2978  1.5406
   91MOL   H28334663   7.780   7.267   0.020  0.3820  2.3067  0.1755
   91MOL   H28434664   0.080   7.335   7.544 -0.5248 -2.5220  1.2210
   91MOL   H28534665   7.701   7.393   7.533  0.9457 -0.2751 -1.0371
   91MOL   H28634666   0.022   7.478   7.635 -0.1300 -0.0128  1.4859
   91MOL   C28734667   7.527   6.764   7.732  0.3304  0.4020  0.2336
   91MOL   C28834668   7.402   6.777   0.031  0.2956 -0.5779 -0.2235
   91MOL   C28934669   7.314   6.647   0.035  0.2559 -0.0268  0.3626
   91MOL   C29034670   7.374   6.529   0.107  0.2653 -0.1122  0.0645
   91MOL   C29134671   7.283   6.414   0.129 -0.4036 -0.4516  0.2022
   91MOL   C29234672   7.355   6.292   0.194 -0.1213  0.1752  0.0525
   91MOL   O29334673   7.326   6.887   7.761 -0.8030 -0.0425  0.5456
   91MOL   H29434674   7.579   6.671   7.755 -0.2699  0.4738  1.9614
   91MOL   H29534675   7.505   6.755   7.625  1.0019 -2.3178  0.2842
   91MOL   H29634676   7.446   6.801   0.128 -0.3527  0.1809 -0.1127
   91MOL   H29734677   7.219   6.671   0.082 -0.7346 -3.4822  0.2775
   91MOL   H29834678   7.302   6.620   7.715 -0.6449 -1.8997  0.9168
   91MOL   H29934679   7.458   6.489   0.050 -0.3387  0.3114 -1.1299
   91MOL   H30034680   7.411   6.565   0.203 -0.9074  1.9521 -0.2150
   91MOL   H30134681   7.239   6.376   0.037  0.0086 -2.1497  0.6792
   91MOL   H30234682   7.201   6.442   0.196 -3.3424 -1.2330 -2.9277
   91MOL   H30334683   7.284   6.209   0.185 -0.9072  0.9149 -0.6705
   91MOL   H30434684   7.444   6.266   0.138  0.6830  0.1997  1.3085
   91MOL   H30534685   7.377   6.311   0.299  0.1630  0.8723 -0.1355
   91MOL   C30634686   7.296   6.999   0.061  0.5673  0.6367  0.1859
   91MOL   C30734687   7.206   7.108   7.776 -0.1260  0.2523 -0.3601
   91MOL   C30834688   7.184   7.242   0.062  0.3396 -0.1117  0.3806
   91MOL   C30934689   7.276   7.352   0.025 -0.6360 -0.4774 -0.6162
   91MOL   C31034690   7.234   7.476   0.108 -0.0079 -0.4131 -0.0587
   91MOL   C31134691   7.350   7.572   0.105 -0.0825  0.2900  1.0614
   91MOL   O31234692   7.078   7.048   7.767  0.5358 -0.0713  0.7493
   91MOL   H31334693   7.254   6.974   0.158 -0.7545 -0.6827 -0.6979
   91MOL   H31434694   7.390   7.048   0.085  1.2630 -1.2136  1.3065
   91MOL   H31534695   7.247   7.132   7.678  0.5666 -0.0772 -0.1469
   91MOL   H31634696   7.170   7.229   0.169  1.1063  1.4040  0.6794
   91MOL   H31734697   7.088   7.281   0.027  0.8077  1.4408  0.7650
   91MOL   H31834698   7.377   7.323   0.054  0.2553  1.0608 -2.0891
   91MOL   H31934699   7.271   7.357   7.702  0.0065  0.1216 -0.6204
   91MOL   H32034700   7.220   7.456   0.214 -0.8893  0.7009  0.0490
   91MOL   H32134701   7.139   7.520   0.078  0.6528 -0.9162 -3.0235
   91MOL   H32234702   7.387   7.594   0.005 -1.9709  1.0824  0.5191
   91MOL   H32334703   7.312   7.668   0.140  1.0376  1.8627 -1.8891
   91MOL   H32434704   7.429   7.533   0.168  0.0267 -0.8222  0.2489
   91MOL   C32534705   7.010   7.054   7.638 -0.4951  0.2477 -0.6969
   91MOL   C32634706   7.065   6.943   7.538  0.5617  0.2464 -0.0875
   91MOL   C32734707   7.064   7.008   7.405 -0.6252 -0.0935  0.0253
   91MOL   C32834708   7.131   6.938   7.290 -0.9118 -0.1872  0.2277
   91MOL   C32934709   7.098   6.998   7.161  0.5819 -0.5989  0.1049
   91MOL   C33034710   7.166   6.925   7.050 -0.0046 -0.0452 -0.1221
   91MOL   O33134711   6.977   6.835   7.534 -0.1217 -0.3666 -0.6533
   91MOL   H33234712   7.024   7.157   7.606  0.3707  0.6473  0.8775
   91MOL   H33334713   6.905   7.046   7.663 -0.0070  0.3085  1.4589
   91MOL   H33434714   7.163   6.916   7.576  0.5809 -1.5313 -1.3466
   91MOL   H33534715   6.961   7.032   7.381 -0.8039 -0.8533  0.0256
   91MOL   H33634716   7.110   7.107   7.412  0.8050 -0.6542 -1.1738
   91MOL   H33734717   7.239   6.928   7.303 -1.0330 -2.4684 -0.3104
   91MOL   H33834718   7.100   6.834   7.300 -0.0437 -0.7311 -2.3961
   91MOL   H33934719   6.990   6.991   7.149  0.7066 -1.4010 -0.5523
   91MOL   H34034720   7.126   7.103   7.153  0.4786 -0.5023  0.9772
   91MOL   H34134721   7.133   6.956   6.951  1.7952 -0.5773 -0.9093
   91MOL   H34234722   7.272   6.952   7.057 -0.3628  2.1963 -2.5410
   91MOL   H34334723   7.152   6.818   7.042 -2.4425  0.3788 -2.3253
   91MOL   C34434724   6.985   6.751   7.653  0.1743  0.4988  0.9559
   91MOL   C34534725   6.905   6.626   7.619 -0.0422  0.2751 -0.5473
   91MOL   C34634726   6.942   6.502   7.706 -0.5405  0.5091 -0.4408
   91MOL   C34734727   6.862   6.373   7.694 -0.1066  0.0186 -0.3016
   91MOL   C34834728   6.936   6.243   7.735 -0.4638 -0.2133 -0.3963
   91MOL   C34934729   7.043   6.189   7.632  0.4588 -0.3716  0.1425
   91MOL   O35034730   6.764   6.644   7.646  0.5440  0.3161 -0.1853
   91MOL   H35134731   6.952   6.795   7.747 -0.0033  1.1647  0.5801
   91MOL   H35234732   7.092   6.733   7.663  0.4305  2.0138  1.0858
   91MOL   H35334733   6.918   6.587   7.518 -1.9475 -0.9655 -0.3420
   91MOL   H35434734   6.934   6.535   0.024  1.2972  2.2396 -0.8019
   91MOL   H35534735   7.050   6.496   7.691 -0.1856  0.2664  2.0769
   91MOL   H35634736   6.841   6.370   7.587 -0.0072  0.0107 -0.3205
   91MOL   H35734737   6.766   6.377   7.745 -1.2731  1.1064 -2.5347
   91MOL   H35834738   6.856   6.171   7.753 -0.3875 -0.8023 -2.3531
   91MOL   H35934739   6.998   6.255   0.039 -0.5260 -2.3627 -0.0252
   91MOL   H36034740   7.003   6.178   7.531 -1.3270 -3.2501  1.1095
   91MOL   H36134741   7.058   6.087   7.668 -0.1496 -0.1882  0.9222
   91MOL   H36234742   7.131   6.253   7.627  0.1740 -0.0440 -0.9284
   91MOL   C36334743   6.701   6.728   7.547  0.8055  0.7033  0.2228
   91MOL   C36434744   6.548   6.725   7.544 -0.1590  0.2683 -0.0296
   91MOL   C36534745   6.483   6.754   7.406  0.1467 -0.4167  0.0610
   91MOL   C36634746   6.488   6.910   7.365 -0.0298  0.6762  0.0376
   91MOL   C36734747   6.624   6.955   7.313 -0.0007  0.1963 -0.0115
   91MOL   C36834748   6.678   6.893   7.182  0.9602 -0.9547  0.6226
   91MOL   O36934749   6.525   6.593   7.557  0.0038  0.1035  0.3359
   91MOL   H37034750   6.742   6.682   7.457  2.2645 -0.7782  1.6137
   91MOL   H37134751   6.727   6.831   7.570 -1.4108  1.4277 -0.3714
   91MOL   H37234752   6.500   6.771   7.630  0.5600  0.6509  0.1804
   91MOL   H37334753   6.534   6.699   7.328  0.5258 -1.3040  0.9305
   91MOL   H37434754   6.380   6.717   7.406  1.1481 -3.3194 -0.1921
   91MOL   H37534755   6.410   6.938   7.295  0.4549 -1.9377 -1.5970
   91MOL   H37634756   6.464   6.962   7.458 -0.3480  1.4024 -0.4475
   91MOL   H37734757   6.613   7.063   7.303  0.3639  0.3585  1.2988
   91MOL   H37834758   6.704   6.946   7.387  0.8197 -3.1306 -1.2511
   91MOL   H37934759   6.605   6.899   7.101 -0.9399  0.6692  2.4040
   91MOL   H38034760   6.762   6.947   7.138 -0.3478 -0.0282 -0.8175
   91MOL   H38134761   6.685   6.786   7.197 -0.6654 -1.4536 -1.8664
   91MOL   H38234762   6.580   6.568   7.631 -1.2231 -2.2878  0.5011
   92MOL     C134763   7.751   6.408   6.895 -0.4832 -0.5347 -0.1204
   92MOL     C234764   0.109   6.442   6.936  0.3989 -0.2124 -0.1761
   92MOL     C334765   0.201   6.315   6.927  0.4249  0.3354  0.1312
   92MOL     C434766   0.337   6.324   7.009 -0.6961 -0.2804  0.8468
   92MOL     C534767   0.414   6.187   7.000 -0.0557 -0.0540  0.0200
   92MOL     C634768   0.523   6.170   7.097 -0.9090 -0.1322  0.1343
   92MOL     O734769   0.177   6.551   6.866 -0.4284 -0.1021  0.4577
   92MOL     H834770   7.708   6.328   6.955  0.8451  0.1156  1.7571
   92MOL     H934771   7.750   6.368   6.794  3.7022 -1.4587  0.1010
   92MOL    H1034772   0.098   6.477   7.039 -0.6809 -1.2057  0.0540
   92MOL    H1134773   0.141   6.230   6.960  0.0440 -0.3775 -2.3566
   92MOL    H1234774   0.237   6.304   6.825  1.8083 -2.1981  0.8431
   92MOL    H1334775   0.394   6.411   6.976 -0.6346 -0.5769  0.1467
   92MOL    H1434776   0.313   6.335   7.114  2.9791 -0.4537  1.7633
   92MOL    H1534777   0.337   6.112   7.016  0.6985 -0.6636  0.8649
   92MOL    H1634778   0.453   6.184   6.899 -0.1747  2.3311 -0.1194
   92MOL    H1734779   0.586   6.255   7.072 -0.6356 -0.3284  0.1470
   92MOL    H1834780   0.503   6.200   7.200  0.6888  2.0905 -0.1683
   92MOL    H1934781   0.574   6.073   7.099 -0.9667 -0.1693 -0.2354
   92MOL    H2034782   7.682   6.490   6.915 -0.8052 -0.4929 -1.3999
   92MOL    C2134783   0.143   6.687   6.901 -0.4134 -0.3470 -0.0628
   92MOL    C2234784   0.247   6.793   6.844  0.1372 -0.2494 -0.2182
   92MOL    C2334785   0.204   6.936   6.853 -0.0383 -0.3362 -0.2052
   92MOL    C2434786   0.085   6.964   6.759 -0.4779 -0.2608 -0.4321
   92MOL    C2534787   0.032   7.110   6.758  0.6799  0.0243 -0.3597
   92MOL    C2634788   0.132   7.222   6.715 -0.1340 -0.0597  0.0279
   92MOL    O2734789   0.368   6.796   6.925 -0.1864  0.0906 -0.2017
   92MOL    H2834790   0.044   6.702   6.858 -0.3328 -1.4741 -0.6632
   92MOL    H2934791   0.133   6.684   7.009  1.4987 -0.2217  0.1317
   92MOL    H3034792   0.260   6.778   6.736  0.0057  0.7342 -0.3769
   92MOL    H3134793   0.279   7.008   6.822  0.5173 -0.8700 -0.1153
   92MOL    H3234794   0.181   6.951   6.959  1.0702 -0.4127  0.0472
   92MOL    H3334795   7.783   6.906   6.791 -1.0158  0.1086 -1.2353
   92MOL    H3434796   0.107   6.922   6.661 -0.7935 -1.1113 -0.1479
   92MOL    H3534797   7.738   7.117   6.684  1.0011  0.2518 -0.6820
   92MOL    H3634798   7.772   7.136   6.854  2.6239  1.0973  0.2828
   92MOL    H3734799   0.084   7.290   6.646 -2.3440 -1.1993  0.3885
   92MOL    H3834800   0.210   7.183   6.650 -1.8157 -1.5025 -1.1697
   92MOL    H3934801   0.179   7.263   6.805  0.9606 -0.3152 -0.4158
   92MOL    C4034802   0.483   6.723   6.879 -0.3602 -0.3454 -0.2112
   92MOL    C4134803   0.568   6.819   6.788  1.0328 -0.8113 -0.1642
   92MOL    C4234804   0.665   6.749   6.685  0.6319 -0.0985 -1.0300
   92MOL    C4334805   0.777   6.670   6.751  0.3534 -0.0537 -0.1333
   92MOL    C4434806   0.848   6.582   6.651  0.3103 -0.2134 -0.2483
   92MOL    C4534807   0.923   6.654   6.540 -0.2520 -0.0165 -0.0676
   92MOL    O4634808   0.661   6.900   6.861  0.6071 -0.2220 -0.4660
   92MOL    H4734809   0.437   6.654   6.808  1.0458 -1.5238  0.0163
   92MOL    H4834810   0.544   6.667   6.949 -1.2841  0.1064  0.9594
   92MOL    H4934811   0.497   6.882   6.734 -0.8457 -0.1251  2.9537
   92MOL    H5034812   0.609   6.677   6.626  0.5724 -0.1888 -0.8636
   92MOL    H5134813   0.703   6.823   6.615  1.7572 -2.5140 -3.0127
   92MOL    H5234814   0.726   6.601   6.818 -2.1583  0.8436 -1.0423
   92MOL    H5334815   0.843   6.738   6.805  0.0261  2.0444 -2.2479
   92MOL    H5434816   0.906   6.509   6.707 -1.7640 -0.2855  1.9273
   92MOL    H5534817   0.769   6.523   6.605 -0.7243  0.0852  1.1095
   92MOL    H5634818   0.848   6.704   6.479 -0.3611 -0.3691 -0.2259
   92MOL    H5734819   1.004   6.715   6.578  0.8827 -0.5499 -1.5689
   92MOL    H5834820   0.970   6.573   6.483  0.5765 -0.5035  1.2852
   92MOL    C5934821   0.599   7.010   6.931 -0.2394  0.8494 -0.1378
   92MOL    C6034822   0.573   7.141   6.849 -0.7976  0.2983 -0.1356
   92MOL    C6134823   0.549   7.263   6.930 -0.1345 -0.4274  0.1107
   92MOL    C6234824   0.423   7.259   7.025 -0.1690  0.4751  0.6136
   92MOL    C6334825   0.353   7.394   7.055 -0.0039  0.2949  0.2649
   92MOL    C6434826   0.452   7.491   7.119  0.2412 -0.4046  0.3229
   92MOL    O6534827   0.695   7.179   6.787  0.4684 -0.7896 -0.5137
   92MOL    H6634828   0.663   7.021   7.018  1.5846 -1.2986 -1.1627
   92MOL    H6734829   0.503   6.980   6.972 -0.3084  0.9029 -0.2581
   92MOL    H6834830   0.492   7.109   6.783  1.5421 -0.9736 -2.5139
   92MOL    H6934831   0.536   7.352   6.869 -0.0908 -0.0036  0.7057
   92MOL    H7034832   0.640   7.282   6.989 -1.6777  1.2212  2.0452
   92MOL    H7134833   0.461   7.208   7.114 -2.6587  1.3678  2.2317
   92MOL    H7234834   0.350   7.194   6.976  0.7294  1.1018 -1.6274
   92MOL    H7334835   0.266   7.390   7.119  0.2874 -0.0323  0.6468
   92MOL    H7434836   0.319   7.451   6.969 -0.0740 -0.3281 -0.1217
   92MOL    H7534837   0.519   7.527   7.041 -0.9830  1.7970  0.2142
   92MOL    H7634838   0.394   7.574   7.160 -1.9668 -1.5946 -0.2938
   92MOL    H7734839   0.503   7.440   7.199  1.5561  1.5830  0.7933
   92MOL    C7834840   0.687   7.159   6.645  0.0775  1.0509 -0.8113
   92MOL    C7934841   0.827   7.189   6.591  0.0654 -0.2422  0.2727
   92MOL    C8034842   0.827   7.237   6.450  0.8315  0.2850 -0.0196
   92MOL    C8134843   0.959   7.280   6.401  0.5288  0.1764  0.1053
   92MOL    C8234844   0.989   7.426   6.450 -0.0361  0.2293  0.1422
   92MOL    C8334845   1.123   7.487   6.410 -0.5160 -0.7155 -0.5918
   92MOL    O8434846   0.915   7.077   6.598  0.4211  0.0322 -0.2107
   92MOL    H8534847   0.606   7.220   6.608 -1.7418 -0.4176  0.6517
   92MOL    H8634848   0.656   7.062   6.607  0.1400  0.2917  1.0382
   92MOL    H8734849   0.867   7.271   6.651  2.1792  0.0214 -1.4290
   92MOL    H8834850   0.782   7.153   6.396 -0.7671  1.7222 -1.0013
   92MOL    H8934851   0.750   7.313   6.432  0.7376  0.8808  2.6872
   92MOL    H9034852   0.972   7.271   6.293  0.2057 -1.1559  0.1572
   92MOL    H9134853   1.034   7.216   6.449 -0.8290 -1.3277  0.2715
   92MOL    H9234854   0.909   7.483   6.403 -1.7005 -2.0019  0.1307
   92MOL    H9334855   0.977   7.436   6.558  0.0989  1.8702  0.0060
   92MOL    H9434856   1.144   7.581   6.460 -2.8300  0.3410 -1.5787
   92MOL    H9534857   1.118   7.511   6.304  0.7617  2.6364  0.0504
   92MOL    H9634858   1.190   7.405   6.439 -1.1396 -0.6809  1.0016
   92MOL    C9734859   0.948   7.030   6.729  0.2615  0.0283  0.4492
   92MOL    C9834860   1.026   7.119   6.822 -0.8848 -0.1450 -0.2022
   92MOL    C9934861   1.001   7.085   6.967  0.0342 -0.4490  0.7300
   92MOL   C10034862   1.076   7.184   7.058  0.7503  0.5348  0.1983
   92MOL   C10134863   1.073   7.151   7.212 -0.5081  0.8652  0.4926
   92MOL   C10234864   1.187   7.207   7.305  1.0821 -0.1331 -0.2370
   92MOL   O10334865   1.167   7.088   6.792 -0.1197 -0.1937  0.1415
   92MOL   H10434866   1.002   6.935   6.720 -1.3549 -0.7917 -0.9899
   92MOL   H10534867   0.861   6.991   6.782  1.5264 -0.0983  2.4945
   92MOL   H10634868   1.001   7.223   6.805 -1.8229  0.0532  2.1549
   92MOL   H10734869   1.025   6.982   6.993 -1.0893 -0.1387  3.2303
   92MOL   H10834870   0.896   7.093   6.993  0.0224 -1.7163  1.1009
   92MOL   H10934871   1.039   7.285   7.041 -0.6656 -0.2680 -1.5750
   92MOL   H11034872   1.183   7.183   7.038  0.3807  1.2438 -1.8751
   92MOL   H11134873   1.060   7.043   7.202  0.3766  0.6870  1.2636
   92MOL   H11234874   0.975   7.184   7.247 -0.2792  1.6965  0.3502
   92MOL   H11334875   1.280   7.163   7.270  1.3208  1.1278 -1.2166
   92MOL   H11434876   1.190   7.316   7.304 -2.8297  0.0603  1.6897
   92MOL   H11534877   1.172   7.178   7.409 -4.1433  0.1276 -0.8003
   92MOL   C11634878   1.205   7.111   6.658 -0.3952  0.0053 -0.5230
   92MOL   C11734879   1.358   7.139   6.653 -0.2446  1.1007  0.6675
   92MOL   C11834880   1.405   7.268   6.726  0.4850  0.9554  0.3280
   92MOL   C11934881   1.545   7.244   6.786 -0.2899  0.1950 -0.0764
   92MOL   C12034882   1.605   7.366   6.855 -0.0410  0.3530  0.0598
   92MOL   C12134883   1.759   7.355   6.885 -0.3394  0.3968  0.0251
   92MOL   O12234884   1.405   7.141   6.527  0.3258  0.3700  0.4608
   92MOL   H12334885   1.188   7.017   6.606 -1.3661 -1.3188  2.0691
   92MOL   H12434886   1.153   7.188   6.602 -0.1041 -0.1870 -1.0541
   92MOL   H12534887   1.411   7.058   6.704 -0.1143  1.3832  0.9782
   92MOL   H12634888   1.400   7.347   6.651  0.4683  0.4995 -0.1535
   92MOL   H12734889   1.343   7.287   6.813  1.2902 -0.0092  1.1330
   92MOL   H12834890   1.616   7.224   6.706 -0.4774  3.4154 -1.1308
   92MOL   H12934891   1.555   7.153   6.845  0.9023  0.6097  0.3712
   92MOL   H13034892   1.593   7.456   6.795 -2.7146  0.9247  1.3808
   92MOL   H13134893   1.552   7.365   6.951 -1.5828 -0.2887 -0.7807
   92MOL   H13234894   1.817   7.318   6.801 -0.5668 -2.0357  0.8940
   92MOL   H13334895   1.801   7.450   6.919  0.6754 -0.3493  0.8958
   92MOL   H13434896   1.768   7.284   6.967 -0.8139  1.3980  0.9660
   92MOL   C13534897   1.365   7.036   6.435 -0.1488  0.0201  0.3596
   92MOL   C13634898   1.458   7.039   6.310  0.0422  0.4367  0.5217
   92MOL   C13734899   1.495   7.183   6.267 -0.2216 -0.0615 -0.0457
   92MOL   C13834900   1.560   7.192   6.131  0.2445  0.7413  0.2729
   92MOL   C13934901   1.688   7.098   6.111  0.1562  0.1698  0.1450
   92MOL   C14034902   1.729   7.118   5.963  0.0516  0.1097  0.4764
   92MOL   O14134903   1.408   6.963   6.195  0.2988  0.3723  0.4106
   92MOL   H14234904   1.373   6.940   6.485  0.2116  0.1029  0.4627
   92MOL   H14334905   1.269   7.063   6.393  0.4373 -0.5546 -1.3954
   92MOL   H14434906   1.555   7.005   6.347  0.4839  0.0649 -0.9425
   92MOL   H14534907   1.398   7.234   6.267  0.1927  0.7363 -0.3818
   92MOL   H14634908   1.564   7.227   6.339  2.8149 -0.4624 -2.5896
   92MOL   H14734909   1.577   7.297   6.109  1.1471  0.7191  0.7931
   92MOL   H14834910   1.485   7.155   6.062 -0.1747  1.2000  0.4838
   92MOL   H14934911   1.672   6.994   6.142  2.0073 -0.2950 -0.4415
   92MOL   H15034912   1.769   7.137   6.173 -1.3439  1.1285  1.5610
   92MOL   H15134913   1.651   7.108   5.888 -0.4123 -1.4494  1.1360
   92MOL   H15234914   1.771   7.218   5.952 -1.7696  0.7373 -0.9433
   92MOL   H15334915   1.801   7.039   5.942  1.0963  1.0671  0.4069
   92MOL   C15434916   1.395   6.822   6.215 -0.3992  0.0188 -0.4974
   92MOL   C15534917   1.337   6.753   6.098  0.4924 -0.6726 -0.6278
   92MOL   C15634918   1.337   6.605   6.106  0.4365  0.2237  0.1101
   92MOL   C15734919   1.320   6.536   5.968  0.0744  0.0862 -0.3446
   92MOL   C15834920   1.444   6.534   5.877 -0.3587 -0.2521 -0.2018
   92MOL   C15934921   1.411   6.482   5.738  0.1670  0.0539 -0.0754
   92MOL   O16034922   1.199   6.782   6.084 -0.2245 -0.0536  0.3359
   92MOL   H16134923   1.326   6.794   6.294 -3.3830 -1.1904 -3.4274
   92MOL   H16234924   1.488   6.777   6.251 -0.1006  0.4394 -0.7424
   92MOL   H16334925   1.397   6.786   6.013 -1.6127  0.9131 -1.5380
   92MOL   H16434926   1.256   6.581   6.174  0.0685 -0.4723 -0.5677
   92MOL   H16534927   1.428   6.564   6.151  0.9440  0.3425 -0.7917
   92MOL   H16634928   1.242   6.589   5.914 -0.4671 -0.7122 -0.3493
   92MOL   H16734929   1.281   6.436   5.984 -1.3887  0.5985 -0.5627
   92MOL   H16834930   1.473   6.639   5.876  0.8558 -0.5856 -2.0326
   92MOL   H16934931   1.518   6.475   5.932 -0.4109  0.2468  0.4044
   92MOL   H17034932   1.432   6.375   5.735  1.3341  0.3036 -1.8720
   92MOL   H17134933   1.460   6.539   5.658 -1.5261  2.2371  0.4130
   92MOL   H17234934   1.307   6.500   5.710  0.0748 -1.2833 -0.6754
   92MOL   C17334935   1.159   6.901   6.016 -0.4086 -0.4715 -0.0048
   92MOL   C17434936   1.069   6.990   6.101  0.7873  0.1943 -0.3744
   92MOL   C17534937   1.059   7.134   6.039 -0.2171 -0.3691 -0.5471
   92MOL   C17634938   1.194   7.210   6.039 -0.2609 -0.0939  0.1145
   92MOL   C17734939   1.171   7.362   6.017  0.1232  0.0996 -1.1786
   92MOL   C17834940   1.296   7.442   6.041 -0.2527 -0.4942  0.1272
   92MOL   O17934941   0.935   6.935   6.102  0.2284  0.0766 -0.0208
   92MOL   H18034942   1.107   6.869   5.926  0.8105 -1.4527 -0.3756
   92MOL   H18134943   1.251   6.956   5.999 -0.2608  0.0090  2.2377
   92MOL   H18234944   1.114   7.006   6.199 -1.6235  0.2344  0.7709
   92MOL   H18334945   1.026   7.114   5.937  0.4466  0.6454 -0.9634
   92MOL   H18434946   0.981   7.185   6.095 -1.0268 -3.3008  1.1515
   92MOL   H18534947   1.231   7.200   6.142 -0.1625 -2.7272 -0.1638
   92MOL   H18634948   1.252   7.167   5.958 -0.3486  1.1041 -0.5967
   92MOL   H18734949   1.144   7.370   5.911 -2.9670 -1.8182 -0.6110
   92MOL   H18834950   1.087   7.401   6.075  0.6965 -0.8919  0.3307
   92MOL   H18934951   1.325   7.448   6.146  1.5369  2.1515 -0.4533
   92MOL   H19034952   1.288   7.548   6.016 -1.9604 -0.1036  2.2117
   92MOL   H19134953   1.377   7.403   5.980 -0.9177 -2.5416  0.5216
   92MOL   C19234954   0.865   6.955   6.220  0.6804  0.1439  0.3386
   92MOL   C19334955   0.730   6.877   6.197 -0.2251 -0.3673  0.3128
   92MOL   C19434956   0.628   6.918   6.300  0.0007  0.6617 -0.1428
   92MOL   C19534957   0.508   6.835   6.301  0.7008  0.6213 -0.3955
   92MOL   C19634958   0.387   6.887   6.386  0.1376 -0.4504  0.5234
   92MOL   C19734959   0.338   7.023   6.338 -0.4962  0.7145  1.0278
   92MOL   O19834960   0.747   6.737   6.219  0.3216  0.2696  0.0031
   92MOL   H19934961   0.921   6.915   6.304  1.0705 -1.2310 -0.5639
   92MOL   H20034962   0.843   7.061   6.236 -0.7493 -0.1975  0.6417
   92MOL   H20134963   0.689   6.900   6.098 -1.0453  2.2243  1.1975
   92MOL   H20234964   0.678   6.915   6.396  2.2614 -2.8930 -1.3161
   92MOL   H20334965   0.602   7.023   6.287 -0.1296  1.0173  2.7380
   92MOL   H20434966   0.533   6.743   6.354 -1.7601  0.5288  0.7153
   92MOL   H20534967   0.482   6.807   6.199 -2.3231 -1.3906  0.8393
   92MOL   H20634968   0.313   6.810   6.363  0.6986 -0.2339 -2.2866
   92MOL   H20734969   0.419   6.887   6.490  2.6351 -0.3649 -0.2058
   92MOL   H20834970   0.416   7.095   6.363  1.4528 -0.9681 -0.1195
   92MOL   H20934971   0.323   7.022   6.230  0.6014 -1.8834  0.8630
   92MOL   H21034972   0.248   7.057   6.390  0.0687  1.2154  1.6917
   92MOL   C21134973   0.844   6.664   6.142 -0.6834  0.6172  0.7868
   92MOL   C21234974   0.805   6.514   6.130  0.2946  0.6141  0.2407
   92MOL   C21334975   0.927   6.417   6.124 -0.2283 -0.5537 -0.3427
   92MOL   C21434976   0.971   6.364   6.261 -0.6432 -0.0531  0.4613
   92MOL   C21534977   1.043   6.226   6.251 -0.4218  0.3045 -0.2698
   92MOL   C21634978   1.188   6.238   6.211 -0.9405 -0.1803 -0.0216
   92MOL   O21734979   0.719   6.484   6.021  0.0169 -0.2847  0.2841
   92MOL   H21834980   0.941   6.663   6.192 -0.6166 -0.6102  0.6460
   92MOL   H21934981   0.857   6.699   6.039  1.7957 -0.6249  0.6453
   92MOL   H22034982   0.741   6.480   6.212 -1.7015  0.3115 -1.4012
   92MOL   H22134983   0.895   6.334   6.061 -2.4837 -0.3282  0.4363
   92MOL   H22234984   1.009   6.455   6.063  0.4045  0.5624  1.1834
   92MOL   H22334985   1.031   6.432   6.321 -1.5881 -0.0184  1.3621
   92MOL   H22434986   0.881   6.346   6.319 -0.3190  1.9357  1.6272
   92MOL   H22534987   1.031   6.174   6.346 -1.2519 -0.3813 -0.7459
   92MOL   H22634988   0.985   6.165   6.182  0.0182 -0.0277 -0.3500
   92MOL   H22734989   1.226   6.157   6.149  1.2230  1.7596 -1.2992
   92MOL   H22834990   1.251   6.268   6.295 -1.0807 -1.3568  0.5204
   92MOL   H22934991   1.202   6.307   6.129 -0.6538 -0.5374 -0.2747
   92MOL   C23034992   0.597   6.563   6.024 -0.3848  0.5490 -0.2718
   92MOL   C23134993   0.490   6.511   5.919  0.2877 -0.0346  0.2295
   92MOL   C23234994   0.551   6.473   5.782 -0.8606  0.1216 -0.5471
   92MOL   C23334995   0.447   6.438   5.677 -0.1347 -0.5104  0.8495
   92MOL   C23434996   0.508   6.446   5.531 -0.9987 -0.3739  0.0934
   92MOL   C23534997   0.605   6.322   5.515  0.8014  0.6204  0.2153
   92MOL   O23634998   0.392   6.607   5.888  0.0203  0.3279 -0.4503
   92MOL   H23734999   0.553   6.562   6.123 -0.1040  2.0531 -0.1282
   92MOL   H23835000   0.619   6.666   5.999 -0.0192  0.8414  1.2491
   92MOL   H23935001   0.439   6.419   5.952 -0.1907  0.4449  0.8485
   92MOL   H24035002   0.641   6.412   5.784 -1.2142 -0.4818 -2.1661
   92MOL   H24135003   0.580   6.570   5.742 -2.3848  0.5453 -0.6662
   92MOL   H24235004   0.360   6.503   5.667 -0.8757 -1.6337 -0.2659
   92MOL   H24335005   0.405   6.338   5.690  0.6255 -0.8757  0.5323
   92MOL   H24435006   0.434   6.444   5.451 -0.0466 -1.3019 -0.7952
   92MOL   H24535007   0.560   6.541   5.517 -1.8652  0.4475  2.3034
   92MOL   H24635008   0.648   6.316   5.415  0.4611 -1.3611  0.1628
   92MOL   H24735009   0.560   6.224   5.532  1.6785  0.1950  0.0747
   92MOL   H24835010   0.683   6.341   5.588 -0.0183 -1.9234  1.8082
   92MOL   C24935011   0.293   6.606   5.987 -0.3885  0.0402 -0.7197
   92MOL   C25035012   0.184   6.716   5.977 -1.4045 -0.6245  0.1306
   92MOL   C25135013   0.109   6.717   6.108 -0.4579  0.6944  0.2262
   92MOL   C25235014   0.027   6.837   6.133 -0.1302  0.1210  0.1929
   92MOL   C25335015   7.765   6.874   6.272  0.7188  0.3810 -0.5298
   92MOL   C25435016   7.651   6.986   6.261 -0.2686 -0.0627  0.2394
   92MOL   O25535017   0.097   6.704   5.868  0.3597  0.2086 -0.0247
   92MOL   H25635018   0.242   6.509   5.996 -1.0622  0.6257  2.2633
   92MOL   H25735019   0.346   6.622   6.080 -1.2992  1.5721 -0.4577
   92MOL   H25835020   0.235   6.812   5.969 -1.5991 -0.6382 -1.5325
   92MOL   H25935021   0.043   6.630   6.114 -0.7796  0.7623 -1.8407
   92MOL   H26035022   0.174   6.693   6.192  2.0348 -3.5398 -2.7260
   92MOL   H26135023   0.089   6.920   6.100  0.1657 -0.4245 -0.6187
   92MOL   H26235024   7.734   6.837   6.057 -1.0095  0.6300  1.0868
   92MOL   H26335025   7.717   6.785   6.313  0.5934  1.5872  2.0228
   92MOL   H26435026   0.048   6.908   6.349 -1.6436 -0.2769  1.9401
   92MOL   H26535027   7.697   7.071   6.211  0.0509 -0.2169  0.2666
   92MOL   H26635028   7.627   7.012   6.364  2.6357  0.8615  0.7198
   92MOL   H26735029   7.563   6.949   6.208 -0.1473  1.3913 -1.0019
   92MOL   C26835030   0.151   6.735   5.737 -0.1251  0.0255  0.5155
   92MOL   C26935031   0.040   6.710   5.625 -0.4444 -0.3550  0.3265
   92MOL   C27035032   0.111   6.690   5.495 -0.0840  0.6364 -0.4825
   92MOL   C27135033   0.029   6.664   5.370  0.0898  0.3648  0.0486
   92MOL   C27235034   0.105   6.659   5.240  0.3624 -0.1041  0.6779
   92MOL   C27335035   0.023   6.618   5.118  1.2639  0.1571 -0.4653
   92MOL   O27435036   7.741   6.823   5.611 -0.8283  0.3306 -0.1588
   92MOL   H27535037   0.233   6.665   5.724  1.7454  1.9563  1.6457
   92MOL   H27635038   0.190   6.836   5.733  0.3957 -0.1525  1.1106
   92MOL   H27735039   7.773   6.615   5.636 -1.6758  0.2937  0.1871
   92MOL   H27835040   0.176   6.777   5.482 -1.1348  1.7815  1.6893
   92MOL   H27935041   0.174   6.604   5.473  1.3735  1.6080 -0.1589
   92MOL   H28035042   7.756   6.573   5.380  0.6697  0.0121  0.2663
   92MOL   H28135043   7.724   6.725   5.366 -0.6552 -0.7676 -0.5165
   92MOL   H28235044   0.141   6.761   5.224 -0.7526 -0.0967 -2.1105
   92MOL   H28335045   0.193   6.596   5.236 -0.5109 -1.2438 -1.4471
   92MOL   H28435046   7.713   6.671   5.118  0.9304 -0.4317  1.8197
   92MOL   H28535047   0.091   6.632   5.034  0.9312  0.8198 -0.6340
   92MOL   H28635048   7.784   6.513   5.108  1.2433  0.1727 -0.5793
   92MOL   C28735049   7.650   6.843   5.722 -0.4322  0.6465  0.1815
   92MOL   C28835050   7.530   6.930   5.690  0.1736 -0.5844  0.0748
   92MOL   C28935051   7.487   7.002   5.821 -0.2783 -0.5364  0.2176
   92MOL   C29035052   7.389   7.117   5.807  0.3258 -0.2626 -0.8152
   92MOL   C29135053   7.450   7.236   5.727  0.0657 -0.2050  0.0959
   92MOL   C29235054   7.367   7.364   5.728 -0.3378 -0.5286 -0.0417
   92MOL   O29335055   7.415   6.852   5.641 -0.3890  0.4800  0.5623
   92MOL   H29435056   7.715   6.884   5.799 -1.3878 -1.5832  2.2613
   92MOL   H29535057   7.617   6.741   5.745 -1.3501  0.4649 -1.8804
   92MOL   H29635058   7.558   7.008   5.620 -0.1477 -1.9092 -1.5702
   92MOL   H29735059   7.437   6.923   5.878  0.9570 -1.4888  0.0040
   92MOL   H29835060   7.578   7.029   5.874 -1.5850  1.6807  1.4278
   92MOL   H29935061   7.299   7.086   5.755 -0.7939 -0.0854  0.9882
   92MOL   H30035062   7.356   7.148   5.906  1.6304  1.1078 -0.7994
   92MOL   H30135063   7.468   7.212   5.623  0.2357 -1.1397  0.3368
   92MOL   H30235064   7.549   7.260   5.765 -0.2866 -1.2686  1.7378
   92MOL   H30335065   7.304   7.366   5.817 -0.8240 -2.5722 -0.3075
   92MOL   H30435066   7.429   7.453   5.733 -0.3681 -0.4446 -1.0640
   92MOL   H30535067   7.298   7.374   5.644 -1.8357  0.1654  1.2440
   92MOL   C30635068   7.435   6.814   5.507 -0.2909  0.8175 -0.3901
   92MOL   C30735069   7.302   6.758   5.464 -0.5395  0.3900  0.0049
   92MOL   C30835070   7.330   6.630   5.380 -0.0364  0.2568 -0.3509
   92MOL   C30935071   7.201   6.570   5.331 -0.0660  0.1067  0.0966
   92MOL   C31035072   7.237   6.425   5.283 -0.1376  0.4281 -0.1428
   92MOL   C31135073   7.116   6.349   5.220  1.1872 -0.0631 -0.7295
   92MOL   O31235074   7.242   6.856   5.383  0.2637  0.0929 -0.3558
   92MOL   H31335075   7.457   6.901   5.444 -0.4404  0.7025 -0.6035
   92MOL   H31435076   7.520   6.746   5.494 -2.9885 -2.6698 -0.4161
   92MOL   H31535077   7.243   6.729   5.551  0.4385 -0.4843  0.3875
   92MOL   H31635078   7.394   6.563   5.439 -0.0554 -0.8802 -1.6046
   92MOL   H31735079   7.395   6.659   5.297  2.1114  1.6842  1.7487
   92MOL   H31835080   7.131   6.577   5.414 -2.1295  1.4238 -1.7258
   92MOL   H31935081   7.158   6.624   5.247 -1.4505 -0.3958  0.4761
   92MOL   H32035082   7.272   6.366   5.368 -0.7190 -0.7665 -0.7189
   92MOL   H32135083   7.316   6.434   5.209 -2.0829  2.7449 -2.0516
   92MOL   H32235084   7.059   6.410   5.149 -1.4148 -3.1008 -1.3307
   92MOL   H32335085   7.137   6.251   5.177  1.2880  0.2334 -1.3636
   92MOL   H32435086   7.038   6.328   5.292  1.2449 -2.0200 -1.2130
   92MOL   C32535087   7.202   6.975   5.449  0.1448  0.4559 -0.0742
   92MOL   C32635088   7.065   7.034   5.400  0.2466  0.1699  0.1107
   92MOL   C32735089   7.047   7.172   5.453  0.0035  0.6382 -0.1242
   92MOL   C32835090   6.916   7.239   5.411  0.3047 -0.1425  0.1214
   92MOL   C32935091   6.897   7.386   5.466 -0.6222  0.9507 -0.5179
   92MOL   C33035092   6.760   7.432   5.442 -0.4392  0.3162  0.6795
   92MOL   O33135093   6.945   6.962   5.436 -0.1373 -0.3490 -1.0888
   92MOL   H33235094   7.290   7.038   5.438 -0.8574  1.4412 -3.0574
   92MOL   H33335095   7.193   6.951   5.555 -1.2252  0.1914 -0.2344
   92MOL   H33435096   7.069   7.033   5.291  3.3041  1.6859  0.1430
   92MOL   H33535097   7.050   7.152   5.560 -0.1541 -0.5344 -0.3409
   92MOL   H33635098   7.134   7.234   5.429 -1.2797  1.8765 -1.6557
   92MOL   H33735099   6.917   7.246   5.302  1.3164  1.3553  0.2086
   92MOL   H33835100   6.833   7.171   5.430 -0.0025 -0.1388 -1.2005
   92MOL   H33935101   6.916   7.381   5.574 -2.9626  1.1635 -0.0756
   92MOL   H34035102   6.961   7.458   5.416  1.4787  0.2534  1.0965
   92MOL   H34135103   6.737   7.531   5.482  1.9663  0.9943  0.4699
   92MOL   H34235104   6.739   7.440   5.335  1.0611 -1.4168  0.2403
   92MOL   H34335105   6.687   7.363   5.485  1.3303 -0.9456  1.6960
   92MOL   C34435106   6.910   6.853   5.350 -0.7301  0.6525 -0.1114
   92MOL   C34535107   6.803   6.765   5.421 -0.4342  0.3553 -0.3678
   92MOL   C34635108   6.734   6.663   5.321 -0.0174  0.0065 -0.3323
   92MOL   C34735109   6.658   6.548   5.395 -0.3415 -0.4246  0.3983
   92MOL   C34835110   6.552   6.479   5.312  0.2518  0.4546  0.1373
   92MOL   C34935111   6.472   6.363   5.378 -0.1817  0.0467 -0.2167
   92MOL   O35035112   6.867   6.672   5.516 -0.5115  0.8356 -0.5693
   92MOL   H35135113   6.997   6.792   5.324 -0.7495  0.9537 -0.8985
   92MOL   H35235114   6.876   6.906   5.261 -0.7715  0.9854  0.1058
   92MOL   H35335115   6.734   6.831   5.473  0.6824  0.8520  0.5159
   92MOL   H35435116   6.816   6.637   5.254  1.8618  3.8502  0.3384
   92MOL   H35535117   6.670   6.724   5.258 -3.2283 -1.0225  1.8383
   92MOL   H35635118   6.607   6.583   5.485 -0.1955  0.9384 -0.0378
   92MOL   H35735119   6.729   6.474   5.431 -1.3008 -1.4069  0.3063
   92MOL   H35835120   6.610   6.434   5.231 -2.3321 -2.6288 -0.0714
   92MOL   H35935121   6.484   6.546   5.260 -2.2524 -1.6118  0.6482
   92MOL   H36035122   6.391   6.404   5.438 -0.4624  0.2946 -0.7610
   92MOL   H36135123   6.532   6.323   5.460 -2.8372 -0.5658  1.4580
   92MOL   H36235124   6.426   6.293   5.308 -0.3171  0.2837 -0.3638
   92MOL   C36335125   6.937   6.720   5.620 -0.0443  0.1722  0.6464
   92MOL   C36435126   6.850   6.772   5.735 -0.7357  0.5054  0.5104
   92MOL   C36535127   6.924   6.746   5.869 -0.0295 -0.0863  0.7156
   92MOL   C36635128   6.846   6.785   5.993  0.2681  0.0583  0.6307
   92MOL   C36735129   6.928   6.764   6.122  0.0089  0.2850 -0.3799
   92MOL   C36835130   6.853   6.779   6.251  0.3283 -0.0850 -0.3375
   92MOL   O36935131   6.821   6.905   5.698 -0.1044  0.1792 -0.5932
   92MOL   H37035132   7.015   6.785   5.580  0.1416 -0.5885 -0.2450
   92MOL   H37135133   6.998   6.636   5.653 -0.2268  0.1784  1.0062
   92MOL   H37235134   6.755   6.718   5.744 -0.6897 -0.2657 -2.9251
   92MOL   H37335135   6.942   6.639   5.880 -1.9403 -0.5222 -0.1514
   92MOL   H37435136   7.016   6.804   5.862 -0.0178 -0.3104 -1.2348
   92MOL   H37535137   6.824   6.891   5.981  1.4425  0.1746 -0.6333
   92MOL   H37635138   6.758   6.721   5.995  0.6925 -0.5185  1.1685
   92MOL   H37735139   6.959   6.660   6.121  0.8360  0.4815  1.7429
   92MOL   H37835140   7.016   6.829   6.121 -0.5475  1.0480  0.0124
   92MOL   H37935141   6.800   6.871   6.278  0.3599  0.4597 -2.0502
   92MOL   H38035142   6.767   6.713   6.247 -1.0454  1.5317  1.2367
   92MOL   H38135143   6.913   6.756   6.339 -0.3813  1.3016  0.5362
   92MOL   H38235144   6.848   6.918   5.609 -0.0337  0.0431 -0.5917
   93MOL     C135145   7.207   1.965   0.176  0.2779  0.1212  0.3020
   93MOL     C235146   7.233   2.097   0.241  0.1388 -0.0004  0.2290
   93MOL     C335147   7.314   2.199   0.156  0.0015 -0.1329  0.3208
   93MOL     C435148   7.463   2.195   0.193  0.2996  0.1497 -0.2143
   93MOL     C535149   7.534   2.266   0.072 -0.0485 -0.1675  0.4222
   93MOL     C635150   7.684   2.281   0.088  0.5538 -0.3592  0.4505
   93MOL     O735151   7.109   2.152   0.274  0.2347 -0.0695 -0.9648
   93MOL     H835152   7.142   1.972   0.089  1.4501  0.3686 -0.5625
   93MOL     H935153   7.153   1.902   0.247 -0.2626 -0.0569 -0.2569
   93MOL    H1035154   7.285   2.082   0.336 -0.8496 -2.2682  0.4437
   93MOL    H1135155   7.301   2.165   0.054 -1.2383 -1.9892  1.0540
   93MOL    H1235156   7.273   2.300   0.163  0.8339  0.4237 -2.4325
   93MOL    H1335157   7.479   2.251   0.286 -0.6654  3.0261 -1.7354
   93MOL    H1435158   7.491   2.092   0.215  0.1407  0.3088  0.7619
   93MOL    H1535159   7.521   2.205   7.768  1.3982 -0.3746  0.3491
   93MOL    H1635160   7.486   2.363   0.054 -0.5429 -0.2329  1.3715
   93MOL    H1735161   7.714   2.326   0.183 -1.1399 -0.3089  0.9873
   93MOL    H1835162   7.732   2.185   0.070 -0.6337 -1.3385  2.3354
   93MOL    H1935163   7.734   2.346   0.016 -0.7110 -1.3971 -1.3855
   93MOL    H2035164   7.296   1.905   0.158 -0.4237 -1.2272  1.2558
   93MOL    C2135165   7.065   2.149   0.413 -0.7826 -0.0204  0.2702
   93MOL    C2235166   6.917   2.212   0.413 -0.1276 -0.0408 -0.4710
   93MOL    C2335167   6.815   2.147   0.503 -0.1781 -0.1116 -0.0998
   93MOL    C2435168   6.664   2.175   0.478 -1.1042 -0.6419 -0.2483
   93MOL    C2535169   6.582   2.080   0.557 -0.2858  0.0634 -0.3911
   93MOL    C2635170   6.428   2.098   0.527 -0.4645  0.0406 -0.2028
   93MOL    O2735171   6.936   2.351   0.437  0.3982  0.3214 -0.3519
   93MOL    H2835172   7.056   2.044   0.443  1.0637  0.2151  1.8428
   93MOL    H2935173   7.132   2.188   0.490  0.0488 -1.1804  0.1506
   93MOL    H3035174   6.861   2.202   0.319 -0.3489 -0.1370 -0.3315
   93MOL    H3135175   6.847   2.180   0.602 -2.8502  0.8432  0.4892
   93MOL    H3235176   6.824   2.039   0.515  0.4532  0.0086  0.4874
   93MOL    H3335177   6.651   2.152   0.372  3.1210 -2.3052 -0.5080
   93MOL    H3435178   6.641   2.280   0.495  0.1973 -0.0735 -1.8911
   93MOL    H3535179   6.613   1.979   0.530  1.1576  0.5978 -0.7991
   93MOL    H3635180   6.600   2.084   0.664  1.4752  1.0215 -0.7058
   93MOL    H3735181   6.370   2.021   0.578 -1.7242  1.1536  0.0634
   93MOL    H3835182   6.406   2.094   0.421 -0.1766 -0.4145 -0.2508
   93MOL    H3935183   6.403   2.197   0.565  0.4452 -0.8699  2.9914
   93MOL    C4035184   6.972   2.426   0.326 -0.0836 -0.2036  0.2956
   93MOL    C4135185   6.981   2.572   0.364 -0.3454  0.1251  0.1174
   93MOL    C4235186   6.847   2.649   0.350  0.5451  0.3214  0.1477
   93MOL    C4335187   6.833   2.779   0.426  1.1739  0.1253  0.0052
   93MOL    C4435188   6.684   2.839   0.411  0.1179  0.5778  0.3288
   93MOL    C4535189   6.652   2.973   0.484 -0.1062 -0.4460 -0.3130
   93MOL    O4635190   7.084   2.636   0.291  0.8301  0.1808  0.0220
   93MOL    H4735191   6.901   2.418   0.244 -1.7086  0.9721  1.5503
   93MOL    H4835192   7.068   2.397   0.283  1.3414 -0.7262  3.6736
   93MOL    H4935193   7.023   2.586   0.463  1.8147  0.1937 -0.7916
   93MOL    H5035194   6.825   2.668   0.245  0.7382 -0.3183 -0.0129
   93MOL    H5135195   6.774   2.578   0.388 -0.7357  1.0941 -0.8350
   93MOL    H5235196   6.900   2.860   0.396  0.1077  0.8316 -0.5020
   93MOL    H5335197   6.864   2.760   0.529  0.1892  1.5379  0.5734
   93MOL    H5435198   6.658   2.855   0.306  2.7178 -3.6334 -1.0828
   93MOL    H5535199   6.619   2.758   0.444 -0.2923 -0.5273 -2.9210
   93MOL    H5635200   6.545   2.992   0.479  0.2210  2.0281  1.1391
   93MOL    H5735201   6.671   2.955   0.590 -0.2393 -1.1339 -0.4013
   93MOL    H5835202   6.713   3.062   0.468 -1.2326  0.2635 -0.7638
   93MOL    C5935203   7.216   2.603   0.329  0.1083 -0.1277  0.7601
   93MOL    C6035204   7.310   2.651   0.218 -0.4772  0.1623  0.0191
   93MOL    C6135205   7.456   2.655   0.275  0.1696 -0.0194 -0.7194
   93MOL    C6235206   7.559   2.719   0.188  0.2576 -0.1804  0.0704
   93MOL    C6335207   7.701   2.733   0.239  0.7101  0.2384 -0.3260
   93MOL    C6435208   0.001   2.605   0.229  0.7360  0.7314 -0.2415
   93MOL    O6535209   7.306   2.577   0.094  0.5395  0.0161 -0.2414
   93MOL    H6635210   7.225   2.495   0.333  0.0049 -0.2050 -0.7284
   93MOL    H6735211   7.243   2.653   0.422 -0.6570 -1.1237  1.5276
   93MOL    H6835212   7.302   2.758   0.199  0.3886  0.1437 -0.5009
   93MOL    H6935213   7.485   2.551   0.291  0.4461  0.4250  1.9837
   93MOL    H7035214   7.453   2.683   0.380 -2.5783  0.7044 -0.9560
   93MOL    H7135215   7.524   2.820   0.167 -1.0627 -0.6361  0.0450
   93MOL    H7235216   7.554   2.655   0.100  0.4027 -0.1246  0.0212
   93MOL    H7335217   7.683   2.753   0.345 -1.2856 -0.6422 -0.4867
   93MOL    H7435218   7.755   2.821   0.203  0.3076  1.6400  2.3361
   93MOL    H7535219   0.093   2.615   0.287  0.0674  0.2727  0.9136
   93MOL    H7635220   7.732   2.524   0.277  0.4440  0.6559 -0.7038
   93MOL    H7735221   0.023   2.591   0.123 -0.3941  0.2486 -0.4196
   93MOL    C7835222   7.266   2.667   7.779 -0.4140 -0.4284 -0.4342
   93MOL    C7935223   7.262   2.603   7.640  0.1650 -0.1027  0.1648
   93MOL    C8035224   7.263   2.713   7.531  0.0722  0.4241 -0.5225
   93MOL    C8135225   7.237   2.680   7.383  0.3954 -0.1523  0.5597
   93MOL    C8235226   7.227   2.803   7.298  0.5411  0.1392  0.1037
   93MOL    C8335227   7.177   2.762   7.160  0.0958  0.5294 -0.2429
   93MOL    O8435228   7.144   2.535   7.637  0.6235  0.5653  0.1453
   93MOL    H8535229   7.331   2.754   0.002 -0.3679 -0.5602  0.6638
   93MOL    H8635230   7.169   2.710   0.020  0.7133  1.9231  0.0311
   93MOL    H8735231   7.347   2.539   7.613  0.3361  0.1512  0.1055
   93MOL    H8835232   7.190   2.790   7.557  0.5671  0.6469  0.2272
   93MOL    H8935233   7.362   2.759   7.532  1.0595 -1.5453 -3.0465
   93MOL    H9035234   7.136   2.641   7.386  1.6040 -3.3410  1.9143
   93MOL    H9135235   7.308   2.610   7.340  0.7870  0.9295 -0.5944
   93MOL    H9235236   7.166   2.887   7.331  0.8628 -0.1222  1.3971
   93MOL    H9335237   7.319   2.860   7.284  0.0891  0.3929 -2.0667
   93MOL    H9435238   7.077   2.719   7.163 -0.4738  1.8574  0.1258
   93MOL    H9535239   7.242   2.687   7.114  1.4574  0.6991  1.3487
   93MOL    H9635240   7.163   2.841   7.087 -0.6359 -2.2538 -3.2351
   93MOL    C9735241   7.132   2.406   7.698 -0.1506  0.7040 -0.1012
   93MOL    C9835242   7.050   2.310   7.610  0.8492  0.6510  0.9253
   93MOL    C9935243   7.070   2.165   7.639  0.3186 -0.3660 -0.6860
   93MOL   C10035244   6.991   2.084   7.534  0.1912  0.2363 -1.0013
   93MOL   C10135245   7.019   1.931   7.535  0.4046  0.7708 -0.3766
   93MOL   C10235246   6.923   1.851   7.442  0.5312  0.2965  0.3397
   93MOL   O10335247   6.915   2.337   7.622  0.0778 -0.1255  0.2450
   93MOL   H10435248   7.082   2.423   0.008  1.2728  1.2245  0.5506
   93MOL   H10535249   7.229   2.364   7.721 -0.4485 -1.5955 -2.7447
   93MOL   H10635250   7.084   2.327   7.508  1.7569  0.8921  1.2600
   93MOL   H10735251   7.025   2.138   7.735  2.3213 -0.3886  0.2593
   93MOL   H10835252   7.174   2.136   7.626  0.9296  1.8176 -0.7663
   93MOL   H10935253   7.011   2.124   7.435 -0.5019 -1.5002 -1.8789
   93MOL   H11035254   6.883   2.082   7.546  0.3243 -1.2229  0.1958
   93MOL   H11135255   7.009   1.874   7.627  3.4209 -1.5099 -1.3494
   93MOL   H11235256   7.120   1.911   7.500 -1.1022 -0.3309 -4.3921
   93MOL   H11335257   6.975   1.756   7.434  1.9538  1.1163 -0.2169
   93MOL   H11435258   6.820   1.846   7.478  0.5509 -0.1213  0.3330
   93MOL   H11535259   6.924   1.902   7.345  1.2800 -0.0699  0.1511
   93MOL   C11635260   6.858   2.430   7.535  0.3130  0.5937 -0.1563
   93MOL   C11735261   6.729   2.472   7.603 -0.6212 -1.0596  0.0684
   93MOL   C11835262   6.755   2.552   7.734  0.1439 -0.3882  0.7585
   93MOL   C11935263   6.629   2.613   0.017  0.9145 -0.4035  0.4385
   93MOL   C12035264   6.578   2.531   0.132 -0.6691  0.6411  0.9263
   93MOL   C12135265   6.431   2.560   0.179  0.0304 -0.1326  0.6432
   93MOL   O12235266   6.654   2.351   7.624  0.5538  0.2861  0.3020
   93MOL   H12335267   6.914   2.517   7.500 -1.2096  1.4215 -0.5730
   93MOL   H12435268   6.838   2.387   7.436 -2.0495 -0.0860  0.5846
   93MOL   H12535269   6.672   2.539   7.539  1.3357 -0.8492 -1.5261
   93MOL   H12635270   6.812   2.493   0.020 -1.3587 -1.0454  1.4505
   93MOL   H12735271   6.825   2.633   7.716  2.2478 -2.2936  0.0485
   93MOL   H12835272   6.559   2.624   7.719 -0.6111  1.9537  1.9671
   93MOL   H12935273   6.637   2.719   0.041  0.6586 -0.5286  1.1010
   93MOL   H13035274   6.569   2.425   0.109  0.9757  0.4629  0.9932
   93MOL   H13135275   6.646   2.531   0.218  1.7009 -1.1503 -0.8960
   93MOL   H13235276   6.406   2.657   0.223 -3.2717 -1.5538  2.1083
   93MOL   H13335277   6.364   2.542   0.095 -3.4835 -2.4787  3.7525
   93MOL   H13435278   6.403   2.483   0.251  1.9349 -0.8148  0.6718
   93MOL   C13535279   6.605   2.288   7.512 -0.2316  0.0143 -0.0508
   93MOL   C13635280   6.511   2.182   7.559  1.0970  0.0319  0.1758
   93MOL   C13735281   6.518   2.051   7.469 -0.0643 -0.4212 -0.4443
   93MOL   C13835282   6.441   1.928   7.528  0.7587 -0.5345 -0.6294
   93MOL   C13935283   6.469   1.802   7.452 -0.1922 -0.0392 -0.1225
   93MOL   C14035284   6.370   1.692   7.491  0.1464 -0.6002 -0.7090
   93MOL   O14135285   6.373   2.224   7.555 -0.2026  0.0618 -0.0357
   93MOL   H14235286   6.575   2.360   7.436 -0.8834 -0.3396 -0.1376
   93MOL   H14335287   6.694   2.234   7.479 -0.3262 -0.4483  0.4461
   93MOL   H14435288   6.525   2.154   7.664  0.8681 -1.9416 -0.2920
   93MOL   H14535289   6.489   2.069   7.366  1.7704 -0.3590 -0.9838
   93MOL   H14635290   6.622   2.017   7.469 -0.6679 -2.4443  1.5492
   93MOL   H14735291   6.336   1.953   7.517  0.4874 -1.6632 -0.6053
   93MOL   H14835292   6.470   1.910   7.631  1.4109 -1.5634 -0.9891
   93MOL   H14935293   6.570   1.763   7.465  0.0600  1.0359  1.3856
   93MOL   H15035294   6.454   1.812   7.345 -1.4714 -1.5956 -0.1100
   93MOL   H15135295   6.272   1.741   7.496  0.9386  1.1839 -2.2388
   93MOL   H15235296   6.372   1.610   7.420  0.3505 -0.2404 -1.1210
   93MOL   H15335297   6.382   1.646   7.589  0.8604  0.1925 -0.4240
   93MOL   C15435298   6.340   2.334   7.629  0.2645  0.9054 -0.0518
   93MOL   C15535299   6.196   2.336   7.655 -0.3744 -0.3363 -0.6061
   93MOL   C15635300   6.139   2.197   7.691  0.2644  0.4906 -0.3054
   93MOL   C15735301   5.995   2.202   7.769 -0.4825  0.4900  0.1578
   93MOL   C15835302   5.924   2.067   7.755 -0.3106  0.5826 -0.4271
   93MOL   C15935303   5.775   2.069   0.002 -0.3449  0.7383 -0.0544
   93MOL   O16035304   6.172   2.423   7.766  0.4332 -0.1891 -0.2870
   93MOL   H16135305   6.372   2.429   7.586  3.1638 -0.4791 -1.1098
   93MOL   H16235306   6.387   2.315   7.726  0.6849  1.6401 -0.1075
   93MOL   H16335307   6.148   2.378   7.566 -1.8542  1.8115  1.1289
   93MOL   H16435308   6.205   2.139   7.755  1.8961  0.9883 -1.4941
   93MOL   H16535309   6.142   2.130   7.605 -1.1693  0.0226  0.0109
   93MOL   H16635310   5.937   2.283   7.724  0.4431  0.0827 -1.8352
   93MOL   H16735311   5.998   2.230   0.088 -0.4076 -0.1620  0.3350
   93MOL   H16835312   5.945   2.022   7.658 -0.9131 -0.5162 -0.0556
   93MOL   H16935313   5.955   1.990   0.040 -0.4740  0.7936 -0.1252
   93MOL   H17035314   5.730   1.973   7.764  1.1510 -0.5483  2.1334
   93MOL   H17135315   5.732   2.140   7.717 -0.4062 -2.6571 -3.6017
   93MOL   H17235316   5.753   2.110   0.100  0.5386  3.0456 -0.7841
   93MOL   C17335317   6.108   2.545   7.731 -0.0281  0.0085 -0.4704
   93MOL   C17435318   6.078   2.623   0.069 -0.0316  0.5210 -0.4139
   93MOL   C17535319   6.017   2.765   0.030  0.7732 -0.4483  0.0797
   93MOL   C17635320   5.868   2.774   7.763  0.2123  0.4246 -0.0029
   93MOL   C17735321   5.833   2.909   7.696  0.0955  0.0202  0.1003
   93MOL   C17835322   5.872   2.931   7.548 -0.0072  0.2305 -0.2800
   93MOL   O17935323   5.990   2.550   0.155  0.2300  0.6621  0.2702
   93MOL   H18035324   6.020   2.521   7.672 -0.0493  0.2618 -0.5398
   93MOL   H18135325   6.167   2.599   7.657 -0.3142  2.1530  0.8196
   93MOL   H18235326   6.163   2.641   0.134  1.3915 -2.2329 -1.4448
   93MOL   H18335327   6.036   2.829   0.117 -2.5480  0.9161 -0.1413
   93MOL   H18435328   6.091   2.807   7.747  0.4981  0.7660  0.5103
   93MOL   H18535329   5.847   2.687   7.700  1.2116 -0.1588  0.4536
   93MOL   H18635330   5.797   2.744   0.055 -0.1613  1.4823  0.0645
   93MOL   H18735331   5.725   2.923   7.690  0.0826 -0.0452  0.1601
   93MOL   H18835332   5.871   2.993   7.754  0.3714 -1.4864  2.1806
   93MOL   H18935333   5.810   2.886   7.471 -1.0663  0.0540  0.6797
   93MOL   H19035334   5.976   2.899   7.535 -0.1954 -0.6173  0.3277
   93MOL   H19135335   5.880   3.036   7.517 -0.4421  0.6415  0.9682
   93MOL   C19235336   5.979   2.590   0.295 -0.0608 -0.0187  0.2063
   93MOL   C19335337   6.020   2.469   0.382 -0.0261 -0.3401 -1.1763
   93MOL   C19435338   5.895   2.395   0.437 -0.3211 -0.3715  0.0713
   93MOL   C19535339   5.803   2.327   0.337 -0.1084  0.2936  0.0071
   93MOL   C19635340   5.720   2.227   0.414 -0.5767 -0.1636  0.0400
   93MOL   C19735341   5.612   2.284   0.509  0.1012  0.0900 -0.5085
   93MOL   O19835342   6.091   2.508   0.497  0.1143  0.0482  0.2383
   93MOL   H19935343   6.043   2.673   0.323 -0.4743 -0.0003  1.1067
   93MOL   H20035344   5.878   2.627   0.314 -0.0640 -0.6622  1.5114
   93MOL   H20135345   6.080   2.396   0.329  0.7922 -0.4066 -0.1708
   93MOL   H20235346   5.941   2.309   0.486  0.0350 -0.7838 -0.9671
   93MOL   H20335347   5.856   2.451   0.522  1.7954 -1.0376  1.5208
   93MOL   H20435348   5.864   2.274   0.263 -0.1947 -0.5113  0.5079
   93MOL   H20535349   5.746   2.405   0.286  0.9959  0.6982 -0.6312
   93MOL   H20635350   5.662   2.175   0.338 -1.2768 -0.5463  0.8221
   93MOL   H20735351   5.780   2.158   0.474  0.8161  0.0793 -1.0532
   93MOL   H20835352   5.557   2.202   0.556  1.3966 -0.7378 -0.4229
   93MOL   H20935353   5.658   2.328   0.597  0.4543  0.2255 -0.7583
   93MOL   H21035354   5.544   2.356   0.463 -0.0689  0.1983 -0.0901
   93MOL   C21135355   6.233   2.494   0.500  0.1181 -0.4020  0.1085
   93MOL   C21235356   6.292   2.508   0.633 -0.5819  0.1661  0.1885
   93MOL   C21335357   6.443   2.538   0.629  0.0835  0.1596 -0.3892
   93MOL   C21435358   6.497   2.546   0.777 -0.3840 -0.2411 -0.5967
   93MOL   C21535359   6.646   2.568   0.794  0.1912  0.4446 -0.4930
   93MOL   C21635360   6.726   2.447   0.733  0.1240 -0.4923 -0.2830
   93MOL   O21735361   6.281   2.383   0.698  0.0917 -0.4108 -0.2573
   93MOL   H21835362   6.269   2.559   0.420 -1.3474  1.4576  0.9225
   93MOL   H21935363   6.252   2.396   0.457  1.2932 -0.6162  1.0903
   93MOL   H22035364   6.234   2.586   0.682 -0.9826 -0.3516  0.5492
   93MOL   H22135365   6.494   2.458   0.575  0.4362  0.8402 -1.0832
   93MOL   H22235366   6.460   2.628   0.569  1.7436  0.6542  0.7772
   93MOL   H22335367   6.433   2.615   0.832  0.3760 -1.5174  1.9747
   93MOL   H22435368   6.468   2.454   0.829 -1.3178 -0.1749 -0.9966
   93MOL   H22535369   6.668   2.659   0.738  2.0066  0.3531  0.0387
   93MOL   H22635370   6.682   2.577   0.897 -0.6410 -0.9534 -0.0807
   93MOL   H22735371   6.705   2.354   0.786 -0.0411 -0.5814 -0.5029
   93MOL   H22835372   6.830   2.476   0.726  0.6955 -2.7738 -1.7648
   93MOL   H22935373   6.695   2.428   0.630 -0.6848 -0.5433 -0.0318
   93MOL   C23035374   6.147   2.356   0.747  1.5780 -0.3804  0.0257
   93MOL   C23135375   6.147   2.200   0.771 -0.2679  0.5828  0.0805
   93MOL   C23235376   6.000   2.145   0.786  0.2974 -0.6128 -0.6100
   93MOL   C23335377   5.988   1.994   0.755 -0.1077 -0.2504  0.2843
   93MOL   C23435378   5.849   1.931   0.779  0.0964  0.5349 -0.2323
   93MOL   C23535379   5.804   1.910   0.928 -0.0023 -0.5225  0.1531
   93MOL   O23635380   6.213   2.166   0.887 -0.0487 -0.0492 -0.1880
   93MOL   H23735381   6.136   2.403   0.845  2.7872 -0.8398  0.3808
   93MOL   H23835382   6.060   2.383   0.687  0.1270  1.9553  2.9851
   93MOL   H23935383   6.187   2.146   0.685 -0.1143  0.7673  0.0375
   93MOL   H24035384   5.936   2.199   0.716  1.5292  0.9955 -0.5167
   93MOL   H24135385   5.961   2.164   0.886 -0.2121 -0.9433 -0.7423
   93MOL   H24235386   6.059   1.957   0.829  0.4122 -0.0469 -0.1116
   93MOL   H24335387   6.017   1.973   0.652  3.4639 -0.1942  1.2166
   93MOL   H24435388   5.764   1.990   0.745 -0.3889  0.3792  0.7142
   93MOL   H24535389   5.850   1.842   0.717 -0.2115  0.2586  0.1554
   93MOL   H24635390   5.696   1.896   0.928  0.0641 -1.0489  1.6621
   93MOL   H24735391   5.816   1.998   0.990  0.4987 -0.0395 -0.6285
   93MOL   H24835392   5.865   1.838   0.983  0.5288 -0.0643  0.1683
   93MOL   C24935393   6.352   2.131   0.872  0.0740  0.5950  0.7724
   93MOL   C25035394   6.406   2.097   1.012  0.3129 -0.0447 -0.3064
   93MOL   C25135395   6.353   2.187   1.128 -0.4147 -0.0879 -0.5200
   93MOL   C25235396   6.411   2.149   1.267 -0.3240  0.3723  1.1811
   93MOL   C25335397   6.394   2.260   1.370  0.4789 -0.0000 -0.1573
   93MOL   C25435398   6.487   2.379   1.340 -0.3815  0.8666  0.3092
   93MOL   O25535399   6.548   2.110   1.011  1.0811 -0.5839  0.2781
   93MOL   H25635400   6.350   2.045   0.806  0.2301 -0.0306  1.5807
   93MOL   H25735401   6.411   2.206   0.819 -0.1522 -0.0736 -0.4201
   93MOL   H25835402   6.380   1.995   1.041  1.2320  0.3019  1.8617
   93MOL   H25935403   6.360   2.294   1.107  0.3834 -0.1766 -0.7120
   93MOL   H26035404   6.244   2.178   1.132 -0.5393  1.8022  2.1587
   93MOL   H26135405   6.364   2.059   1.308  0.5956 -0.5979  0.1569
   93MOL   H26235406   6.515   2.115   1.261 -1.2522 -3.1319  3.0898
   93MOL   H26335407   6.290   2.290   1.359  0.0529 -0.3479  2.5336
   93MOL   H26435408   6.401   2.217   1.470 -3.4284 -2.0543 -0.6551
   93MOL   H26535409   6.445   2.473   1.375 -0.8370  0.1197  1.7981
   93MOL   H26635410   6.506   2.394   1.234 -3.1651 -1.7979 -0.6471
   93MOL   H26735411   6.582   2.354   1.387 -0.5702 -1.1530 -0.3411
   93MOL   C26835412   6.620   1.996   0.957 -0.0995 -0.2691  0.6277
   93MOL   C26935413   6.775   2.034   0.954 -0.0903 -0.6205 -0.5346
   93MOL   C27035414   6.856   1.946   0.854  0.1804  0.1314  0.9007
   93MOL   C27135415   7.005   1.996   0.824  1.1652  0.5211  0.2603
   93MOL   C27235416   7.064   1.923   0.704 -0.3527  1.0358  0.2927
   93MOL   C27335417   7.088   1.777   0.724 -0.3184 -0.5875  0.2090
   93MOL   O27435418   6.848   2.015   1.075  0.2313 -0.7390  0.5988
   93MOL   H27535419   6.592   1.981   0.853  0.1413  0.3798  0.4684
   93MOL   H27635420   6.597   1.908   1.017  1.7206 -1.0181  0.2600
   93MOL   H27735421   6.790   2.137   0.921  0.3737 -0.4429  0.2218
   93MOL   H27835422   6.844   1.842   0.886 -0.0657 -0.6281 -1.5561
   93MOL   H27935423   6.802   1.937   0.759 -0.4067 -1.1027  1.3354
   93MOL   H28035424   6.998   2.101   0.799 -0.1403  0.5522  0.7336
   93MOL   H28135425   7.076   1.997   0.906  0.5028  0.4210  0.8393
   93MOL   H28235426   7.007   1.930   0.611  1.1374 -0.1826 -0.7246
   93MOL   H28335427   7.166   1.956   0.686 -0.3164  0.9667  0.3715
   93MOL   H28435428   7.141   1.733   0.640  2.4093  0.8249  1.1196
   93MOL   H28535429   7.160   1.750   0.802 -0.8010 -1.5601  0.3305
   93MOL   H28635430   6.992   1.725   0.734 -1.1938  0.5176 -2.0654
   93MOL   C28735431   6.785   2.066   1.189  0.2957  0.0165  0.2398
   93MOL   C28835432   6.901   2.097   1.288  0.8741 -0.1568  0.1549
   93MOL   C28935433   6.990   1.972   1.313  0.6044 -0.2390 -0.0811
   93MOL   C29035434   6.898   1.853   1.369 -0.7826  0.5269  0.4659
   93MOL   C29135435   6.814   1.770   1.267  0.1676  0.4795  0.4237
   93MOL   C29235436   6.844   1.618   1.257 -0.6332 -0.1340 -0.4044
   93MOL   O29335437   6.840   2.150   1.401  0.6155 -0.1707  0.0141
   93MOL   H29435438   6.709   1.997   1.226  0.2446  0.5199  1.0940
   93MOL   H29535439   6.723   2.152   1.164 -0.1530 -1.0490 -2.3699
   93MOL   H29635440   6.968   2.174   1.250  1.2594  0.0582  1.2314
   93MOL   H29735441   7.039   1.936   1.222  0.5150  1.1939 -0.7075
   93MOL   H29835442   7.070   1.988   1.385  0.0758 -1.1177  0.7071
   93MOL   H29935443   6.975   1.784   1.404 -1.3788 -0.1885  0.3622
   93MOL   H30035444   6.839   1.877   1.457 -1.0119 -1.2295  0.8051
   93MOL   H30135445   6.826   1.801   1.163 -2.6933  0.0667 -0.0782
   93MOL   H30235446   6.709   1.783   1.294 -0.0812  1.1626 -0.8400
   93MOL   H30335447   6.838   1.571   1.355 -0.3072  2.0004  0.6625
   93MOL   H30435448   6.791   1.558   1.183 -0.2157  0.0756 -0.8784
   93MOL   H30535449   6.943   1.600   1.215 -0.0083 -0.6219  1.2526
   93MOL   C30635450   6.931   2.230   1.484  0.0306 -0.0600 -1.1335
   93MOL   C30735451   6.842   2.300   1.595 -0.2609 -0.3325  0.1035
   93MOL   C30835452   6.756   2.200   1.685 -0.6485  0.3467 -0.5172
   93MOL   C30935453   6.704   2.262   1.819 -0.2225 -0.2199  0.6458
   93MOL   C31035454   6.831   2.283   1.916 -0.2057 -0.0904 -0.5597
   93MOL   C31135455   6.793   2.340   2.057 -0.2157 -0.1097  0.6713
   93MOL   O31235456   6.760   2.406   1.546  0.0625 -0.7967 -0.2835
   93MOL   H31335457   7.009   2.173   1.535  0.4188  1.1752 -0.3070
   93MOL   H31435458   6.981   2.311   1.432 -0.4464  1.3267  0.5344
   93MOL   H31535459   6.915   2.329   1.669  0.5622  1.1107 -1.2376
   93MOL   H31635460   6.799   2.103   1.710 -1.7203 -0.0990 -0.3873
   93MOL   H31735461   6.675   2.184   1.613  0.8359  0.1210 -2.1892
   93MOL   H31835462   6.649   2.356   1.809  3.7149  2.1721  0.0416
   93MOL   H31935463   6.624   2.202   1.862 -0.0818 -0.0189  1.1957
   93MOL   H32035464   6.906   2.349   1.874  0.9285 -0.4084  0.9567
   93MOL   H32135465   6.895   2.196   1.929 -0.2607 -0.0987 -0.3445
   93MOL   H32235466   6.874   2.335   2.130 -0.5856  0.8644  1.1434
   93MOL   H32335467   6.753   2.441   2.054  0.5702  0.1753 -1.2100
   93MOL   H32435468   6.709   2.283   2.097 -0.3417 -0.6616 -0.3651
   93MOL   C32535469   6.795   2.524   1.624  0.3771  0.0966 -0.1128
   93MOL   C32635470   6.698   2.639   1.584 -0.0092 -0.2083 -0.4522
   93MOL   C32735471   6.768   2.773   1.593 -0.8241  0.8107 -0.0990
   93MOL   C32835472   6.840   2.826   1.468 -0.4758 -0.3083  0.0541
   93MOL   C32935473   6.902   2.959   1.488 -0.0631  0.2256  0.2768
   93MOL   C33035474   6.980   3.007   1.366 -0.0841 -1.2269 -0.7152
   93MOL   O33135475   6.595   2.638   1.685 -0.1410  0.3339  0.5275
   93MOL   H33235476   6.894   2.554   1.589  0.4441 -1.4747 -1.3424
   93MOL   H33335477   6.794   2.520   1.733 -1.0290  0.1129 -0.1160
   93MOL   H33435478   6.667   2.627   1.480 -0.5964  4.1028 -0.8587
   93MOL   H33535479   6.680   2.838   1.605 -0.0979  1.9309 -0.7180
   93MOL   H33635480   6.817   2.774   1.690 -0.2282  0.7399 -0.3973
   93MOL   H33735481   6.916   2.750   1.448  0.3301  0.6369 -0.5500
   93MOL   H33835482   6.779   2.830   1.378 -0.3624  2.0822  0.0629
   93MOL   H33935483   6.826   3.033   1.510 -0.4355 -0.4208  1.2052
   93MOL   H34035484   6.971   2.957   1.573 -0.1157 -1.9914  0.3046
   93MOL   H34135485   7.033   3.100   1.387  0.4683 -1.3381 -1.6183
   93MOL   H34235486   7.058   2.939   1.334  0.0596 -1.1343 -0.5617
   93MOL   H34335487   6.910   3.030   1.286  0.5728 -1.1104 -1.2590
   93MOL   C34435488   6.479   2.579   1.633  0.1577  0.0274 -0.0686
   93MOL   C34535489   6.380   2.554   1.751 -1.1731 -0.0485 -0.3310
   93MOL   C34635490   6.303   2.685   1.780 -0.3988  0.3045  0.3169
   93MOL   C34735491   6.198   2.675   1.903 -0.0641 -0.1076  0.6788
   93MOL   C34835492   6.141   2.813   1.949 -0.8206  0.5249 -0.0271
   93MOL   C34935493   6.050   2.877   1.849  1.0708 -0.4110 -0.0837
   93MOL   O35035494   6.288   2.455   1.710  0.3956  0.3197 -0.3257
   93MOL   H35135495   6.518   2.490   1.585 -2.0134 -0.5550 -0.8125
   93MOL   H35235496   6.424   2.633   1.556  0.8394 -0.0858 -0.6410
   93MOL   H35335497   6.426   2.529   1.846 -1.5269  2.2281  0.4804
   93MOL   H35435498   6.261   2.719   1.686  0.3034  1.1285  0.2980
   93MOL   H35535499   6.384   2.753   1.807  4.0605 -3.7945 -2.0768
   93MOL   H35635500   6.264   2.629   1.977  2.7047  0.8584 -1.0929
   93MOL   H35735501   6.117   2.602   1.895 -0.1929 -0.0538  1.4664
   93MOL   H35835502   6.226   2.878   1.968 -0.2554  0.3545 -1.8576
   93MOL   H35935503   6.092   2.820   2.046 -0.7895  0.7922 -0.0316
   93MOL   H36035504   6.101   2.863   1.753 -1.8155  0.1115 -1.7815
   93MOL   H36135505   6.042   2.985   1.861  0.4135 -0.2725 -1.5466
   93MOL   H36235506   5.962   2.815   1.832  1.4214 -0.7219 -0.7749
   93MOL   C36335507   6.300   2.324   1.767 -0.5399  0.6568 -0.6687
   93MOL   C36435508   6.169   2.234   1.734  0.3593 -0.2373 -0.1986
   93MOL   C36535509   6.039   2.318   1.765  0.7209  0.0352  0.4739
   93MOL   C36635510   5.906   2.256   1.724  0.4725 -0.7895 -0.0427
   93MOL   C36735511   5.786   2.337   1.784 -0.6557  0.0884 -0.1471
   93MOL   C36835512   5.660   2.294   1.729  0.7756  0.1162  0.5434
   93MOL   O36935513   6.172   2.191   1.595 -0.1003 -0.1446  0.1510
   93MOL   H37035514   6.323   2.330   1.874  1.1798 -1.6450 -0.8786
   93MOL   H37135515   6.392   2.292   1.720 -0.0291 -2.9458  2.5115
   93MOL   H37235516   6.161   2.142   1.791  1.7812  0.1508  0.6717
   93MOL   H37335517   6.024   2.335   1.872 -0.8026  2.3985 -0.0688
   93MOL   H37435518   6.042   2.417   1.720 -1.8047 -0.4359 -0.8252
   93MOL   H37535519   5.900   2.253   1.615 -1.0603 -0.2074  0.0086
   93MOL   H37635520   5.903   2.159   1.773  0.5875  0.2201  2.0241
   93MOL   H37735521   5.766   2.318   1.889  2.3916 -0.6846  0.3433
   93MOL   H37835522   5.808   2.440   1.757 -0.5959 -0.0488 -0.6211
   93MOL   H37935523   5.661   2.299   1.620  0.2550  0.4242  0.5518
   93MOL   H38035524   5.639   2.189   1.749  0.4488  0.3551  1.4612
   93MOL   H38135525   5.577   2.347   1.776  0.2039  0.1992 -0.5335
   93MOL   H38235526   6.174   2.271   1.544 -3.3852 -0.8499 -1.2001
   94MOL     C135527   1.438   3.761   5.169 -0.4987 -0.1660 -0.0686
   94MOL     C235528   1.524   3.795   5.048 -0.0155 -0.0360  0.7672
   94MOL     C335529   1.645   3.859   5.122  0.6904  0.6618 -1.0237
   94MOL     C435530   1.725   3.944   5.027 -0.4963 -0.2200 -0.3864
   94MOL     C535531   1.834   4.029   5.102 -0.1904 -0.0401 -0.1538
   94MOL     C635532   1.913   4.128   5.010  0.5076 -0.7592 -0.3630
   94MOL     O735533   1.544   3.679   4.964 -0.5630 -0.0305 -0.2681
   94MOL     H835534   1.336   3.727   5.149 -0.8685  0.6288  0.4380
   94MOL     H935535   1.415   3.850   5.227 -1.0396  0.9186 -1.8944
   94MOL    H1035536   1.482   3.877   4.991 -0.3215  0.3955  1.5964
   94MOL    H1135537   1.605   3.927   5.197 -1.2950 -2.6072  0.9567
   94MOL    H1235538   1.715   3.790   5.169 -0.0599  1.1060  0.7590
   94MOL    H1335539   1.773   3.886   4.949 -0.2313 -2.3659  1.3210
   94MOL    H1435540   1.657   4.018   4.984  0.2754  0.6513 -0.1217
   94MOL    H1535541   1.774   4.076   5.179  1.8062  0.5917  1.0596
   94MOL    H1635542   1.906   3.973   5.162  0.5193  1.2854  0.2364
   94MOL    H1735543   1.975   4.197   5.067  0.3971 -0.4166 -0.6486
   94MOL    H1835544   1.976   4.074   4.939 -1.2446 -3.2581 -0.0922
   94MOL    H1935545   1.839   4.181   4.950  0.8139  1.4927  1.1963
   94MOL    H2035546   1.482   3.684   5.232  0.5131  0.4004 -0.0718
   94MOL    C2135547   1.438   3.645   4.875 -0.0736 -0.8390  0.1369
   94MOL    C2235548   1.473   3.567   4.750  0.2823 -0.6124 -0.4488
   94MOL    C2335549   1.347   3.510   4.677 -0.7777 -0.1956  0.3836
   94MOL    C2435550   1.372   3.443   4.536 -0.1801 -1.1091 -0.6765
   94MOL    C2535551   1.241   3.401   4.473 -0.4505 -0.0049  0.2024
   94MOL    C2635552   1.146   3.512   4.414 -0.1884 -0.2129  0.1201
   94MOL    O2735553   1.516   3.658   4.656 -0.6162  0.3420 -0.2448
   94MOL    H2835554   1.358   3.586   4.921 -1.5802 -0.9833 -2.6069
   94MOL    H2935555   1.381   3.733   4.848 -0.4758 -1.2757 -0.4537
   94MOL    H3035556   1.545   3.487   4.770 -1.3611 -2.7012 -2.6554
   94MOL    H3135557   1.276   3.591   4.663  0.5976  1.0234  0.3336
   94MOL    H3235558   1.288   3.440   4.736  0.4521 -3.3081 -1.9238
   94MOL    H3335559   1.435   3.357   4.558 -0.0811 -0.7886  0.2964
   94MOL    H3435560   1.433   3.508   4.472 -0.6836 -1.5422 -1.6131
   94MOL    H3535561   1.252   3.332   4.389  0.2080  2.0661 -1.4596
   94MOL    H3635562   1.183   3.341   4.543 -0.3531 -0.5130 -0.1512
   94MOL    H3735563   1.177   3.562   4.322  0.5393  0.3067  0.6374
   94MOL    H3835564   1.096   3.578   4.485 -0.4021  0.3544 -0.5532
   94MOL    H3935565   1.059   3.450   4.392  0.0886 -0.6304  0.1931
   94MOL    C4035566   1.648   3.700   4.663 -1.1523 -0.3087  0.4194
   94MOL    C4135567   1.672   3.838   4.596 -0.1533 -0.6096 -0.6214
   94MOL    C4235568   1.820   3.876   4.607  0.1876 -0.2551 -0.3209
   94MOL    C4335569   1.863   4.009   4.546 -0.3014  0.5058 -0.7784
   94MOL    C4435570   2.014   4.021   4.547 -0.6748  0.0102  0.3146
   94MOL    C4535571   2.063   3.963   4.409 -0.1790  0.1229 -0.7911
   94MOL    O4635572   1.597   3.935   4.669 -0.1199 -0.6124  0.0742
   94MOL    H4735573   1.706   3.620   4.617  0.0101 -0.4246  2.0442
   94MOL    H4835574   1.688   3.702   4.765  0.0455  2.0208 -0.0571
   94MOL    H4935575   1.654   3.837   4.489 -0.3919  0.5139 -0.6004
   94MOL    H5035576   1.854   3.875   4.711  2.4981  1.8111 -1.0033
   94MOL    H5135577   1.868   3.801   4.544 -0.0917 -0.2303 -0.5683
   94MOL    H5235578   1.820   4.079   4.617 -0.0607 -1.4744  1.3912
   94MOL    H5335579   1.812   4.035   4.453  0.6674 -0.0036 -1.4546
   94MOL    H5435580   2.048   4.124   4.551 -0.3676 -0.0768 -0.0870
   94MOL    H5535581   2.051   3.972   4.637 -0.0916  0.6437  0.4254
   94MOL    H5635582   2.165   3.990   4.378  0.0137 -0.3824 -0.5960
   94MOL    H5735583   2.057   3.855   4.415  0.7809  0.1680  1.5698
   94MOL    H5835584   2.004   3.998   4.325  0.1007  2.1619 -0.1819
   94MOL    C5935585   1.466   3.948   4.613 -0.1118 -0.3744  0.0709
   94MOL    C6035586   1.382   4.026   4.709  0.2762 -0.0606 -0.4631
   94MOL    C6135587   1.432   4.175   4.712  0.0105  0.7395 -0.0417
   94MOL    C6235588   1.359   4.257   4.827 -0.2151 -0.0622  0.4408
   94MOL    C6335589   1.430   4.386   4.876 -0.2133 -0.0651  0.0676
   94MOL    C6435590   1.547   4.364   4.971 -1.0320 -0.1918 -0.1775
   94MOL    O6535591   1.244   4.032   4.662  0.4759 -0.5167 -0.1303
   94MOL    H6635592   1.420   3.850   4.600  2.4391 -1.8024  1.2668
   94MOL    H6735593   1.461   3.996   4.516 -3.3810 -0.2092  0.2640
   94MOL    H6835594   1.390   3.977   4.806  2.3193  3.3302  1.1863
   94MOL    H6935595   1.432   4.229   4.618 -1.9397 -2.1393 -1.7841
   94MOL    H7035596   1.537   4.166   4.741  0.1571  0.2387 -0.7267
   94MOL    H7135597   1.351   4.183   4.906  0.4296 -0.4720  0.1264
   94MOL    H7235598   1.258   4.280   4.792 -0.2638 -1.4921 -0.3818
   94MOL    H7335599   1.365   4.458   4.925  0.6292  0.6818  0.0977
   94MOL    H7435600   1.459   4.440   4.786  0.9755 -0.0585  0.4433
   94MOL    H7535601   1.579   4.460   5.013 -0.9411 -0.2264 -0.1686
   94MOL    H7635602   1.504   4.303   5.050  0.0830 -1.7354 -0.7525
   94MOL    H7735603   1.623   4.300   4.926 -1.1470 -1.7590  1.7978
   94MOL    C7835604   1.164   3.912   4.656  0.7104 -0.0288 -0.2789
   94MOL    C7935605   1.016   3.928   4.630  0.3434  0.3776 -0.0044
   94MOL    C8035606   0.930   3.821   4.703 -0.2716  0.0016  0.0564
   94MOL    C8135607   0.775   3.836   4.678 -0.7489 -0.6260 -0.2541
   94MOL    C8235608   0.700   3.729   4.752 -0.0200  0.3321  0.1695
   94MOL    C8335609   0.549   3.714   4.713  0.1483  0.2872 -0.1487
   94MOL    O8435610   0.990   3.919   4.492 -0.0959  0.1169  0.3729
   94MOL    H8535611   1.171   3.870   4.756  3.1420  0.8969 -0.0416
   94MOL    H8635612   1.197   3.832   4.589  2.4543 -0.6840  1.3408
   94MOL    H8735613   0.982   4.027   4.662 -0.4603 -0.6686  2.5826
   94MOL    H8835614   0.958   3.722   4.665 -0.5797  0.7269 -2.1306
   94MOL    H8935615   0.948   3.831   4.810 -1.3590  0.7187  0.1750
   94MOL    H9035616   0.755   3.828   4.572 -0.0055  1.2819 -0.5583
   94MOL    H9135617   0.733   3.932   4.709 -1.5219 -0.6508 -1.2223
   94MOL    H9235618   0.750   3.632   4.746  0.6048  0.5658  1.4108
   94MOL    H9335619   0.702   3.748   4.859 -2.2835  2.5510 -0.1379
   94MOL    H9435620   0.496   3.628   4.753 -0.0609 -1.3043 -3.6635
   94MOL    H9535621   0.539   3.693   4.606 -0.6464 -2.1785  0.3666
   94MOL    H9635622   0.490   3.801   4.739 -1.9906 -1.5515  1.3311
   94MOL    C9735623   1.031   4.025   4.409 -0.0005  0.2473 -0.4113
   94MOL    C9835624   0.960   4.030   4.270  0.6604  1.0366  0.5386
   94MOL    C9935625   0.967   3.910   4.174 -0.2150  0.4853 -0.3895
   94MOL   C10035626   0.915   3.965   4.033 -0.1260  0.2472  0.1291
   94MOL   C10135627   0.887   3.854   3.927  0.1550  0.1012 -0.6529
   94MOL   C10235628   0.827   3.901   3.802 -0.7485  0.0060 -0.6051
   94MOL   O10335629   0.828   4.089   4.275 -0.2601  0.0030  0.3608
   94MOL   H10435630   1.139   4.033   4.399 -0.1010  0.8406 -1.0249
   94MOL   H10535631   0.987   4.114   4.454 -3.0910 -1.5960  0.3376
   94MOL   H10635632   1.021   4.109   4.226 -0.8712  0.1965 -3.2575
   94MOL   H10735633   0.901   3.834   4.214 -1.5017  0.5207 -2.3938
   94MOL   H10835634   1.065   3.864   4.166 -0.3010  0.5257 -1.8708
   94MOL   H10935635   0.986   4.040   3.999  0.3602  0.1843  0.9984
   94MOL   H11035636   0.825   4.025   4.051 -1.0951 -1.0594 -0.2699
   94MOL   H11135637   0.814   3.786   3.970  1.5751 -0.7447  0.4636
   94MOL   H11235638   0.969   3.783   3.921 -0.5919 -1.0886  2.2238
   94MOL   H11335639   0.809   3.804   3.757  1.0411  0.7728 -3.0768
   94MOL   H11435640   0.728   3.946   3.813 -0.5622  0.2184  0.2312
   94MOL   H11535641   0.897   3.965   3.748 -1.3827  2.4205  1.3217
   94MOL   C11635642   0.720   4.006   4.322  0.5477  0.6441 -0.2710
   94MOL   C11735643   0.591   4.090   4.336  0.0305  0.7506  0.2728
   94MOL   C11835644   0.496   4.028   4.439  0.5022  0.0778 -0.5038
   94MOL   C11935645   0.378   4.129   4.461  0.2938 -0.4657 -0.1956
   94MOL   C12035646   0.259   4.067   4.536  0.4849  0.4259 -0.2536
   94MOL   C12135647   0.176   4.172   4.611 -0.4105 -0.3418 -0.1679
   94MOL   O12235648   0.539   4.071   4.205  0.0538  0.2498 -0.7261
   94MOL   H12335649   0.706   3.921   4.254 -1.6351 -2.3093  3.6791
   94MOL   H12435650   0.730   3.963   4.421  0.7701  0.8819 -0.1901
   94MOL   H12535651   0.613   4.192   4.369 -1.5124  2.3557 -3.3360
   94MOL   H12635652   0.457   3.934   4.398  2.9532 -2.1961  2.1452
   94MOL   H12735653   0.543   4.010   4.536 -0.6845  1.0827  0.2681
   94MOL   H12835654   0.343   4.160   4.362  0.3604  2.8729  0.7807
   94MOL   H12935655   0.415   4.220   4.508 -1.1345  0.2296 -0.3787
   94MOL   H13035656   0.189   4.019   4.467 -0.9490 -0.2398  1.5950
   94MOL   H13135657   0.298   3.998   4.610  0.3850  0.7077  0.0652
   94MOL   H13235658   0.090   4.122   4.654  0.3263 -0.6729  0.9663
   94MOL   H13335659   0.228   4.227   4.690  0.7574 -0.9151 -0.5183
   94MOL   H13435660   0.136   4.237   4.533  0.4742  0.9292  0.4153
   94MOL   C13535661   0.529   4.191   4.126 -0.4847  0.0956  0.3189
   94MOL   C13635662   0.455   4.155   3.998  0.3913  0.4273 -0.0387
   94MOL   C13735663   0.472   4.235   3.867  0.1962 -0.2569  0.0027
   94MOL   C13835664   0.432   4.381   3.874 -0.1226  0.1421  0.3025
   94MOL   C13935665   0.465   4.459   3.742  0.1042  0.1158 -0.1860
   94MOL   C14035666   0.443   4.607   3.771  0.0986 -0.2066 -0.0110
   94MOL   O14135667   0.315   4.142   4.032  0.1065  0.4699  0.1719
   94MOL   H14235668   0.479   4.270   4.182 -0.8461  1.6767 -2.1728
   94MOL   H14335669   0.632   4.214   4.101  0.0813 -1.1736  1.4047
   94MOL   H14435670   0.493   4.056   3.970 -0.3645  0.2493 -0.4367
   94MOL   H14535671   0.576   4.236   3.836 -0.3915  0.7687 -1.9942
   94MOL   H14635672   0.418   4.188   3.785 -0.4331 -1.5983  1.1535
   94MOL   H14735673   0.471   4.420   3.969 -0.0357  2.1731 -0.5434
   94MOL   H14835674   0.327   4.394   3.898  0.2517 -0.7653  2.5301
   94MOL   H14935675   0.401   4.416   3.665  0.0358  0.7612 -0.5033
   94MOL   H15035676   0.568   4.443   3.708 -0.2893 -1.0867 -0.8214
   94MOL   H15135677   0.336   4.626   3.776  0.1970  1.5891 -3.4868
   94MOL   H15235678   0.503   4.643   3.855  1.1424 -1.4975 -0.1921
   94MOL   H15335679   0.479   4.663   3.685  3.7209 -0.6519  1.1392
   94MOL   C15435680   0.216   4.113   3.934  0.1640 -0.4897  0.1225
   94MOL   C15535681   0.087   4.085   4.000 -0.7581 -0.5305  0.5519
   94MOL   C15635682   7.747   4.109   3.912 -0.3381 -0.1268  0.3633
   94MOL   C15735683   7.612   4.080   3.998 -0.3251 -0.0002  0.4470
   94MOL   C15835684   7.485   4.133   3.923 -0.0615 -0.1343 -0.6953
   94MOL   C15935685   7.439   4.058   3.808  0.6253 -0.5479 -0.1618
   94MOL   O16035686   0.073   3.950   4.048  0.2687 -0.3124 -0.4273
   94MOL   H16135687   0.244   4.034   3.864  1.1366  0.4071 -0.5307
   94MOL   H16235688   0.207   4.194   3.862 -1.8762 -0.9528 -0.1680
   94MOL   H16335689   0.077   4.155   4.083 -1.6137 -1.2456  1.0594
   94MOL   H16435690   7.743   4.045   3.824  0.7899  0.5457 -0.1886
   94MOL   H16535691   7.748   4.204   3.858 -0.2746 -0.3750 -0.0775
   94MOL   H16635692   7.627   4.113   4.101 -2.8945  0.8480  0.5824
   94MOL   H16735693   7.603   3.972   4.004 -1.8697 -0.1260 -3.0564
   94MOL   H16835694   7.412   4.154   4.001  0.9771  3.5783 -0.6045
   94MOL   H16935695   7.501   4.230   3.875 -0.6481  0.4817  0.3271
   94MOL   H17035696   7.511   4.044   3.727 -0.6238 -0.6790 -1.2702
   94MOL   H17135697   7.343   4.093   3.769  0.8593  0.7627  0.4047
   94MOL   H17235698   7.416   3.960   3.847 -2.2381  0.3395  0.5027
   94MOL   C17335699   0.163   3.912   4.154  0.5884 -0.0367 -0.9372
   94MOL   C17435700   0.116   3.773   4.211 -0.4178  0.4990 -0.2880
   94MOL   C17535701   0.225   3.713   4.300  0.1049  0.2804  0.5533
   94MOL   C17635702   0.184   3.586   4.372  0.0897  0.2235  0.7854
   94MOL   C17735703   0.285   3.524   4.472 -0.0845  0.3575 -0.2002
   94MOL   C17835704   0.230   3.381   4.516 -0.3989  0.2567  0.4007
   94MOL   O17935705   0.001   3.804   4.297  0.0601  0.5243 -0.1629
   94MOL   H18035706   0.173   3.987   4.233  0.6606  0.1945 -1.1641
   94MOL   H18135707   0.267   3.916   4.122  0.3097  1.7080 -1.7061
   94MOL   H18235708   0.089   3.701   4.134 -0.8990  1.2412 -0.8203
   94MOL   H18335709   0.310   3.702   4.233  0.3976  2.1385  0.6011
   94MOL   H18435710   0.243   3.790   4.375 -1.7822  1.4624 -0.1665
   94MOL   H18535711   0.083   3.596   4.413 -0.2019  2.3101 -0.3729
   94MOL   H18635712   0.168   3.506   4.299 -0.9771 -0.5595  1.8537
   94MOL   H18735713   0.391   3.525   4.446  0.5536 -0.1895  2.2688
   94MOL   H18835714   0.280   3.577   4.567 -1.7706  0.2497 -0.2110
   94MOL   H18935715   0.259   3.348   4.615 -1.1251  0.4072  0.6686
   94MOL   H19035716   0.261   3.307   4.442 -2.7158  1.7189 -2.1427
   94MOL   H19135717   0.121   3.389   4.523 -0.2939  2.0788  0.4039
   94MOL   C19235718   7.660   3.764   4.241 -0.7933 -0.5515 -0.0154
   94MOL   C19335719   7.547   3.823   4.326  0.7516 -0.4539  0.0798
   94MOL   C19435720   7.563   3.782   4.470 -0.2018 -0.7883  0.3670
   94MOL   C19535721   7.446   3.832   4.550  0.2294  0.4350 -0.8688
   94MOL   C19635722   7.456   3.806   4.703  0.0890  0.2678 -0.0952
   94MOL   C19735723   7.573   3.877   4.772  0.0566  0.5874  0.6266
   94MOL   O19835724   7.423   3.789   4.273  0.9260 -0.5206  0.0290
   94MOL   H19935725   7.653   3.800   4.138 -0.8747 -2.5822 -0.7399
   94MOL   H20035726   7.642   3.656   4.240 -2.0706 -0.3786  2.1020
   94MOL   H20135727   7.564   3.930   4.316  0.1894 -0.4693 -1.1236
   94MOL   H20235728   7.561   3.673   4.475  0.3858 -0.8712 -1.0369
   94MOL   H20335729   7.661   3.800   4.514  0.3899  0.6503 -1.4846
   94MOL   H20435730   7.356   3.779   4.518 -0.3138  3.1942 -4.1922
   94MOL   H20535731   7.423   3.936   4.528  2.1143  0.9505 -0.4865
   94MOL   H20635732   7.360   3.839   4.742 -0.4410 -1.3111 -0.0005
   94MOL   H20735733   7.466   3.698   4.718  0.2119  0.3894  0.7359
   94MOL   H20835734   7.599   3.824   4.864 -2.1396 -1.6502  0.0033
   94MOL   H20935735   7.662   3.873   4.709 -1.1970 -0.4424 -1.1294
   94MOL   H21035736   7.550   3.981   4.794 -0.2478  0.4087  1.1609
   94MOL   C21135737   7.370   3.848   4.145 -0.1462  0.6441 -0.5799
   94MOL   C21235738   7.214   3.827   4.134 -0.1517 -0.3339  0.2157
   94MOL   C21335739   7.171   3.834   3.988  0.4530  0.2239  0.4222
   94MOL   C21435740   7.025   3.793   3.973 -0.2802 -0.0231  0.0318
   94MOL   C21535741   6.980   3.771   3.828 -0.4392  0.3211  0.7237
   94MOL   C21635742   6.829   3.746   3.820  0.0207  0.4621 -0.4826
   94MOL   O21735743   7.140   3.936   4.199  0.1862 -0.5363 -0.4500
   94MOL   H21835744   7.423   3.826   4.053  0.2084  0.0127 -0.2348
   94MOL   H21935745   7.388   3.955   4.144 -0.7723  0.7409 -2.2785
   94MOL   H22035746   7.179   3.732   4.174  0.2504 -0.7020 -0.3010
   94MOL   H22135747   7.212   3.926   3.947  1.9336 -0.8037 -0.4791
   94MOL   H22235748   7.221   3.751   3.937  1.5899  0.0533  1.7639
   94MOL   H22335749   7.013   3.698   4.024  0.1764 -1.3455 -2.2474
   94MOL   H22435750   6.969   3.870   4.026 -0.7590  0.2036 -0.7992
   94MOL   H22535751   7.001   3.850   3.755 -0.9346  0.7640  1.0515
   94MOL   H22635752   7.033   3.681   3.797 -3.0356 -0.4642 -1.6526
   94MOL   H22735753   6.792   3.700   3.729  1.3837  0.1122 -0.8703
   94MOL   H22835754   6.773   3.837   3.844 -1.5501 -0.5610 -0.2405
   94MOL   H22935755   6.812   3.678   3.904  1.5406  1.6341  0.8124
   94MOL   C23035756   7.142   3.920   4.340  0.0718 -0.3182  0.3952
   94MOL   C23135757   7.079   4.045   4.402  0.1489  0.2038 -0.6916
   94MOL   C23235758   7.105   4.074   4.551 -0.9161 -0.4645  0.2242
   94MOL   C23335759   7.030   4.192   4.609 -0.3770 -0.1697 -0.0729
   94MOL   C23435760   7.073   4.242   4.747 -0.2699  0.5652  0.1342
   94MOL   C23535761   7.004   4.379   4.775  0.4876 -0.2014 -0.7167
   94MOL   O23635762   6.943   4.047   4.389 -0.1404 -0.1400 -0.0469
   94MOL   H23735763   7.096   3.828   4.375  2.0989 -2.2606 -1.7932
   94MOL   H23835764   7.240   3.912   4.387 -0.2735 -0.9114  1.0306
   94MOL   H23935765   7.131   4.129   4.356  1.1679  0.8068  1.4844
   94MOL   H24035766   7.210   4.096   4.565 -1.6371  1.3259  2.9842
   94MOL   H24135767   7.097   3.990   4.621 -2.1150  0.8862  1.7415
   94MOL   H24235768   6.922   4.176   4.608 -0.4048 -0.0519  0.6594
   94MOL   H24335769   7.045   4.277   4.542 -2.0676 -0.3208 -0.6754
   94MOL   H24435770   7.038   4.172   4.823  0.3661 -0.2651 -0.3375
   94MOL   H24535771   7.181   4.241   4.743 -0.2555 -0.0774  0.5834
   94MOL   H24635772   6.898   4.396   4.756  0.6452  1.7394  0.0696
   94MOL   H24735773   7.063   4.462   4.735  0.1504  1.5866  2.3504
   94MOL   H24835774   7.011   4.387   4.883 -4.1116  0.1679 -0.3312
   94MOL   C24935775   6.898   4.118   4.275  0.5235 -0.3376  0.5345
   94MOL   C25035776   6.746   4.094   4.247 -0.1572 -0.3682  0.3048
   94MOL   C25135777   6.676   4.130   4.379  0.2845 -0.4852 -0.4004
   94MOL   C25235778   6.523   4.150   4.365 -0.6273  1.1586 -0.8606
   94MOL   C25335779   6.455   4.161   4.512  0.8102  0.8238  0.5042
   94MOL   C25435780   6.304   4.160   4.493  0.1510 -0.1568 -0.0997
   94MOL   O25535781   6.728   3.967   4.192  0.2498  0.6342  0.0711
   94MOL   H25635782   6.920   4.224   4.290  0.4396 -0.0951 -1.0448
   94MOL   H25735783   6.957   4.092   4.187  0.3633 -0.9380  0.6013
   94MOL   H25835784   6.716   4.169   4.174 -0.9251 -0.9784 -0.0110
   94MOL   H25935785   6.698   4.054   4.455  1.0906 -0.4396 -0.5806
   94MOL   H26035786   6.711   4.219   4.432  0.3903 -1.0709  0.5289
   94MOL   H26135787   6.497   4.235   4.302 -0.8723  1.7671  0.0354
   94MOL   H26235788   6.471   4.066   4.319 -1.2210  0.4277  1.0549
   94MOL   H26335789   6.483   4.070   4.565 -0.3733  0.3481  0.3328
   94MOL   H26435790   6.489   4.245   4.573 -0.1242  1.3428  0.3294
   94MOL   H26535791   6.242   4.148   4.582  2.2916 -3.0414  1.1006
   94MOL   H26635792   6.267   4.091   4.416  1.9110 -0.8723 -0.3204
   94MOL   H26735793   6.256   4.252   4.460  0.5702 -0.1584 -0.7039
   94MOL   C26835794   6.753   3.858   4.279  0.0549  0.1016  0.3556
   94MOL   C26935795   6.717   3.723   4.206 -0.3643 -0.0274  0.3999
   94MOL   C27035796   6.566   3.716   4.168  0.5791  0.4045 -0.5504
   94MOL   C27135797   6.525   3.595   4.072 -0.3462 -0.4772  0.1785
   94MOL   C27235798   6.377   3.574   4.057  0.0149 -0.3931 -0.4158
   94MOL   C27335799   6.299   3.694   4.003  0.3901  0.1240  0.3090
   94MOL   O27435800   6.747   3.607   4.286  0.4997 -0.0635  0.5664
   94MOL   H27535801   6.699   3.858   4.373 -0.2025 -1.2430  0.2190
   94MOL   H27635802   6.858   3.850   4.304  0.0550  1.1917  0.7263
   94MOL   H27735803   6.779   3.716   4.117  1.1144  1.1084  1.3291
   94MOL   H27835804   6.507   3.705   4.259 -0.6493  0.2508 -1.3472
   94MOL   H27935805   6.533   3.810   4.124  1.7181  1.2536  0.3921
   94MOL   H28035806   6.583   3.630   3.987  1.5314  1.9071  2.3655
   94MOL   H28135807   6.572   3.502   4.106 -1.2737 -1.1552 -0.3746
   94MOL   H28235808   6.359   3.496   3.983 -0.4205 -2.1958  1.5620
   94MOL   H28335809   6.346   3.552   4.159  2.0142  1.2591  0.6029
   94MOL   H28435810   6.311   3.790   4.053 -0.4932 -1.1443  3.0651
   94MOL   H28535811   6.324   3.715   3.899  0.0994 -0.2091  0.1701
   94MOL   H28635812   6.191   3.685   4.000  0.4334 -0.1338 -0.7951
   94MOL   C28735813   6.877   3.555   4.273 -0.4210 -0.4171 -0.2921
   94MOL   C28835814   6.891   3.429   4.366  0.2816 -0.6181 -0.4107
   94MOL   C28935815   6.785   3.325   4.334  0.0181  0.3647  0.2643
   94MOL   C29035816   6.820   3.184   4.386  0.0093 -0.3430  0.5184
   94MOL   C29135817   6.698   3.086   4.377 -0.0186 -0.2006  0.1312
   94MOL   C29235818   6.723   2.946   4.437  0.2750 -0.6053  0.2866
   94MOL   O29335819   6.889   3.467   4.499  0.1961 -0.1468  0.1241
   94MOL   H29435820   6.945   3.632   4.310  0.4761 -1.8205  1.0234
   94MOL   H29535821   6.886   3.520   4.170  0.6321  1.1821 -0.7584
   94MOL   H29635822   6.989   3.386   4.346  0.7101  0.3294 -0.3757
   94MOL   H29735823   6.696   3.365   4.383  0.1249 -0.7808  1.4164
   94MOL   H29835824   6.769   3.308   4.228 -0.5119  0.4907  0.3225
   94MOL   H29935825   6.915   3.146   4.349 -0.5153  1.1212 -2.4833
   94MOL   H30035826   6.851   3.200   4.490 -0.0382 -0.5567  0.5642
   94MOL   H30135827   6.665   3.078   4.273  1.9730 -1.1428 -0.4566
   94MOL   H30235828   6.610   3.129   4.425 -0.0250  0.3210 -0.3489
   94MOL   H30335829   6.731   2.944   4.545 -0.2285  2.5421  0.4305
   94MOL   H30435830   6.647   2.871   4.412 -1.4896  0.5612  2.0537
   94MOL   H30535831   6.813   2.892   4.407  0.8293 -0.4841  1.6948
   94MOL   C30635832   7.015   3.486   4.564 -0.7187  0.0826  0.2484
   94MOL   C30735833   6.994   3.499   4.711  0.2424 -0.2714 -0.3588
   94MOL   C30835834   7.118   3.557   4.776  0.3716 -0.2743  0.5547
   94MOL   C30935835   7.110   3.569   4.928  0.2204  0.9648 -0.7936
   94MOL   C31035836   7.238   3.632   4.989  0.1432 -0.0719  1.5408
   94MOL   C31135837   7.267   3.600   5.133  0.7610 -1.1929 -0.2416
   94MOL   O31235838   6.998   3.370   4.769  0.4587 -0.1273  0.0424
   94MOL   H31335839   7.078   3.402   4.536 -1.9128 -0.0826 -2.1762
   94MOL   H31435840   7.050   3.579   4.519  1.7404  0.7156  3.3276
   94MOL   H31535841   6.908   3.560   4.737 -1.2988 -2.5392 -0.0168
   94MOL   H31635842   7.124   3.662   4.747  0.0560 -0.9514 -2.1062
   94MOL   H31735843   7.212   3.512   4.744  0.0388  0.6556 -1.8765
   94MOL   H31835844   7.027   3.625   4.971 -0.0422  1.3161 -1.7626
   94MOL   H31935845   7.103   3.467   4.968  0.0747  0.5968 -1.7545
   94MOL   H32035846   7.232   3.741   4.984  2.7718  0.0391 -0.1116
   94MOL   H32135847   7.322   3.610   4.923 -1.0053  1.2689 -0.4146
   94MOL   H32235848   7.362   3.650   5.152  0.1219 -0.1060  0.1147
   94MOL   H32335849   7.192   3.641   5.200  1.3300  0.7382 -0.7430
   94MOL   H32435850   7.265   3.493   5.155  3.7250 -0.9587  1.4800
   94MOL   C32535851   6.870   3.319   4.814 -0.2565  0.0338  0.1594
   94MOL   C32635852   6.894   3.196   4.906  0.5004  0.2358 -0.1108
   94MOL   C32735853   6.930   3.234   5.049  0.1099  0.7942  0.7896
   94MOL   C32835854   6.933   3.116   5.144  0.3184 -0.3919 -0.3230
   94MOL   C32935855   6.963   3.181   5.283 -0.2386 -0.1143  0.0214
   94MOL   C33035856   7.116   3.186   5.316  0.6642  0.0634 -0.3977
   94MOL   O33135857   6.983   3.096   4.862  0.2823  0.3200 -0.3595
   94MOL   H33235858   6.811   3.307   4.723  0.8331 -0.4178 -0.5022
   94MOL   H33335859   6.814   3.392   4.872  1.4784  1.3131  0.2595
   94MOL   H33435860   6.796   3.152   4.920  0.7889 -0.9317 -1.5469
   94MOL   H33535861   7.035   3.265   5.039  0.2559  0.2362  0.5784
   94MOL   H33635862   6.872   3.319   5.086 -0.6486  0.6162  0.0281
   94MOL   H33735863   6.832   3.076   5.137  0.0753  0.0466  0.5167
   94MOL   H33835864   7.002   3.033   5.134 -0.9074 -1.4187 -0.3207
   94MOL   H33935865   6.912   3.277   5.294 -1.6938 -0.5559 -2.5158
   94MOL   H34035866   6.914   3.127   5.363 -1.6016 -0.9287 -1.3306
   94MOL   H34135867   7.120   3.230   5.415 -0.4577 -0.3844 -0.1509
   94MOL   H34235868   7.148   3.083   5.329  2.3673  0.8794  2.1163
   94MOL   H34335869   7.172   3.230   5.233  0.7230 -0.8253 -0.8312
   94MOL   C34435870   6.979   3.062   4.722 -0.4120 -0.8902 -0.3724
   94MOL   C34535871   7.061   2.935   4.700  0.1218  0.4538  0.1409
   94MOL   C34635872   7.013   2.823   4.786 -0.5569  0.3817  0.2576
   94MOL   C34735873   7.113   2.705   4.793 -0.3366 -0.2374 -0.3538
   94MOL   C34835874   7.057   2.566   4.828  0.4506  0.6615  0.6350
   94MOL   C34935875   6.965   2.519   4.714 -0.0989 -0.2138 -0.5440
   94MOL   O35035876   7.067   2.887   4.560 -0.2132 -0.4610 -0.3890
   94MOL   H35135877   7.037   3.139   4.671 -0.1865 -0.9670 -0.2340
   94MOL   H35235878   6.888   3.052   4.662 -1.2929  0.1330  0.7924
   94MOL   H35335879   7.160   2.948   4.744  1.5152 -0.3999 -2.5832
   94MOL   H35435880   6.918   2.780   4.752 -0.8193  0.3218  1.0554
   94MOL   H35535881   6.996   2.865   4.885  0.2536  0.4550  0.3670
   94MOL   H35635882   7.178   2.734   4.875 -0.8046 -0.5060  0.1191
   94MOL   H35735883   7.185   2.698   4.712  1.0538 -1.8503  0.9799
   94MOL   H35835884   7.001   2.577   4.921  1.0670 -0.2896  1.1225
   94MOL   H35935885   7.135   2.490   4.832  0.8425  1.0766  0.9194
   94MOL   H36035886   6.876   2.582   4.712 -1.4957 -2.1080  0.5235
   94MOL   H36135887   6.933   2.415   4.721 -1.4182  0.1002 -1.6975
   94MOL   H36235888   7.023   2.531   4.622  2.1096 -0.5093  0.7911
   94MOL   C36335889   7.146   2.962   4.487  0.6213  0.2712 -0.2800
   94MOL   C36435890   7.155   2.885   4.357 -0.3069  0.9810 -0.7117
   94MOL   C36535891   7.218   2.963   4.240 -0.0546  0.2154 -0.1371
   94MOL   C36635892   7.198   2.904   4.106 -0.0832  0.5267  0.2217
   94MOL   C36735893   7.261   2.978   3.989 -0.0238 -0.1673  0.0416
   94MOL   C36835894   7.230   2.918   3.858  0.0443 -0.0645  0.8698
   94MOL   O36935895   7.221   2.766   4.394 -0.5192  0.0630  0.0198
   94MOL   H37035896   7.246   2.966   4.528  0.7702 -3.5180 -0.0805
   94MOL   H37135897   7.097   3.057   4.468 -0.4468 -0.0945  0.6116
   94MOL   H37235898   7.062   2.838   4.322  0.7652 -2.3455  0.6854
   94MOL   H37335899   7.157   3.054   4.239  0.2332  0.4450  2.0902
   94MOL   H37435900   7.326   2.975   4.241  0.3438 -3.0522 -0.9179
   94MOL   H37535901   7.222   2.798   4.102 -2.1502  0.1048 -1.9133
   94MOL   H37635902   7.090   2.892   4.097  0.0819 -0.2950 -0.6959
   94MOL   H37735903   7.238   3.084   3.995 -0.3457 -0.2116 -0.4598
   94MOL   H37835904   7.370   2.973   3.999 -0.1747 -1.0724  1.3349
   94MOL   H37935905   7.261   2.814   3.869 -1.9180 -0.8457 -0.7240
   94MOL   H38035906   7.127   2.932   3.824  1.3292 -0.2669 -3.3351
   94MOL   H38135907   7.287   2.962   3.777 -0.6922 -0.1402  0.3070
   94MOL   H38235908   7.161   2.737   4.461 -0.2798 -1.2318 -0.3103
   95MOL     C135909   2.631   7.418   6.934  0.0857  0.1967  0.3102
   95MOL     C235910   2.542   7.427   6.811  0.4112 -0.6078 -0.1683
   95MOL     C335911   2.398   7.396   6.836 -0.6566 -0.4134 -0.5244
   95MOL     C435912   2.363   7.263   6.899 -0.0705 -0.0350 -0.0766
   95MOL     C535913   2.218   7.256   6.947 -0.4789  0.1706  0.0919
   95MOL     C635914   2.112   7.254   6.835 -0.4050  0.0587 -0.1491
   95MOL     O735915   2.540   7.555   6.751 -0.1221 -0.0270 -0.3113
   95MOL     H835916   2.619   7.507   6.996  0.2578  0.4577 -0.0279
   95MOL     H935917   2.739   7.416   6.924  0.3362 -0.2894  2.7754
   95MOL    H1035918   2.583   7.355   6.741 -0.0817  0.9272 -2.0961
   95MOL    H1135919   2.352   7.482   6.885  0.2252  0.5151 -1.3149
   95MOL    H1235920   2.354   7.390   6.736  0.2033 -0.7178 -0.8832
   95MOL    H1335921   2.394   7.190   6.824  0.8021  0.6126 -0.3625
   95MOL    H1435922   2.435   7.241   6.979 -0.5499  0.5140  0.5076
   95MOL    H1535923   2.211   7.169   7.013 -1.2644 -0.7580 -1.2034
   95MOL    H1635924   2.203   7.347   7.004 -0.6386 -0.5874  1.2839
   95MOL    H1735925   2.110   7.354   6.793 -3.0019 -0.4725 -1.3740
   95MOL    H1835926   2.123   7.178   6.757  3.5291  0.4396 -0.0705
   95MOL    H1935927   2.016   7.244   6.885  0.7539 -0.0876  2.1179
   95MOL    H2035928   2.609   7.329   6.993  1.5410 -0.3662  0.0041
   95MOL    C2135929   2.661   7.622   6.728 -0.2620  0.0563  0.4106
   95MOL    C2235930   2.624   7.737   6.635 -0.0063 -0.3941 -0.6327
   95MOL    C2335931   2.741   0.049   6.599 -0.0531  0.2093 -0.3101
   95MOL    C2435932   2.715   0.160   6.488 -0.1253  0.1269 -0.3541
   95MOL    C2535933   2.820   0.276   6.469  0.2088  0.2629  0.4307
   95MOL    C2635934   2.770   0.374   6.360 -0.7978  0.0546 -0.5096
   95MOL    O2735935   2.597   7.676   6.513 -0.4226 -0.7564 -0.0432
   95MOL    H2835936   2.702   7.665   6.819  0.0096 -0.7932  0.6924
   95MOL    H2935937   2.736   7.554   6.686  0.8348  1.0131  0.7786
   95MOL    H3035938   2.543   0.012   6.676  1.6156  0.0963  2.0015
   95MOL    H3135939   2.824   7.772   6.566 -0.4983 -1.5947  1.8966
   95MOL    H3235940   2.780   0.099   6.687  1.3274 -0.4614 -0.5280
   95MOL    H3335941   2.621   0.213   6.500 -1.0591 -1.7047  0.6471
   95MOL    H3435942   2.697   0.100   6.399  0.0894 -0.8692  0.2705
   95MOL    H3535943   2.835   0.331   6.562 -0.9598 -0.2561  0.9283
   95MOL    H3635944   2.917   0.236   6.439 -1.9628 -3.4334 -2.0133
   95MOL    H3735945   2.754   0.334   6.260  1.2808 -1.1063 -0.4140
   95MOL    H3835946   2.845   0.453   6.348  1.0493 -1.1410  2.5384
   95MOL    H3935947   2.678   0.424   6.390  0.4685  1.9946  0.3202
   95MOL    C4035948   2.457   7.687   6.492  0.0411  0.2493  0.1136
   95MOL    C4135949   2.413   7.591   6.376 -0.3898  0.1697 -0.1278
   95MOL    C4235950   2.484   7.615   6.246 -0.5375 -0.2688  0.3439
   95MOL    C4335951   2.458   7.497   6.144 -0.3806 -0.5128 -0.0106
   95MOL    C4435952   2.459   7.529   5.992 -0.0231  0.4655  0.2887
   95MOL    C4535953   2.436   7.399   5.906 -0.1236 -0.7058 -0.3160
   95MOL    O4635954   2.270   7.619   6.350  0.0906  0.1731  0.4454
   95MOL    H4735955   2.426   0.001   6.460  1.2089  0.0804 -1.6149
   95MOL    H4835956   2.394   7.677   6.580 -2.6840  2.6264 -1.4995
   95MOL    H4935957   2.431   7.486   6.401 -1.2590  0.0643  0.0828
   95MOL    H5035958   2.453   7.711   6.203  0.7219  0.3272  0.7328
   95MOL    H5135959   2.589   7.639   6.261 -0.5119 -0.5412  0.5985
   95MOL    H5235960   2.361   7.452   6.165 -1.8827  2.5159 -0.0888
   95MOL    H5335961   2.531   7.419   6.164  2.5731  2.1209 -0.1931
   95MOL    H5435962   2.391   7.612   5.974 -1.5807 -1.3873 -2.9296
   95MOL    H5535963   2.557   7.565   5.961 -0.2253  2.7473  2.1987
   95MOL    H5635964   2.460   7.403   5.800  1.8564 -0.9224  0.1121
   95MOL    H5735965   2.496   7.313   5.934  0.2436 -0.0846  0.8393
   95MOL    H5835966   2.330   7.374   5.920 -1.3377  1.6229 -4.6125
   95MOL    C5935967   2.177   7.551   6.433 -0.6122  0.7034 -0.7688
   95MOL    C6035968   2.041   7.618   6.445 -0.7767 -0.4560 -0.1543
   95MOL    C6135969   1.922   7.522   6.458  0.6821 -0.3860 -0.4795
   95MOL    C6235970   1.782   7.605   6.458 -0.6452 -0.5277 -0.3286
   95MOL    C6335971   1.667   7.500   6.451  0.1719  0.2669  0.0829
   95MOL    C6435972   1.526   7.562   6.428 -0.5644  0.0585  0.3459
   95MOL    O6535973   2.056   7.710   6.554  0.5961 -0.2233 -0.2506
   95MOL    H6635974   2.212   7.527   6.534  1.7998  2.7552 -1.0979
   95MOL    H6735975   2.163   7.449   6.397 -1.6706  0.3177  0.6976
   95MOL    H6835976   2.022   7.665   6.348 -0.8075 -2.1241 -0.9715
   95MOL    H6935977   1.921   7.473   6.555  0.4580  1.6538  0.5911
   95MOL    H7035978   1.931   7.450   6.378  0.1510 -0.7425 -0.2165
   95MOL    H7135979   1.775   7.673   6.373 -0.0138 -1.4944 -1.1706
   95MOL    H7235980   1.776   7.675   6.541  1.4164 -0.2947 -0.3405
   95MOL    H7335981   1.667   7.442   6.543 -1.3920  0.1829  0.0419
   95MOL    H7435982   1.694   7.425   6.377 -0.2446  0.5143 -0.3187
   95MOL    H7535983   1.447   7.488   6.420 -0.2850  0.0151 -2.2887
   95MOL    H7635984   1.501   7.632   6.508  1.3143 -0.1066  1.0939
   95MOL    H7735985   1.522   7.607   6.329  0.6666 -0.2497  0.1557
   95MOL    C7835986   2.103   0.058   6.530 -0.3298  0.3299  0.3398
   95MOL    C7935987   2.093   0.138   6.671 -0.4384  0.0269 -0.5830
   95MOL    C8035988   2.092   0.291   6.648 -0.4221  0.5376 -0.6795
   95MOL    C8135989   2.098   0.379   6.776  0.0705  0.0183  0.1004
   95MOL    C8235990   2.074   0.524   6.752  0.1821 -0.3918 -0.2108
   95MOL    C8335991   2.187   0.605   6.690  0.7426 -0.4683 -0.7111
   95MOL    O8435992   2.202   0.108   6.759 -0.7247 -0.2212  0.0141
   95MOL    H8535993   2.035   0.100   6.456  0.2484  2.0881  0.7857
   95MOL    H8635994   2.204   0.054   6.490 -1.9019  1.2504 -4.0349
   95MOL    H8735995   1.997   0.125   6.721 -0.6594  0.4630 -0.8914
   95MOL    H8835996   2.171   0.321   6.579  0.0848 -1.8132 -1.1551
   95MOL    H8935997   2.004   0.315   6.589 -0.2868  0.2351 -1.0055
   95MOL    H9035998   2.200   0.372   6.813  0.8551  1.4865 -1.6586
   95MOL    H9135999   2.038   0.321   6.845  0.8666 -0.0245  0.7590
   95MOL    H9236000   1.982   0.532   6.695  0.1433 -1.0877 -0.2390
   95MOL    H9336001   2.041   0.561   6.850 -3.0976 -2.5636 -0.3938
   95MOL    H9436002   2.174   0.713   6.686  0.5510 -0.4256  0.7659
   95MOL    H9536003   2.219   0.570   6.592 -1.5119  1.5413 -2.2128
   95MOL    H9636004   2.264   0.599   6.767  0.4959  1.7264 -0.2594
   95MOL    C9736005   2.208   7.769   6.821 -0.2736 -0.1813  0.3280
   95MOL    C9836006   2.203   7.785   6.970 -0.7627  0.0002  0.2374
   95MOL    C9936007   2.294   0.111   7.017  0.0300  0.3978  0.1018
   95MOL   C10036008   2.448   0.081   6.995  0.1353  0.3523  0.1851
   95MOL   C10136009   2.546   0.187   7.058  0.1461 -0.8609  0.2832
   95MOL   C10236010   2.687   0.163   7.006  0.0393 -0.1845 -0.0761
   95MOL   O10336011   2.064   0.032   7.004 -0.1763  0.6904  0.2007
   95MOL   H10436012   2.295   7.723   6.773  0.6834  1.4434  0.4531
   95MOL   H10536013   2.127   7.706   6.784  2.4888 -1.9450 -3.1249
   95MOL   H10636014   2.233   7.694   7.022 -1.1766 -0.5446 -0.4689
   95MOL   H10736015   2.286   0.131   7.124 -0.8458  0.9963 -0.0670
   95MOL   H10836016   2.275   0.207   6.968 -1.1268 -0.4490 -1.1299
   95MOL   H10936017   2.462   0.068   6.888 -3.3832 -0.7349 -0.2117
   95MOL   H11036018   2.469   7.769   7.039 -1.5464 -0.2003 -0.1852
   95MOL   H11136019   2.548   0.165   7.165 -3.0637  0.4293  0.6843
   95MOL   H11236020   2.519   0.291   7.043  0.7474 -0.5440  1.3821
   95MOL   H11336021   2.748   0.247   7.039 -1.1036  0.0560  1.4694
   95MOL   H11436022   2.726   0.072   7.050  0.2668 -1.0107 -1.9164
   95MOL   H11536023   2.696   0.168   6.897  1.0150  0.9710  0.0480
   95MOL   C11636024   2.030   0.040   7.141 -0.3263 -0.0310  0.6295
   95MOL   C11736025   2.073   7.710   7.230  0.5425 -0.0360  0.4649
   95MOL   C11836026   2.021   7.574   7.173 -0.1167  0.4307  0.5883
   95MOL   C11936027   2.021   7.459   7.266 -0.3579  0.2701  0.3382
   95MOL   C12036028   1.962   7.331   7.203 -0.0781  0.2500  0.7624
   95MOL   C12136029   2.025   7.199   7.248  0.1178 -0.5022  0.2883
   95MOL   O12236030   1.999   7.730   7.348  0.0414  0.2643 -0.6094
   95MOL   H12336031   2.078   0.117   7.202  0.6004 -0.5549  0.5627
   95MOL   H12436032   1.921   0.047   7.144 -0.3747 -0.7430  0.5723
   95MOL   H12536033   2.180   7.717   7.249  0.2390 -0.0308  2.2357
   95MOL   H12636034   1.920   7.597   7.139 -0.1538  1.3708  1.2950
   95MOL   H12736035   2.080   7.540   7.088 -2.1948 -1.0816 -0.2717
   95MOL   H12836036   1.970   7.497   7.354  1.5150  1.3038  1.0196
   95MOL   H12936037   2.123   7.448   7.303 -0.7916 -1.2317  1.1470
   95MOL   H13036038   1.854   7.329   7.218 -0.1468 -1.3395  0.1281
   95MOL   H13136039   1.965   7.335   7.094  1.7878  2.5525  0.8456
   95MOL   H13236040   2.128   7.183   7.216  0.8827  1.4412  1.7018
   95MOL   H13336041   2.027   7.195   7.357  1.8921 -0.0313  0.2907
   95MOL   H13436042   1.972   7.115   7.203  0.6256  0.1461 -1.5967
   95MOL   C13536043   2.071   7.724   7.469 -0.5334  0.0486 -0.4340
   95MOL   C13636044   1.995   0.008   7.587  0.1751 -0.4660 -0.7735
   95MOL   C13736045   2.085   0.061   7.699  0.0797  0.5532 -0.5346
   95MOL   C13836046   2.154   7.738   7.778 -0.8128  0.8060  0.4229
   95MOL   C13936047   2.258   0.002   0.088  0.2176 -0.1769  0.3690
   95MOL   C14036048   2.196   0.079   0.213  0.5896 -0.6034  0.2276
   95MOL   O14136049   1.903   7.702   7.645 -0.1596 -0.5243  0.3431
   95MOL   H14236050   2.094   7.626   7.510 -0.5966 -0.4670 -1.6140
   95MOL   H14336051   2.163   7.781   7.456 -0.8585  0.0008 -3.2108
   95MOL   H14436052   1.944   0.097   7.552 -2.5752 -1.6004  0.2249
   95MOL   H14536053   2.154   0.139   7.667  0.8621 -0.8567 -2.3877
   95MOL   H14636054   2.022   0.114   7.770 -0.3397  0.8911 -1.1600
   95MOL   H14736055   2.225   7.680   7.718  0.3021  0.3135  2.1785
   95MOL   H14836056   2.087   7.676   0.052  0.1063 -0.3368  0.2868
   95MOL   H14936057   2.325   0.070   0.036  0.0265  1.6258  2.4199
   95MOL   H15036058   2.318   7.706   0.128  1.6747  1.2963  1.2556
   95MOL   H15136059   2.275   0.120   0.275  0.4328 -1.1197  0.7697
   95MOL   H15236060   2.141   0.170   0.190 -1.9859 -2.0779  0.3965
   95MOL   H15336061   2.142   0.009   0.276  0.9853 -1.6642 -0.5959
   95MOL   C15436062   1.786   7.662   7.574 -0.3505  0.1998 -0.4279
   95MOL   C15536063   1.686   7.763   7.521 -0.3524 -0.1119  0.0676
   95MOL   C15636064   1.604   7.690   7.413 -0.0421 -0.4722 -0.2363
   95MOL   C15736065   1.489   7.784   7.365  0.3744  0.0222  0.0997
   95MOL   C15836066   1.386   7.721   7.266 -0.1677  0.4975 -0.9863
   95MOL   C15936067   1.461   7.693   7.136 -0.0888  0.0746 -0.3760
   95MOL   O16036068   1.598   0.016   7.627 -0.5718  0.4105  0.1856
   95MOL   H16136069   1.749   7.588   7.644 -1.2346  0.5595 -0.5012
   95MOL   H16236070   1.817   7.604   7.488 -1.9695 -0.6065 -0.4807
   95MOL   H16336071   1.732   0.066   7.479  0.5084  0.4981  2.2319
   95MOL   H16436072   1.567   7.594   7.449 -1.1758  0.8100  2.1313
   95MOL   H16536073   1.674   7.679   7.330 -0.9856  0.0703 -1.1075
   95MOL   H16636074   1.535   0.091   7.329 -0.2319  0.1818 -0.2841
   95MOL   H16736075   1.433   0.028   7.454  0.8973  0.7625  0.1879
   95MOL   H16836076   1.345   7.626   7.301  2.4834  0.2245  1.6003
   95MOL   H16936077   1.305   0.006   7.246 -1.9803 -0.7704  1.5367
   95MOL   H17036078   1.528   7.606   7.137  1.2952  1.1336  0.1367
   95MOL   H17136079   1.523   7.778   7.108 -0.5442  0.2185 -0.9541
   95MOL   H17236080   1.399   7.682   7.046 -0.9166 -1.7152  0.3839
   95MOL   C17336081   1.639   0.113   7.730  0.0510  0.2017  0.2707
   95MOL   C17436082   1.617   0.256   7.680  0.0234 -0.3261  0.1735
   95MOL   C17536083   1.615   0.348   0.019  0.5286  0.1584 -0.7128
   95MOL   C17636084   1.741   0.346   0.102  0.6369 -0.6134 -0.5552
   95MOL   C17736085   1.772   0.469   0.200 -0.0983 -0.8623 -0.2842
   95MOL   C17836086   1.908   0.472   0.266 -0.2105  0.7424  0.3976
   95MOL   O17936087   1.735   0.283   7.601  0.0968 -0.5431 -0.0639
   95MOL   H18036088   1.739   0.088   7.766  0.0857  0.1151  0.1155
   95MOL   H18136089   1.574   0.100   0.031  2.0548  0.8236  1.9178
   95MOL   H18236090   1.526   0.280   7.625  0.9827  0.5782 -1.0537
   95MOL   H18336091   1.585   0.446   7.767  2.1621  0.2024 -1.9383
   95MOL   H18436092   1.536   0.314   0.086  0.7210 -0.4033 -0.7665
   95MOL   H18536093   1.740   0.259   0.168 -0.5573  1.7297  2.6657
   95MOL   H18636094   1.824   0.334   0.032  0.0219  1.0823 -1.6243
   95MOL   H18736095   1.763   0.554   0.133  0.9869 -1.7084 -1.5331
   95MOL   H18836096   1.691   0.488   0.270  1.2928 -0.1634  1.1905
   95MOL   H18936097   1.907   0.514   0.367  0.0361  0.6185  0.4512
   95MOL   H19036098   1.967   0.525   0.191  2.5548 -1.9831  0.5721
   95MOL   H19136099   1.947   0.371   0.277 -0.0647  0.6185 -1.2054
   95MOL   C19236100   1.721   0.397   7.511  0.0512  0.3917  0.3318
   95MOL   C19336101   1.836   0.402   7.404 -0.3352 -0.2190 -0.2937
   95MOL   C19436102   1.971   0.403   7.474 -0.3030  0.2640 -0.3231
   95MOL   C19536103   2.101   0.407   7.388  0.6277 -0.0271 -0.0532
   95MOL   C19636104   2.233   0.405   7.470  0.0538  0.3259 -0.5901
   95MOL   C19736105   2.364   0.399   7.391  0.3439 -0.4330 -0.8696
   95MOL   O19836106   1.822   0.524   7.335 -0.1964  0.7795 -0.3698
   95MOL   H19936107   1.630   0.371   7.457 -2.3219  1.7590  3.4730
   95MOL   H20036108   1.704   0.487   7.570 -0.7437  1.5416 -1.5998
   95MOL   H20136109   1.828   0.315   7.338  1.5402  0.0467 -0.9298
   95MOL   H20236110   1.988   0.496   7.528  4.9711 -0.3505 -0.6895
   95MOL   H20336111   1.982   0.323   7.547 -0.7831  1.2324  0.8246
   95MOL   H20436112   2.095   0.482   7.309  0.2466 -0.2455 -0.2310
   95MOL   H20536113   2.104   0.318   7.326  0.5104 -0.4196  0.5007
   95MOL   H20636114   2.234   0.497   7.528 -2.7754 -0.2193  0.4301
   95MOL   H20736115   2.218   0.316   7.531 -0.1297 -0.4234 -1.7121
   95MOL   H20836116   2.383   0.293   7.375  0.9948 -0.5775  0.7589
   95MOL   H20936117   2.358   0.459   7.300 -0.5397  2.3329  0.9512
   95MOL   H21036118   2.448   0.429   7.453 -1.4286 -2.2013  2.5132
   95MOL   C21136119   1.832   0.517   7.193 -0.6796  0.0751 -0.5624
   95MOL   C21236120   1.710   0.440   7.130 -0.1801  0.2404 -0.4823
   95MOL   C21336121   1.772   0.378   7.001  0.1733 -0.1089  0.5125
   95MOL   C21436122   1.674   0.277   6.940  0.1938  0.1443  0.4803
   95MOL   C21536123   1.739   0.186   6.832 -0.2038 -0.4397  0.8059
   95MOL   C21636124   1.651   0.072   6.790 -0.6529 -0.5802 -0.0696
   95MOL   O21736125   1.611   0.539   7.087  0.4311 -0.1403 -0.4384
   95MOL   H21836126   1.918   0.453   7.171 -1.6645 -0.4529 -3.1201
   95MOL   H21936127   1.838   0.617   7.152 -3.1433  0.2240 -0.6421
   95MOL   H22036128   1.667   0.362   7.192  0.8594  1.0706  1.3594
   95MOL   H22136129   1.813   0.454   6.934  1.0092 -0.7805  0.2501
   95MOL   H22236130   1.863   0.323   7.029 -0.6077 -2.3541 -1.2112
   95MOL   H22336131   1.620   0.216   7.012 -1.4341  0.4821 -0.4370
   95MOL   H22436132   1.597   0.333   6.887  0.6587 -0.2982 -0.6738
   95MOL   H22536133   1.782   0.241   6.749  1.6220 -2.8136  0.1328
   95MOL   H22636134   1.831   0.149   6.878  0.7289  1.3734  0.4283
   95MOL   H22736135   1.609   0.018   6.875 -0.7087  0.0608  0.3174
   95MOL   H22836136   1.707   0.002   6.728 -2.0376 -1.4113 -0.3976
   95MOL   H22936137   1.576   0.107   6.720 -0.3484 -0.1239 -0.1698
   95MOL   C23036138   1.523   0.600   7.182  0.8093  0.0204 -0.1590
   95MOL   C23136139   1.409   0.496   7.207  0.4096 -0.4778 -0.4753
   95MOL   C23236140   1.331   0.456   7.081  0.0396 -0.8157 -0.0386
   95MOL   C23336141   1.256   0.320   7.111  0.4079  0.5644  0.8498
   95MOL   C23436142   1.181   0.276   6.990 -0.0901 -0.4038 -0.8813
   95MOL   C23536143   1.105   0.142   7.009 -0.3298 -0.2188  0.2257
   95MOL   O23636144   1.300   0.556   7.276  0.0970  0.6573  0.2738
   95MOL   H23736145   1.572   0.629   7.276  1.1387 -1.7636  0.2470
   95MOL   H23836146   1.486   0.695   7.144  0.7162  0.3423  0.7032
   95MOL   H23936147   1.449   0.412   7.264 -1.2393  0.1331  1.6505
   95MOL   H24036148   1.392   0.435   6.993  0.8117 -2.4205  0.8500
   95MOL   H24136149   1.252   0.524   7.050 -0.1316 -0.2348  1.5858
   95MOL   H24236150   1.192   0.334   7.198  0.2532  1.0194  0.6656
   95MOL   H24336151   1.328   0.243   7.139 -0.3416 -0.1567  0.7897
   95MOL   H24436152   1.117   0.357   6.955 -2.4790 -2.0477 -0.4381
   95MOL   H24536153   1.253   0.250   6.912  0.9671 -0.8544  0.2152
   95MOL   H24636154   1.058   0.109   6.916 -3.5844  0.0080  1.7514
   95MOL   H24736155   1.030   0.138   7.088 -0.2470 -1.0132  0.2749
   95MOL   H24836156   1.170   0.057   7.032  0.4082  0.6747  1.5199
   95MOL   C24936157   1.331   0.595   7.411  0.3886  0.0542 -0.1127
   95MOL   C25036158   1.216   0.548   7.512 -0.5162  0.3044  0.4219
   95MOL   C25136159   1.231   0.624   7.649 -0.3447 -0.2755  0.4338
   95MOL   C25236160   1.181   0.770   7.643 -0.4545  0.0800  0.6878
   95MOL   C25336161   1.200   0.848   7.768  0.1294 -0.1664 -0.3398
   95MOL   C25436162   1.119   0.972   7.773  0.3755  0.4918  0.7934
   95MOL   O25536163   1.225   0.408   7.538 -0.2618  0.2733 -0.0184
   95MOL   H25636164   1.431   0.582   7.450 -0.4688  1.1733  2.5837
   95MOL   H25736165   1.336   0.704   7.414 -0.5732  0.2458 -3.2296
   95MOL   H25836166   1.119   0.577   7.471 -0.8813  0.7037  1.5430
   95MOL   H25936167   1.168   0.571   7.720  0.0363  1.2596  1.9589
   95MOL   H26036168   1.331   0.608   7.690  0.9291 -0.0288 -2.4398
   95MOL   H26136169   1.231   0.826   7.563  2.5505 -1.2456  1.5784
   95MOL   H26236170   1.077   0.765   7.611  0.0054 -3.1853 -0.5262
   95MOL   H26336171   1.164   0.782   0.060 -1.6199  2.3470  1.0767
   95MOL   H26436172   1.307   0.864   0.001  0.4724 -1.7872 -0.8669
   95MOL   H26536173   1.161   1.035   7.695 -3.0294  2.7262  0.6921
   95MOL   H26636174   1.139   1.029   0.078 -0.8111  4.0008 -1.0850
   95MOL   H26736175   1.011   0.964   7.760  0.3512 -0.8898  1.6994
   95MOL   C26836176   1.112   0.341   7.493 -0.4442  0.4316 -0.3871
   95MOL   C26936177   1.128   0.189   7.505  0.0946 -0.4689  0.4887
   95MOL   C27036178   1.020   0.103   7.423 -0.0614 -0.5042 -0.1191
   95MOL   C27136179   1.031   7.737   7.440 -0.9793  0.3299 -0.0439
   95MOL   C27236180   0.929   7.658   7.357 -0.3676 -0.2723 -0.4813
   95MOL   C27336181   0.961   7.514   7.327 -0.1325  0.3681 -0.3142
   95MOL   O27436182   1.113   0.160   7.638 -0.1870  0.7011 -0.4289
   95MOL   H27536183   1.077   0.372   7.394  0.9177  0.8210 -0.7621
   95MOL   H27636184   1.024   0.378   7.545 -1.6773  0.9891 -2.7921
   95MOL   H27736185   1.225   0.156   7.468  0.1168 -0.7602  0.8091
   95MOL   H27836186   0.919   0.132   7.454  0.8262 -0.3967  2.8622
   95MOL   H27936187   1.023   0.135   7.319 -3.8135  1.2237  0.1887
   95MOL   H28036188   1.128   7.705   7.403 -1.5027 -0.7314 -0.5257
   95MOL   H28136189   1.015   7.713   7.545 -3.4012  1.4121 -0.1274
   95MOL   H28236190   0.837   7.667   7.415 -1.2117  1.4457 -2.0144
   95MOL   H28336191   0.925   7.705   7.258 -0.1604  0.1039 -0.3095
   95MOL   H28436192   0.900   7.467   7.249  1.3590 -1.2365 -0.5464
   95MOL   H28536193   1.060   7.501   7.284  0.9722 -0.2283  2.2986
   95MOL   H28636194   0.971   7.446   7.412  1.8806  2.2698  1.0231
   95MOL   C28736195   1.236   0.153   7.709 -0.2871 -0.5652 -0.1104
   95MOL   C28836196   1.205   0.128   0.078  0.3871  0.2803 -0.5687
   95MOL   C28936197   1.090   0.020   0.090  0.2266 -0.1132  0.2875
   95MOL   C29036198   1.069   7.757   0.240  0.4961  0.4506  0.1416
   95MOL   C29136199   0.930   7.692   0.249 -0.3815 -0.3789  0.3233
   95MOL   C29236200   0.893   7.589   0.136 -0.1444 -0.7168  0.1743
   95MOL   O29336201   1.189   0.247   0.158  0.2317  0.4710  0.3290
   95MOL   H29436202   1.300   0.240   7.698 -0.9085 -0.0588  0.2678
   95MOL   H29536203   1.295   0.072   7.665 -1.9074 -0.5986 -2.3136
   95MOL   H29636204   1.302   0.086   0.104  0.6827 -0.4609 -2.7226
   95MOL   H29736205   0.993   0.053   0.054 -0.5350  0.1657  2.4694
   95MOL   H29836206   1.121   7.722   0.027  2.0088  0.0207  0.9588
   95MOL   H29936207   1.151   7.689   0.261 -1.0694 -1.1396  1.2572
   95MOL   H30036208   1.068   0.051   0.315 -0.5488 -0.2192  0.8586
   95MOL   H30136209   0.856   7.772   0.258 -0.8885 -1.0799  2.9441
   95MOL   H30236210   0.919   7.639   0.344  1.2067 -0.0028  0.7316
   95MOL   H30336211   0.868   7.643   0.045 -1.9598  0.8085  1.5330
   95MOL   H30436212   0.975   7.522   0.112 -0.7036 -0.8561 -1.3722
   95MOL   H30536213   0.809   7.532   0.175  0.7473 -1.9292  0.3622
   95MOL   C30636214   1.086   0.341   0.126 -1.0402  0.1930  0.5788
   95MOL   C30736215   1.068   0.448   0.229 -0.3922 -0.5079  0.1567
   95MOL   C30836216   0.953   0.543   0.203  0.4088 -0.3609 -0.4044
   95MOL   C30936217   0.895   0.635   0.313 -0.0947  0.3101 -0.2092
   95MOL   C31036218   0.791   0.746   0.259 -0.1025 -0.4621 -0.7593
   95MOL   C31136219   0.747   0.829   0.382  0.1989 -1.2938  0.2284
   95MOL   O31236220   1.179   0.535   0.249  0.2548 -0.3291 -0.2029
   95MOL   H31336221   1.103   0.382   0.026  0.8007 -2.5038 -0.2634
   95MOL   H31436222   0.989   0.292   0.130 -0.4592 -1.0289 -0.2135
   95MOL   H31536223   1.055   0.403   0.327  1.0713 -1.1034  0.0871
   95MOL   H31636224   0.870   0.483   0.165  1.6060 -0.6653 -2.6129
   95MOL   H31736225   0.987   0.615   0.128 -0.7980 -1.2023 -1.7925
   95MOL   H31836226   0.842   0.577   0.388 -0.4858 -0.2724 -0.9368
   95MOL   H31936227   0.981   0.686   0.358 -0.9055 -0.0179  1.7578
   95MOL   H32036228   0.710   0.691   0.210 -0.2366 -2.1347  1.2734
   95MOL   H32136229   0.822   0.806   0.174  0.7650 -1.0093 -0.8365
   95MOL   H32236230   0.707   0.772   0.466 -2.0754 -0.3347 -0.1588
   95MOL   H32336231   0.839   0.879   0.413  0.9558 -0.7068 -2.8166
   95MOL   H32436232   0.663   0.890   0.347  0.1467  0.2312  2.8636
   95MOL   C32536233   1.302   0.475   0.272  0.5583  0.4963 -0.3832
   95MOL   C32636234   1.394   0.583   0.331  0.1001  0.3330  0.1459
   95MOL   C32736235   1.459   0.664   0.214 -0.0353  0.3689  0.0873
   95MOL   C32836236   1.529   0.790   0.249 -0.0622 -0.3561 -0.1950
   95MOL   C32936237   1.605   0.856   0.146  0.5500 -0.6193  0.2952
   95MOL   C33036238   1.678   0.991   0.176  0.5711  0.4074  0.0606
   95MOL   O33136239   1.487   0.516   0.419  0.1070  0.0352 -0.5380
   95MOL   H33236240   1.347   0.435   0.181  1.7637  0.9914 -0.0151
   95MOL   H33336241   1.276   0.394   0.341 -0.2553  2.6958  1.9742
   95MOL   H33436242   1.320   0.647   0.379 -1.0568 -1.2655  0.5470
   95MOL   H33536243   1.533   0.596   0.172 -0.3644  0.7287 -1.0715
   95MOL   H33636244   1.391   0.676   0.130  1.1281 -0.0535 -0.9368
   95MOL   H33736245   1.449   0.861   0.271  0.3335  0.4810 -1.4175
   95MOL   H33836246   1.586   0.781   0.342 -0.9959 -0.0886  0.4140
   95MOL   H33936247   1.688   0.790   0.121  0.6934 -0.1855 -0.3766
   95MOL   H34036248   1.549   0.880   0.056  0.0931  1.8259  1.2085
   95MOL   H34136249   1.760   0.964   0.243  0.9253 -3.6351 -1.8748
   95MOL   H34236250   1.716   1.035   0.084 -0.3426  1.3955  0.1497
   95MOL   H34336251   1.621   1.070   0.223 -0.5629 -0.1695 -0.3315
   95MOL   C34436252   1.490   0.574   0.553 -0.5887  0.0592  0.5299
   95MOL   C34536253   1.531   0.474   0.658 -0.0836 -0.2075  0.0922
   95MOL   C34636254   1.446   0.342   0.663 -0.5009 -0.4806  0.0664
   95MOL   C34736255   1.312   0.367   0.723  0.5697  0.7400 -0.0998
   95MOL   C34836256   1.229   0.235   0.740 -0.1401 -0.2607 -0.9683
   95MOL   C34936257   1.183   0.169   0.608  0.3081 -0.0960 -1.0217
   95MOL   O35036258   1.666   0.448   0.627  0.0272 -0.3332  0.4239
   95MOL   H35136259   1.397   0.618   0.591 -0.1946  0.8850  0.5493
   95MOL   H35236260   1.551   0.664   0.543 -0.8244  0.1473 -0.1079
   95MOL   H35336261   1.524   0.521   0.756 -2.3132 -1.1807  0.4132
   95MOL   H35436262   1.503   0.265   0.716  0.7958  1.4747  1.6216
   95MOL   H35536263   1.442   0.315   0.558  0.0632 -1.4213  0.2839
   95MOL   H35636264   1.258   0.438   0.660  2.2368  2.4062  0.3366
   95MOL   H35736265   1.324   0.408   0.823  0.7225 -0.9615  0.5902
   95MOL   H35836266   1.144   0.269   0.799  1.6365  0.4428  1.2180
   95MOL   H35936267   1.289   0.158   0.788  1.0820  1.0266 -0.3919
   95MOL   H36036268   1.111   0.242   0.570 -0.8883  0.4569  2.1543
   95MOL   H36136269   1.120   0.080   0.608  2.8458 -1.9419  0.0044
   95MOL   H36236270   1.265   0.139   0.543  2.2019 -1.1425  1.7325
   95MOL   C36336271   1.743   0.391   0.728 -0.2964  0.1444 -0.2288
   95MOL   C36436272   1.877   0.367   0.659  0.2374  0.6685 -0.0029
   95MOL   C36536273   1.989   0.337   0.763 -0.4899  0.2819  0.0218
   95MOL   C36636274   1.963   0.235   0.868  0.3746 -0.5192  0.1425
   95MOL   C36736275   1.894   0.299   0.999  0.0237  0.2248  0.4503
   95MOL   C36836276   1.872   0.198   1.112  0.4745 -0.0407  0.0759
   95MOL   O36936277   1.858   0.251   0.577  0.0732 -0.3508 -0.0108
   95MOL   H37036278   1.711   0.293   0.764  0.9778  0.3104  1.4372
   95MOL   H37136279   1.750   0.462   0.810  1.6512  1.3839 -1.4259
   95MOL   H37236280   1.903   0.444   0.586 -0.0741 -0.7977 -1.7118
   95MOL   H37336281   2.084   0.316   0.712 -0.9258  1.3170 -1.2217
   95MOL   H37436282   2.017   0.431   0.810 -1.0633 -0.5744  2.1194
   95MOL   H37536283   1.908   0.156   0.817  0.5047 -0.8430  0.5004
   95MOL   H37636284   2.055   0.193   0.909  0.9304  0.6103  0.0651
   95MOL   H37736285   1.947   0.388   1.035  0.3964 -0.0847  0.6642
   95MOL   H37836286   1.793   0.332   0.974 -1.1144 -1.5534  2.5929
   95MOL   H37936287   1.814   0.243   1.192  2.7408  1.4617  0.9347
   95MOL   H38036288   1.807   0.116   1.084  0.6889 -0.0473 -0.4225
   95MOL   H38136289   1.968   0.169   1.155  0.4270 -0.0548  0.1719
   95MOL   H38236290   1.792   0.262   0.510  0.2642 -0.9456 -0.2967
   96MOL     C136291   5.903   4.288   2.155  0.0939  0.0419  0.0287
   96MOL     C236292   5.941   4.303   2.007 -0.4485 -0.1732  0.6697
   96MOL     C336293   5.864   4.411   1.932  0.7067 -0.3918 -0.5722
   96MOL     C436294   5.887   4.558   1.996  0.3451 -0.5849  0.2924
   96MOL     C536295   5.824   4.663   1.913 -0.2658 -0.0516 -0.2739
   96MOL     C636296   5.877   4.802   1.949  0.3577  0.1495 -0.0201
   96MOL     O736297   6.079   4.330   2.021 -0.3792  0.1801  0.3060
   96MOL     H836298   5.943   4.365   2.220 -0.9625 -0.3316  1.1389
   96MOL     H936299   5.944   4.198   2.202  1.7493  1.2623  0.9768
   96MOL    H1036300   5.925   4.209   1.953  0.3123  0.0015  0.1314
   96MOL    H1136301   5.897   4.422   1.829  0.2973  1.7591 -0.5007
   96MOL    H1236302   5.758   4.385   1.928  1.1449 -2.8535  1.9373
   96MOL    H1336303   5.873   4.578   2.102  1.0594 -0.4032  0.3479
   96MOL    H1436304   5.992   4.568   1.972 -0.2753 -0.3911 -2.5658
   96MOL    H1536305   5.831   4.638   1.807 -0.5897  3.4797 -1.2222
   96MOL    H1636306   5.717   4.673   1.935 -0.3222  0.4236 -0.7583
   96MOL    H1736307   5.874   4.870   1.864 -3.8687 -0.3683 -0.4133
   96MOL    H1836308   5.823   4.857   2.026 -2.4076 -0.3455 -1.5335
   96MOL    H1936309   5.982   4.788   1.973  0.2992 -2.6508 -1.2463
   96MOL    H2036310   5.797   4.302   2.179  0.3903  0.6029  1.0112
   96MOL    C2136311   6.165   4.309   1.905 -0.0912  0.0312  0.5726
   96MOL    C2236312   6.301   4.369   1.946  0.5479  0.8362  0.2997
   96MOL    C2336313   6.298   4.500   2.018 -0.2582 -0.4893  0.2877
   96MOL    C2436314   6.428   4.580   2.016 -0.5812 -0.7113 -0.0617
   96MOL    C2536315   6.401   4.723   2.074 -0.4982  0.4348 -0.5354
   96MOL    C2636316   6.514   4.823   2.075 -0.3306 -0.4978  0.2894
   96MOL    O2736317   6.376   4.269   2.023 -0.8063  0.1851 -0.0637
   96MOL    H2836318   6.170   4.202   1.886 -1.5465  0.1692 -0.6481
   96MOL    H2936319   6.133   4.362   1.815  0.3523 -2.1007 -0.8820
   96MOL    H3036320   6.354   4.383   1.852 -1.4018  0.1364 -0.9472
   96MOL    H3136321   6.280   4.466   2.120 -3.8967  1.3514  0.3435
   96MOL    H3236322   6.214   4.553   1.972  0.2327 -0.0200 -0.0601
   96MOL    H3336323   6.465   4.580   1.913  2.4869 -0.5617  1.0046
   96MOL    H3436324   6.506   4.523   2.065  0.5847  1.0977  0.2329
   96MOL    H3536325   6.310   4.764   2.030  0.7873  2.5760 -1.3134
   96MOL    H3636326   6.372   4.706   2.178 -1.0515 -0.8130 -0.8872
   96MOL    H3736327   6.606   4.767   2.090 -1.6079 -2.4562  0.9782
   96MOL    H3836328   6.495   4.886   2.162 -0.8194 -1.6590  1.0325
   96MOL    H3936329   6.507   4.878   1.981 -0.8924 -1.1844 -0.0700
   96MOL    C4036330   6.446   4.177   1.939 -0.1654  0.3743  0.2808
   96MOL    C4136331   6.463   4.048   2.017 -0.8567 -0.1221 -0.0528
   96MOL    C4236332   6.591   3.966   1.993  0.5714  0.1565  0.2773
   96MOL    C4336333   6.610   3.929   1.846 -0.7111  0.3497  0.0227
   96MOL    C4436334   6.729   3.819   1.834  1.3252  0.4643  0.0351
   96MOL    C4536335   6.697   3.681   1.897  0.5650  1.2178 -0.6277
   96MOL    O4636336   6.348   3.965   1.999  1.0653 -0.4440  0.1462
   96MOL    H4736337   6.537   4.224   1.900 -1.0452  2.0081  0.1412
   96MOL    H4836338   6.387   4.156   1.850 -2.8128  2.6650  1.4193
   96MOL    H4936339   6.475   4.074   2.123  2.9090 -3.0540  0.3427
   96MOL    H5036340   6.679   4.027   2.017 -0.5295  2.8728 -2.3325
   96MOL    H5136341   6.595   3.884   2.065  0.9002 -1.1371 -1.2063
   96MOL    H5236342   6.648   4.025   1.812 -0.5076  1.2042  2.4989
   96MOL    H5336343   6.516   3.909   1.794  0.8585 -2.9148 -1.6770
   96MOL    H5436344   6.754   3.818   1.728 -1.1986  4.0032 -0.6863
   96MOL    H5536345   6.818   3.856   1.884  1.5711  1.2897 -0.9960
   96MOL    H5636346   6.702   3.688   2.006  3.0928  2.4309 -0.7911
   96MOL    H5736347   6.601   3.638   1.867  0.3362  0.7006  0.8214
   96MOL    H5836348   6.775   3.609   1.873 -1.0773 -1.4027  1.6388
   96MOL    C5936349   6.278   3.931   2.122  0.0090 -0.2857  0.2221
   96MOL    C6036350   6.176   3.821   2.069 -0.6203 -0.4183 -0.5516
   96MOL    C6136351   6.230   3.682   2.116  0.9584  0.3471  0.2180
   96MOL    C6236352   6.146   3.558   2.071 -0.3463  0.0063 -0.4076
   96MOL    C6336353   6.222   3.423   2.084  0.1595  0.3266  0.0320
   96MOL    C6436354   6.134   3.305   2.040 -0.6711 -0.1418 -0.2994
   96MOL    O6536355   6.038   3.841   2.114 -0.3624  0.0696 -0.0947
   96MOL    H6636356   6.223   4.019   2.155  0.0476  0.4188 -1.5445
   96MOL    H6736357   6.343   3.889   2.200 -0.8507 -2.2141 -0.0567
   96MOL    H6836358   6.182   3.829   1.961 -2.3749  3.4159 -0.4434
   96MOL    H6936359   6.241   3.698   2.223  1.9122 -0.7415  0.2978
   96MOL    H7036360   6.335   3.677   2.089  0.9810  0.5013  0.2755
   96MOL    H7136361   6.113   3.581   1.970 -0.7120  1.0049 -0.0630
   96MOL    H7236362   6.058   3.573   2.133  0.9189  2.1168  0.9451
   96MOL    H7336363   6.240   3.415   2.191 -0.0583 -0.3428  0.0194
   96MOL    H7436364   6.314   3.433   2.027 -0.1801  0.6708 -0.4698
   96MOL    H7536365   6.193   3.216   2.059 -2.2609 -0.9473  0.9683
   96MOL    H7636366   6.046   3.305   2.104 -0.6128  2.8409 -0.1293
   96MOL    H7736367   6.101   3.302   1.936 -2.3315  1.2614  0.1626
   96MOL    C7836368   5.954   3.908   2.026  0.0953  0.2066 -0.0280
   96MOL    C7936369   5.812   3.910   2.087 -0.0289 -0.2187  0.2506
   96MOL    C8036370   5.713   3.954   1.984 -0.2570 -0.5507  0.6223
   96MOL    C8136371   5.565   3.934   2.019 -0.6588 -0.3660 -1.0119
   96MOL    C8236372   5.469   3.990   1.924  0.7988 -0.0652 -0.3591
   96MOL    C8336373   5.470   4.142   1.930 -0.5419 -0.1973  0.3697
   96MOL    O8436374   5.826   4.007   2.192  0.3467  0.0121  0.0653
   96MOL    H8536375   5.954   3.861   1.927  0.7233 -0.8180  0.4514
   96MOL    H8636376   5.990   4.009   2.007 -1.6800  0.6938 -0.9117
   96MOL    H8736377   5.774   3.816   2.128 -1.2922 -0.5588 -1.6261
   96MOL    H8836378   5.732   4.062   1.986 -3.6002  0.0901  1.2427
   96MOL    H8936379   5.744   3.933   1.882  0.8478 -1.9684  1.2440
   96MOL    H9036380   5.530   3.965   2.117 -0.6390 -1.3995 -0.6660
   96MOL    H9136381   5.564   3.825   2.007 -1.0252 -0.5284  0.4277
   96MOL    H9236382   5.467   3.954   1.821 -1.1127  2.1551 -1.1484
   96MOL    H9336383   5.374   3.955   1.963  0.2529  0.8370 -0.8601
   96MOL    H9436384   5.562   4.196   1.904 -0.6245 -0.7666 -1.1138
   96MOL    H9536385   5.441   4.167   2.032 -2.0364 -0.6433  0.0505
   96MOL    H9636386   5.395   4.172   1.857 -0.4166 -2.6528 -0.7876
   96MOL    C9736387   5.764   3.978   2.314  0.1403  0.4788 -0.4653
   96MOL    C9836388   5.860   3.901   2.415  0.2954 -0.0352 -0.7418
   96MOL    C9936389   5.987   3.981   2.445  0.3128  0.3224 -0.5555
   96MOL   C10036390   6.098   3.903   2.521 -0.3890  0.0006 -0.4666
   96MOL   C10136391   6.213   3.998   2.533  0.0084  0.2695  0.3745
   96MOL   C10236392   6.348   3.945   2.596 -0.0218 -0.8061  0.3541
   96MOL   O10336393   5.799   3.887   2.550  0.2794  0.6072  0.6118
   96MOL   H10436394   5.684   3.910   2.285 -0.4816 -0.0478  2.3518
   96MOL   H10536395   5.713   4.068   2.345  1.7695  1.9498 -1.9639
   96MOL   H10636396   5.876   3.799   2.380 -1.4795 -1.8029  3.1768
   96MOL   H10736397   5.964   4.076   2.493 -1.1122 -0.1242 -0.3158
   96MOL   H10836398   6.021   4.016   2.348  0.8489  1.9308  0.1919
   96MOL   H10936399   6.127   3.812   2.470  1.2054 -0.0378  0.4793
   96MOL   H11036400   6.075   3.879   2.625  0.4276 -1.1498 -0.5482
   96MOL   H11136401   6.168   4.092   2.565 -0.6211  0.0860  0.0400
   96MOL   H11236402   6.251   4.029   2.436  1.8721 -1.0261  0.6765
   96MOL   H11336403   6.380   3.860   2.536  0.0105 -0.8997  0.5044
   96MOL   H11436404   6.427   4.020   2.588 -1.3116  0.6492  1.0220
   96MOL   H11536405   6.340   3.917   2.701  1.9374  2.2442  1.3726
   96MOL   C11636406   5.662   3.839   2.561 -0.6540  0.0864  0.0356
   96MOL   C11736407   5.579   3.945   2.638 -0.4615  0.0994 -0.2509
   96MOL   C11836408   5.437   3.890   2.636 -0.6124 -0.0101  0.3188
   96MOL   C11936409   5.342   3.967   2.732 -0.0059 -0.3778 -0.1967
   96MOL   C12036410   5.200   3.903   2.735  0.3534 -0.6151  0.9006
   96MOL   C12136411   5.180   3.768   2.813  0.7503 -0.3832  0.6912
   96MOL   O12236412   5.568   4.074   2.578 -0.1474  0.6911  0.5489
   96MOL   H12336413   5.626   3.813   2.461 -0.4700 -1.9420  0.4881
   96MOL   H12436414   5.675   3.745   2.614 -0.4378 -0.3963 -0.8482
   96MOL   H12536415   5.606   3.954   2.744 -0.8060 -1.4869 -0.0145
   96MOL   H12636416   5.410   3.878   2.531  0.8490 -0.3425 -0.0307
   96MOL   H12736417   5.443   3.786   2.666  0.0106 -0.3543 -0.9594
   96MOL   H12836418   5.337   4.065   2.684 -0.7609  0.7040  1.9995
   96MOL   H12936419   5.372   3.976   2.836 -1.7096 -0.4862  0.3220
   96MOL   H13036420   5.133   3.979   2.776 -0.9082 -0.7305 -0.8829
   96MOL   H13136421   5.163   3.893   2.633  0.8689 -1.0967  0.7536
   96MOL   H13236422   5.206   3.775   2.919  1.3647  2.5891  0.3875
   96MOL   H13336423   5.075   3.738   2.816  0.8719 -0.9711 -0.7580
   96MOL   H13436424   5.234   3.683   2.772  1.2417 -0.6156  1.8037
   96MOL   C13536425   5.666   4.171   2.614 -0.0781 -0.5526 -0.2796
   96MOL   C13636426   5.638   4.320   2.561  0.6326  0.2749 -0.1205
   96MOL   C13736427   5.767   4.399   2.537 -0.0583 -0.1355  0.3243
   96MOL   C13836428   5.742   4.547   2.491 -0.5841 -0.1667 -0.4032
   96MOL   C13936429   5.871   4.633   2.476  0.2365 -0.6222 -0.3795
   96MOL   C14036430   5.826   4.779   2.460  0.2784 -0.8328 -0.0808
   96MOL   O14136431   5.549   4.395   2.644 -0.2237 -0.5691 -0.3514
   96MOL   H14236432   5.657   4.179   2.723  0.3717 -0.8436 -0.2188
   96MOL   H14336433   5.764   4.131   2.588 -0.1000  0.0199 -1.2701
   96MOL   H14436434   5.590   4.321   2.463  1.2708 -0.0070 -0.4388
   96MOL   H14536435   5.822   4.393   2.631  0.2356  1.1439  0.2450
   96MOL   H14636436   5.818   4.343   2.459 -0.6244  0.0777 -0.2018
   96MOL   H14736437   5.670   4.594   2.557 -1.9973 -1.4422 -0.9799
   96MOL   H14836438   5.682   4.549   2.400  1.9408 -2.2047 -2.1845
   96MOL   H14936439   5.924   4.603   2.385  1.2458 -0.5328  0.1746
   96MOL   H15036440   5.935   4.612   2.561  1.6964  1.1447 -1.0035
   96MOL   H15136441   5.777   4.807   2.367 -0.7753  0.6109  0.8979
   96MOL   H15236442   5.760   4.808   2.542 -0.4641  1.7564 -1.5533
   96MOL   H15336443   5.917   4.838   2.472 -1.0374  1.2374 -0.0666
   96MOL   C15436444   5.419   4.356   2.631 -0.1846 -0.1623 -0.6000
   96MOL   C15536445   5.329   4.437   2.722 -0.0988 -0.1870  0.3158
   96MOL   C15636446   5.175   4.422   2.696 -0.0319 -0.4813  0.0464
   96MOL   C15736447   5.132   4.492   2.568 -0.2418  0.1979  0.0920
   96MOL   C15836448   4.988   4.447   2.526  0.5795  0.1172  0.0996
   96MOL   C15936449   4.874   4.442   2.635 -0.5329 -0.1445  0.3967
   96MOL   O16036450   5.360   4.402   2.858 -0.5389 -0.7977  0.1705
   96MOL   H16136451   5.404   4.251   2.657 -1.4083  0.7813  2.8015
   96MOL   H16236452   5.389   4.378   2.528 -0.9395  0.0819 -0.3346
   96MOL   H16336453   5.353   4.542   2.708  1.0362 -0.6062 -1.0146
   96MOL   H16436454   5.112   4.453   2.779  1.1072 -1.6473  1.3680
   96MOL   H16536455   5.161   4.315   2.688  1.6661 -0.7352  0.2377
   96MOL   H16636456   5.200   4.470   2.486  0.2432  0.7214  0.3553
   96MOL   H16736457   5.139   4.600   2.581  0.6484  0.3805 -1.7839
   96MOL   H16836458   4.948   4.511   2.447 -2.7560  0.4974  2.0044
   96MOL   H16936459   4.983   4.348   2.481  0.6327 -0.7989  2.1006
   96MOL   H17036460   4.851   4.537   2.684 -1.0986  0.2177 -0.5391
   96MOL   H17136461   4.890   4.373   2.717 -0.1884  0.5562  0.9151
   96MOL   H17236462   4.771   4.423   2.603 -0.8569  2.1256 -0.0101
   96MOL   C17336463   5.355   4.514   2.951  0.2616  0.6790 -0.1801
   96MOL   C17436464   5.313   4.467   3.089 -0.1774  0.0092 -0.5933
   96MOL   C17536465   5.330   4.574   3.190  0.3356 -0.1520 -0.3635
   96MOL   C17636466   5.346   4.521   3.337 -0.8862  0.0438  0.6352
   96MOL   C17736467   5.361   4.632   3.442 -0.0437 -0.2937 -0.3597
   96MOL   C17836468   5.381   4.593   3.588 -0.2198  0.2245  0.5623
   96MOL   O17936469   5.179   4.420   3.095  0.1091  0.1902  0.4270
   96MOL   H18036470   5.287   4.598   2.933 -2.4411 -1.2536  0.6495
   96MOL   H18136471   5.454   4.560   2.952  0.4752  0.2056  0.2706
   96MOL   H18236472   5.381   4.386   3.115 -0.4939 -0.4560 -1.1985
   96MOL   H18336473   5.426   4.623   3.175 -0.5144  1.5120 -0.4282
   96MOL   H18436474   5.265   4.659   3.174 -0.8659 -0.8996  0.4798
   96MOL   H18536475   5.263   4.457   3.364  1.1728 -2.4601  1.2534
   96MOL   H18636476   5.436   4.459   3.332 -0.6443  0.3761  0.8207
   96MOL   H18736477   5.440   4.702   3.414  1.0445 -1.9351 -1.5778
   96MOL   H18836478   5.270   4.690   3.433  0.0878 -0.1425 -0.7553
   96MOL   H18936479   5.290   4.548   3.628 -0.3239  0.0631  0.1412
   96MOL   H19036480   5.409   4.679   3.649 -0.3616  0.9053 -0.3184
   96MOL   H19136481   5.458   4.516   3.601  2.4104  2.6460 -0.0435
   96MOL   C19236482   5.160   4.287   3.044 -0.3876 -0.3395 -0.1954
   96MOL   C19336483   5.029   4.222   3.097 -0.6076 -0.2592  0.0579
   96MOL   C19436484   5.042   4.062   3.091 -0.3635 -0.2265 -0.7806
   96MOL   C19536485   4.924   3.988   3.153 -0.1831 -0.3304 -0.9620
   96MOL   C19636486   4.952   3.836   3.157  0.3456  0.1556  0.3186
   96MOL   C19736487   4.837   3.746   3.204 -0.8588 -0.0287 -0.4331
   96MOL   O19836488   4.919   4.242   3.008  0.2741  0.2222  0.9637
   96MOL   H19936489   5.167   4.278   2.935 -0.0522  1.7994 -0.3786
   96MOL   H20036490   5.248   4.230   3.074 -0.0851  0.1033 -0.2351
   96MOL   H20136491   5.008   4.256   3.199  0.7226  1.3432 -0.1734
   96MOL   H20236492   5.072   4.025   2.993  3.8480 -1.4776  0.8522
   96MOL   H20336493   5.133   4.039   3.148 -1.2960 -3.8580 -0.6769
   96MOL   H20436494   4.834   4.005   3.094 -0.1982  0.9913 -0.5608
   96MOL   H20536495   4.907   4.025   3.254  2.2931  0.5071 -0.8117
   96MOL   H20636496   4.984   3.797   3.060  0.6263 -0.9493  0.8402
   96MOL   H20736497   5.038   3.812   3.221  0.4586 -0.1376  0.0602
   96MOL   H20836498   4.744   3.760   3.148 -0.9740 -1.5907 -0.6671
   96MOL   H20936499   4.862   3.641   3.190  0.4500  0.4046 -1.4255
   96MOL   H21036500   4.814   3.769   3.308 -0.5769  2.2567 -0.8380
   96MOL   C21136501   4.868   4.374   3.018  0.1082  0.3179  0.3148
   96MOL   C21236502   4.724   4.367   2.957  0.5229 -0.2740 -0.0946
   96MOL   C21336503   4.657   4.504   2.955 -0.0010  0.8118  0.6805
   96MOL   C21436504   4.520   4.503   2.881 -0.2413  0.4646 -0.6476
   96MOL   C21536505   4.454   4.645   2.890  0.4297  0.6095 -0.0715
   96MOL   C21636506   4.496   4.741   2.780  0.5752  0.2721  0.0646
   96MOL   O21736507   4.643   4.270   3.012  0.9224 -0.0045 -0.2946
   96MOL   H21836508   4.933   4.434   2.954  2.1657  0.7045  2.7038
   96MOL   H21936509   4.869   4.413   3.120  0.1713 -1.3406  0.9613
   96MOL   H22036510   4.726   4.335   2.853  3.5610 -1.2576  0.2363
   96MOL   H22136511   4.640   4.538   3.057  1.6562  0.6123  1.0370
   96MOL   H22236512   4.723   4.576   2.908 -0.7178  2.0515  1.5276
   96MOL   H22336513   4.531   4.469   2.778 -0.4493  1.0667 -0.8769
   96MOL   H22436514   4.459   4.429   2.932  0.6209  0.4675  0.3956
   96MOL   H22536515   4.346   4.638   2.886  0.4216  0.6635  0.0635
   96MOL   H22636516   4.466   4.694   2.986 -2.9107  1.0577  0.1785
   96MOL   H22736517   4.590   4.792   2.801  1.9970 -2.4391  0.5312
   96MOL   H22836518   4.416   4.814   2.769 -0.4152 -0.5417  1.5693
   96MOL   H22936519   4.499   4.684   2.687 -0.6625  0.6238 -0.2034
   96MOL   C23036520   4.638   4.262   3.156 -0.0791 -0.0998  0.5264
   96MOL   C23136521   4.524   4.170   3.193 -0.1754 -0.0047  0.7331
   96MOL   C23236522   4.389   4.214   3.153 -0.1206 -0.4648 -0.4351
   96MOL   C23336523   4.276   4.129   3.213  0.3009  0.2207 -0.4627
   96MOL   C23436524   4.144   4.189   3.160  0.2299  0.2787  0.3667
   96MOL   C23536525   4.020   4.167   3.242 -0.1478  0.5671 -1.0970
   96MOL   O23636526   4.542   4.171   3.339 -0.5749  0.7611  0.3285
   96MOL   H23736527   4.733   4.237   3.203  0.6764  1.0710 -0.3416
   96MOL   H23836528   4.615   4.365   3.184  0.1691  0.1979 -0.3186
   96MOL   H23936529   4.544   4.074   3.145  0.2092 -0.5656  2.0044
   96MOL   H24036530   4.389   4.216   3.044  0.5778  0.4719 -0.4186
   96MOL   H24136531   4.373   4.319   3.178 -0.0369 -0.5154 -0.1674
   96MOL   H24236532   4.283   4.150   3.320  1.9514  3.0272 -1.0540
   96MOL   H24336533   4.278   4.021   3.200  0.2547  0.0895  0.5786
   96MOL   H24436534   4.150   4.294   3.132 -0.4168  0.5058  1.0743
   96MOL   H24536535   4.134   4.146   3.060 -2.1437  1.3116  0.1308
   96MOL   H24636536   3.925   4.189   3.194 -0.5548  0.7021 -0.2406
   96MOL   H24736537   4.020   4.233   3.329 -0.1338 -0.3519 -0.3956
   96MOL   H24836538   4.016   4.062   3.272 -0.2702  0.7981 -0.2969
   96MOL   C24936539   4.560   4.040   3.399 -0.5537  0.3023 -0.2139
   96MOL   C25036540   4.627   4.065   3.528  0.2463  0.4114  0.0277
   96MOL   C25136541   4.719   3.946   3.580 -0.9044  0.6018  0.2101
   96MOL   C25236542   4.648   3.823   3.622  0.2466  0.3943 -0.1209
   96MOL   C25336543   4.741   3.700   3.649 -0.2621 -0.0146  0.1611
   96MOL   C25436544   4.672   3.589   3.729 -0.2174  0.2858  0.7625
   96MOL   O25536545   4.529   4.095   3.622 -0.1546  0.5556 -0.6256
   96MOL   H25636546   4.466   3.986   3.396  0.6280 -1.7185 -2.2734
   96MOL   H25736547   4.624   3.980   3.335  0.0714  0.4329  0.2885
   96MOL   H25836548   4.698   4.148   3.519  1.7964 -0.9143 -0.2828
   96MOL   H25936549   4.787   3.918   3.500 -1.8243  0.4946 -0.5426
   96MOL   H26036550   4.782   3.977   3.664  0.9373 -1.6894 -0.2784
   96MOL   H26136551   4.594   3.842   3.715  2.1836 -1.8088  1.5065
   96MOL   H26236552   4.573   3.783   3.553  0.0831 -0.1869  0.3874
   96MOL   H26336553   4.766   3.653   3.554 -0.6899  0.7692 -0.3472
   96MOL   H26436554   4.832   3.732   3.699  1.1984 -1.4284 -1.5565
   96MOL   H26536555   4.633   3.624   3.824  0.3073 -0.1155  1.1362
   96MOL   H26636556   4.736   3.504   3.754 -0.9876 -0.5080  0.0851
   96MOL   H26736557   4.584   3.555   3.675 -0.7989  0.5120  1.5516
   96MOL   C26836558   4.488   4.230   3.628  0.5229 -0.0517 -0.3897
   96MOL   C26936559   4.377   4.244   3.730  0.1681  0.0421  0.0083
   96MOL   C27036560   4.282   4.364   3.705  0.3554 -0.8769  0.0397
   96MOL   C27136561   4.164   4.375   3.803  0.3411 -0.2183 -0.6457
   96MOL   C27236562   4.058   4.461   3.741  0.3257 -0.4162 -0.1272
   96MOL   C27336563   3.954   4.513   3.839 -0.4698  0.2971 -0.9236
   96MOL   O27436564   4.413   4.239   3.872  0.0793 -0.0562  0.1932
   96MOL   H27536565   4.444   4.267   3.535  5.1327  1.7952 -2.0081
   96MOL   H27636566   4.579   4.288   3.641  0.5537 -0.4099  1.0689
   96MOL   H27736567   4.315   4.155   3.725  0.2520 -0.0059 -0.1618
   96MOL   H27836568   4.350   4.449   3.705  0.9205 -1.3094  1.6336
   96MOL   H27936569   4.237   4.365   3.605 -0.1114 -0.3685  0.2470
   96MOL   H28036570   4.132   4.278   3.841  0.5550 -1.1537 -2.7971
   96MOL   H28136571   4.205   4.414   3.896  0.5458 -0.7735 -0.4954
   96MOL   H28236572   4.117   4.543   3.698 -1.2325  0.2872 -0.9545
   96MOL   H28336573   4.020   4.417   3.649  1.4674  1.9816 -1.8012
   96MOL   H28436574   3.890   4.432   3.872  2.2000 -0.8004  1.7680
   96MOL   H28536575   3.999   4.580   3.912  0.1159 -0.5356 -0.5140
   96MOL   H28636576   3.885   4.572   3.779 -2.1465  0.0763  0.7586
   96MOL   C28736577   4.484   4.123   3.918 -0.1686 -0.0502  0.3209
   96MOL   C28836578   4.499   4.113   4.069 -0.8640 -0.3825 -0.0166
   96MOL   C28936579   4.621   4.019   4.095 -0.8281 -1.6319 -0.1500
   96MOL   C29036580   4.639   4.009   4.250 -0.6464 -0.6477 -0.1893
   96MOL   C29136581   4.741   3.909   4.296 -0.2091 -0.5122  0.4875
   96MOL   C29236582   4.779   3.916   4.442 -0.0714 -0.0184  0.0227
   96MOL   O29336583   4.391   4.058   4.133 -0.2230  0.1068 -0.7815
   96MOL   H29436584   4.578   4.119   3.862 -0.4819 -0.8571 -0.1422
   96MOL   H29536585   4.425   4.042   3.877  0.5174 -1.0780  1.3318
   96MOL   H29636586   4.525   4.212   4.106  2.0302 -1.5184  1.1617
   96MOL   H29736587   4.620   3.917   4.056 -0.2170 -1.6554 -0.1123
   96MOL   H29836588   4.703   4.071   4.046 -2.2211 -0.3513 -1.1513
   96MOL   H29936589   4.655   4.113   4.279  1.0502 -1.1723  0.8702
   96MOL   H30036590   4.546   3.985   4.302 -0.6712  0.1383  0.1443
   96MOL   H30136591   4.828   3.924   4.232 -0.5087 -3.1148 -0.5963
   96MOL   H30236592   4.710   3.806   4.278 -1.9603  0.6068 -3.2828
   96MOL   H30336593   4.821   3.828   4.491 -1.5984 -1.5404 -1.3410
   96MOL   H30436594   4.837   4.005   4.464  0.0730  0.5916 -2.6357
   96MOL   H30536595   4.684   3.922   4.495  0.1822 -0.2593  0.5078
   96MOL   C30636596   4.259   4.122   4.106  0.0352  0.4938 -0.6852
   96MOL   C30736597   4.153   4.100   4.222 -0.0699 -0.2726  0.7803
   96MOL   C30836598   4.213   4.098   4.365 -0.8440  0.1187 -0.1411
   96MOL   C30936599   4.282   4.228   4.409  0.1365 -0.3113 -0.2774
   96MOL   C31036600   4.366   4.205   4.537  0.2404 -0.2559 -0.6710
   96MOL   C31136601   4.436   4.340   4.561  0.1361 -0.1147 -0.2307
   96MOL   O31236602   4.085   3.983   4.182 -0.4005  0.5093  0.0658
   96MOL   H31336603   4.264   4.229   4.087  0.1751  1.0393  2.2236
   96MOL   H31436604   4.204   4.080   4.021  0.3111 -0.1520 -0.5419
   96MOL   H31536605   4.077   4.178   4.227 -0.8817 -0.9891 -0.0932
   96MOL   H31636606   4.280   4.012   4.375 -0.0575  0.6329 -0.8443
   96MOL   H31736607   4.131   4.074   4.432 -1.6039  2.3305 -0.2619
   96MOL   H31836608   4.339   4.262   4.323 -0.1890  1.4313  0.1883
   96MOL   H31936609   4.209   4.309   4.419 -0.3048 -0.5279 -1.6400
   96MOL   H32036610   4.432   4.122   4.512 -0.2116 -0.7502 -0.2337
   96MOL   H32136611   4.313   4.179   4.629  0.2740  0.4409 -0.4450
   96MOL   H32236612   4.478   4.372   4.466 -0.2931 -1.2627 -0.8259
   96MOL   H32336613   4.374   4.422   4.596 -0.2394  0.3118 -1.8435
   96MOL   H32436614   4.516   4.329   4.634 -0.6620  0.1729  0.7145
   96MOL   C32536615   3.954   3.969   4.235 -0.2240 -0.1908  0.4560
   96MOL   C32636616   3.889   3.837   4.186  0.0518 -0.1623  0.4330
   96MOL   C32736617   3.733   3.838   4.171 -1.1596  0.1676  0.2461
   96MOL   C32836618   3.683   3.740   4.062 -0.2644 -0.5295 -0.6055
   96MOL   C32936619   3.677   3.591   4.104  0.0760  0.1942  0.2307
   96MOL   C33036620   3.605   3.498   4.003 -0.3324 -0.1677 -0.4220
   96MOL   O33136621   3.913   3.739   4.288 -0.1083 -0.3883 -0.3251
   96MOL   H33236622   3.885   4.050   4.210  0.0804 -0.0373  0.1099
   96MOL   H33336623   3.955   3.969   4.344  2.9949  2.1422  0.4918
   96MOL   H33436624   3.934   3.820   4.089 -2.0946 -1.5495 -0.3724
   96MOL   H33536625   3.675   3.834   4.263  0.3154 -0.7124  1.1570
   96MOL   H33636626   3.708   3.940   4.142  0.0326  0.4436  0.1615
   96MOL   H33736627   3.583   3.756   4.019 -0.6013  1.7957  0.9553
   96MOL   H33836628   3.754   3.744   3.980  0.7501 -0.7004  0.2606
   96MOL   H33936629   3.771   3.545   4.134 -0.5691 -0.1101  1.8135
   96MOL   H34036630   3.623   3.593   4.198 -0.7395  2.1104 -0.2619
   96MOL   H34136631   3.501   3.527   3.988 -0.1756  0.6941  0.1161
   96MOL   H34236632   3.658   3.505   3.907 -2.0919  0.1108 -1.4000
   96MOL   H34336633   3.607   3.393   4.031 -0.8168 -0.3150 -0.9323
   96MOL   C34436634   4.049   3.698   4.291  0.2512 -0.1128 -0.1958
   96MOL   C34536635   4.065   3.610   4.420 -0.0346  0.2507  0.8576
   96MOL   C34636636   4.198   3.534   4.424 -0.0705 -0.5238 -0.4711
   96MOL   C34736637   4.204   3.426   4.534  0.2088  0.5984 -0.1566
   96MOL   C34836638   4.339   3.353   4.546 -0.1820 -0.2805 -0.4691
   96MOL   C34936639   4.335   3.262   4.669 -0.4604  0.1521 -0.4663
   96MOL   O35036640   4.061   3.691   4.536 -0.2699 -0.3900  0.1744
   96MOL   H35136641   4.115   3.785   4.289 -2.3320  1.8917 -0.6939
   96MOL   H35236642   4.071   3.634   4.206 -0.5944  0.8981 -1.1787
   96MOL   H35336643   3.983   3.539   4.411 -1.0198  1.4206  0.5124
   96MOL   H35436644   4.283   3.601   4.439 -0.8784  0.4771 -0.3399
   96MOL   H35536645   4.208   3.480   4.330  0.4042  0.8655 -1.2416
   96MOL   H35636646   4.130   3.352   4.503 -0.2291 -0.0943  2.4536
   96MOL   H35736647   4.181   3.470   4.631 -0.6981  0.3378 -0.2478
   96MOL   H35836648   4.426   3.417   4.557 -0.4418  0.2877 -1.6508
   96MOL   H35936649   4.363   3.283   4.466  0.8006 -0.5513  0.0559
   96MOL   H36036650   4.284   3.166   4.657 -0.3315  0.0114  0.0975
   96MOL   H36136651   4.277   3.308   4.749 -1.1190  0.9113 -1.3724
   96MOL   H36236652   4.434   3.254   4.715 -0.1089 -0.7430 -1.3521
   96MOL   C36336653   3.970   3.655   4.639 -0.0561 -0.4461  0.7098
   96MOL   C36436654   3.857   3.751   4.651 -0.1572  0.3039  0.2983
   96MOL   C36536655   3.897   3.896   4.670 -0.6950 -0.5626 -0.1262
   96MOL   C36636656   3.771   3.982   4.685 -0.0127 -0.2911  0.2602
   96MOL   C36736657   3.797   4.128   4.726 -0.5420  0.2651  0.1967
   96MOL   C36836658   3.868   4.209   4.617  0.4112  0.1129  0.4239
   96MOL   O36936659   3.772   3.717   4.542  0.7264  0.4483 -0.1808
   96MOL   H37036660   4.012   3.673   4.738 -2.2630  1.0453  1.4150
   96MOL   H37136661   3.955   3.548   4.627 -1.7909 -0.2770  1.2342
   96MOL   H37236662   3.802   3.730   4.743 -0.5229  0.7189  0.1714
   96MOL   H37336663   3.962   3.914   4.756 -2.7938  1.0783  1.1700
   96MOL   H37436664   3.956   3.924   4.583 -0.8452 -0.6102 -0.2426
   96MOL   H37536665   3.710   3.968   4.595 -1.6769 -2.8743  1.7086
   96MOL   H37636666   3.714   3.938   4.767 -0.5357 -1.0123 -0.4771
   96MOL   H37736667   3.696   4.166   4.739  0.0407  2.9486 -2.3496
   96MOL   H37836668   3.847   4.142   4.822  2.1643 -1.4547 -0.8971
   96MOL   H37936669   3.839   4.313   4.615 -1.1557 -0.3120  0.7500
   96MOL   H38036670   3.975   4.206   4.641  0.3498  0.0122  0.6934
   96MOL   H38136671   3.863   4.168   4.516  0.9551  0.1090  0.3935
   96MOL   H38236672   3.831   3.712   4.468  0.8351 -1.7855  0.0207
   97MOL     C136673   2.432   4.961   0.932  0.7025 -0.1875  0.3480
   97MOL     C236674   2.338   5.077   0.908 -0.3817  0.4724 -0.0315
   97MOL     C336675   2.207   5.062   0.981 -0.1455  0.2839 -0.0505
   97MOL     C436676   2.099   5.166   0.941  0.4249 -0.1998 -0.0506
   97MOL     C536677   1.967   5.142   1.017 -0.3438  0.2586  0.5290
   97MOL     C636678   1.895   5.039   0.933 -0.3382 -0.0476  0.3952
   97MOL     O736679   2.408   5.186   0.965 -0.5619  0.2444 -0.6443
   97MOL     H836680   2.488   4.953   1.025 -0.8695 -1.0251  1.2483
   97MOL     H936681   2.514   4.978   0.863 -0.0465  2.5303  0.0557
   97MOL    H1036682   2.324   5.097   0.802 -1.3431 -0.8362 -0.1550
   97MOL    H1136683   2.169   4.965   0.947  1.4167 -0.1670 -0.5450
   97MOL    H1236684   2.220   5.064   1.089  2.8462 -2.5281 -0.2509
   97MOL    H1336685   2.135   5.263   0.975 -1.1411  0.3529  0.0697
   97MOL    H1436686   2.080   5.183   0.835 -1.8377  0.4740  0.4186
   97MOL    H1536687   1.980   5.124   1.124 -0.9050  3.9386  1.2911
   97MOL    H1636688   1.910   5.235   1.017 -0.5748  0.1303 -1.2530
   97MOL    H1736689   1.960   4.962   0.894  0.4025 -0.7403  2.8927
   97MOL    H1836690   1.804   5.002   0.981  0.5647  0.1168  2.2753
   97MOL    H1936691   1.854   5.083   0.842 -1.8365 -0.1250  1.0255
   97MOL    H2036692   2.396   4.858   0.922  2.1062 -0.7630  1.0654
   97MOL    C2136693   2.452   5.282   0.863  0.2597  0.4500  0.4086
   97MOL    C2236694   2.513   5.409   0.918 -0.0262  0.2625  0.0013
   97MOL    C2336695   2.546   5.512   0.806  0.4520  0.1851  0.6968
   97MOL    C2436696   2.583   5.652   0.863  0.1969 -0.3965 -0.4339
   97MOL    C2536697   2.607   5.776   0.761  0.8563 -0.1069 -0.3789
   97MOL    C2636698   2.742   5.781   0.690  0.4510 -0.2842  0.2324
   97MOL    O2736699   2.413   5.466   0.999 -0.1874  0.0600  0.4793
   97MOL    H2836700   2.515   5.228   0.792  2.1021  0.6957  1.8283
   97MOL    H2936701   2.369   5.321   0.803  1.8002  1.6967 -0.9394
   97MOL    H3036702   2.601   5.378   0.974 -0.3987 -2.2219 -0.7434
   97MOL    H3136703   2.461   5.519   0.737 -1.2208 -2.6872  2.3936
   97MOL    H3236704   2.632   5.479   0.748 -0.3133 -1.1718  0.3082
   97MOL    H3336705   2.668   5.648   0.931  0.9238  0.3872 -1.2851
   97MOL    H3436706   2.502   5.678   0.931  0.0512  1.2957 -1.2431
   97MOL    H3536707   2.525   5.775   0.689 -1.0272 -1.3608  1.7043
   97MOL    H3636708   2.582   5.867   0.815 -3.0232  0.7897 -3.4333
   97MOL    H3736709   2.730   5.876   0.639 -1.2965  0.2516  1.5945
   97MOL    H3836710   2.734   5.704   0.613 -0.4812  0.9651 -0.9555
   97MOL    H3936711   2.830   5.780   0.755  2.5316 -2.1302 -2.4909
   97MOL    C4036712   2.438   5.452   1.142  0.9325 -0.2957 -0.0959
   97MOL    C4136713   2.316   5.507   1.217 -0.2505 -0.2753  0.2441
   97MOL    C4236714   2.316   5.665   1.213 -0.5291  0.7858  0.1661
   97MOL    C4336715   2.225   5.751   1.299 -0.3344 -0.1083  0.2764
   97MOL    C4436716   2.257   5.900   1.281  0.7582 -0.3234 -0.5219
   97MOL    C4536717   2.211   5.947   1.137 -0.1412  0.2290  0.2424
   97MOL    O4636718   2.330   5.456   1.349 -0.4708  0.4816  0.3337
   97MOL    H4736719   2.534   5.489   1.178  0.7904 -1.4199  1.5140
   97MOL    H4836720   2.433   5.346   1.166  2.2307  0.2655  2.9657
   97MOL    H4936721   2.217   5.478   1.182 -0.3219  0.9318 -0.5626
   97MOL    H5036722   2.416   5.689   1.247 -0.1847 -0.3612 -0.0142
   97MOL    H5136723   2.315   5.699   1.110  1.4147  1.3069  0.2986
   97MOL    H5236724   2.234   5.697   1.394 -1.2702 -0.1076  0.3727
   97MOL    H5336725   2.119   5.740   1.276 -0.2267  1.7464 -1.1670
   97MOL    H5436726   2.197   5.966   1.343  0.1640  0.6004 -2.0395
   97MOL    H5536727   2.360   5.925   1.307  0.5469 -0.5986  0.6005
   97MOL    H5636728   2.271   5.899   1.060 -1.4038 -1.6811  0.4147
   97MOL    H5736729   2.106   5.917   1.132 -0.3181  0.6774  1.1586
   97MOL    H5836730   2.207   6.056   1.138  1.1887  0.2991 -0.7790
   97MOL    C5936731   2.230   5.380   1.416 -0.0846 -0.8049  0.2197
   97MOL    C6036732   2.270   5.324   1.553  0.2082  0.4299 -0.0860
   97MOL    C6136733   2.330   5.437   1.636  0.1746 -0.0302  0.0380
   97MOL    C6236734   2.375   5.410   1.787 -0.2092  0.6426 -0.4540
   97MOL    C6336735   2.260   5.458   1.877 -0.1456  0.8173 -0.2693
   97MOL    C6436736   2.150   5.349   1.914 -0.4604  0.1530  0.5780
   97MOL    O6536737   2.159   5.271   1.624  0.3001 -0.3958  0.6286
   97MOL    H6636738   2.195   5.299   1.351  1.5550 -0.7695 -0.7296
   97MOL    H6736739   2.154   5.457   1.424  0.3923 -0.3658  0.5786
   97MOL    H6836740   2.335   5.236   1.552  1.6605  1.4780 -1.0433
   97MOL    H6936741   2.265   5.524   1.632  1.3170  0.8878  0.9903
   97MOL    H7036742   2.421   5.476   1.592 -0.0824  1.5293  0.8338
   97MOL    H7136743   2.468   5.456   1.820 -0.6604  1.5767 -0.4867
   97MOL    H7236744   2.403   5.306   1.803  0.2469  0.9192  0.5489
   97MOL    H7336745   2.215   5.547   1.833 -1.3781 -0.4753 -1.6968
   97MOL    H7436746   2.310   5.486   1.970  0.6273  0.6769 -0.6332
   97MOL    H7536747   2.069   5.354   1.841 -0.2836  0.0904  0.3748
   97MOL    H7636748   2.188   5.248   1.934  0.5239  0.2352 -0.7771
   97MOL    H7736749   2.114   5.378   2.012 -1.9173  1.7654 -0.4199
   97MOL    C7836750   2.114   5.143   1.586  0.1750 -0.1740 -0.1943
   97MOL    C7936751   1.992   5.106   1.666 -0.9121 -0.4319  0.7334
   97MOL    C8036752   1.962   4.959   1.660 -0.1357  0.1675 -0.1783
   97MOL    C8136753   1.825   4.925   1.717 -0.3904  0.1580 -0.7255
   97MOL    C8236754   1.796   4.771   1.707  0.2179  0.1602  0.2589
   97MOL    C8336755   1.657   4.727   1.759 -0.4238  0.0014  0.1775
   97MOL    O8436756   1.890   5.177   1.600 -0.0853  0.0087 -0.6156
   97MOL    H8536757   2.193   5.072   1.611 -0.1431 -0.8704 -1.0890
   97MOL    H8636758   2.101   5.135   1.478 -0.7513 -1.6643 -0.0001
   97MOL    H8736759   2.013   5.145   1.765  0.8659 -1.4449  0.7871
   97MOL    H8836760   1.974   4.915   1.561  1.9410  0.0849  0.0884
   97MOL    H8936761   2.032   4.897   1.715 -0.8893 -0.4360  0.0984
   97MOL    H9036762   1.756   4.980   1.653 -1.2503 -1.7213 -1.4529
   97MOL    H9136763   1.816   4.969   1.816  0.6618  1.0539 -1.0279
   97MOL    H9236764   1.796   4.751   1.599  1.0856  0.3758  0.2201
   97MOL    H9336765   1.880   4.712   1.744  1.0835 -0.6328 -2.8074
   97MOL    H9436766   1.572   4.762   1.699 -1.1223 -2.1593 -0.1467
   97MOL    H9536767   1.641   4.762   1.861  1.2809 -0.0456  0.4658
   97MOL    H9636768   1.650   4.618   1.756 -1.1340  0.0257  0.6807
   97MOL    C9736769   1.834   5.282   1.682  0.0802 -0.5430 -0.2672
   97MOL    C9836770   1.694   5.322   1.621  0.1299 -0.0433  0.2721
   97MOL    C9936771   1.593   5.380   1.720 -0.0135  0.4226 -0.1426
   97MOL   C10036772   1.451   5.406   1.652  0.0249 -0.2003  0.0339
   97MOL   C10136773   1.345   5.447   1.752 -0.3257  0.3788  0.0918
   97MOL   C10236774   1.205   5.441   1.697  0.6540  0.7157 -0.4949
   97MOL   O10336775   1.715   5.427   1.523 -0.2117 -0.6500 -0.0767
   97MOL   H10436776   1.898   5.369   1.698  0.2133 -0.9575  1.5868
   97MOL   H10536777   1.813   5.239   1.779  0.9924 -0.4665 -0.0297
   97MOL   H10636778   1.645   5.233   1.582  0.2039 -0.4263  1.0503
   97MOL   H10736779   1.636   5.462   1.778 -0.5914  0.3810  0.3406
   97MOL   H10836780   1.574   5.292   1.781 -1.3229 -0.6853 -2.0888
   97MOL   H10936781   1.407   5.325   1.595  1.1065  0.6641 -2.0971
   97MOL   H11036782   1.463   5.484   1.576  1.2748 -2.1751 -1.8327
   97MOL   H11136783   1.364   5.544   1.797 -0.5955 -0.0569  1.1381
   97MOL   H11236784   1.340   5.367   1.825 -0.8419  1.0628  0.8176
   97MOL   H11336785   1.201   5.499   1.605  0.1227  0.3759 -0.6866
   97MOL   H11436786   1.177   5.341   1.662  0.3274  0.7784 -0.4080
   97MOL   H11536787   1.127   5.481   1.762 -0.1852 -1.6600  0.0143
   97MOL   C11636788   1.800   5.409   1.407  0.1056  0.0470 -0.1907
   97MOL   C11736789   1.798   5.529   1.312 -0.6018 -0.1731  0.3496
   97MOL   C11836790   1.858   5.505   1.176  0.2362  0.1578  0.3736
   97MOL   C11936791   1.859   5.638   1.078  0.2251 -0.5163  1.0730
   97MOL   C12036792   1.912   5.615   0.938  0.4897 -0.6611 -0.7766
   97MOL   C12136793   1.863   5.717   0.833 -0.3081  0.2581 -0.0388
   97MOL   O12236794   1.873   5.632   1.367 -0.0274 -0.1439 -0.5715
   97MOL   H12336795   1.902   5.386   1.435 -0.4338  1.0705  2.8405
   97MOL   H12436796   1.776   5.316   1.355 -0.7027  0.2053 -0.1074
   97MOL   H12536797   1.698   5.572   1.301 -0.4484  0.2135  0.4298
   97MOL   H12636798   1.963   5.481   1.193  0.4242  0.1914 -0.6666
   97MOL   H12736799   1.798   5.425   1.132 -1.8700  0.7217  2.1841
   97MOL   H12836800   1.925   5.713   1.120 -0.8930  0.8856  0.3416
   97MOL   H12936801   1.760   5.681   1.062  0.8935  0.4985 -0.4309
   97MOL   H13036802   2.020   5.607   0.944  0.6975  1.9065 -0.5050
   97MOL   H13136803   1.883   5.514   0.910  0.4829 -1.3937  1.7410
   97MOL   H13236804   1.879   5.820   0.868  1.8908  0.0563 -0.3972
   97MOL   H13336805   1.922   5.706   0.743 -0.8037 -1.2187 -0.1954
   97MOL   H13436806   1.762   5.693   0.802 -0.5001  1.0902 -0.0861
   97MOL   C13536807   1.829   5.685   1.495  0.3878 -0.1744  0.7585
   97MOL   C13636808   1.913   5.810   1.533 -0.1312  0.0067 -0.7230
   97MOL   C13736809   1.934   5.809   1.684 -0.8318 -0.2499  0.0208
   97MOL   C13836810   2.003   5.933   1.746  0.6989  0.6331 -0.3908
   97MOL   C13936811   1.901   6.004   1.837 -0.1595 -0.2440  0.0005
   97MOL   C14036812   1.788   6.083   1.766 -0.7759  0.6612 -0.3671
   97MOL   O14136813   1.854   5.930   1.490 -0.1466  0.0990 -0.1909
   97MOL   H14236814   1.723   5.702   1.475  0.4460 -1.2466 -0.5246
   97MOL   H14336815   1.839   5.613   1.576  0.2986  0.6101  1.4783
   97MOL   H14436816   2.015   5.815   1.496  0.4341  0.4193  0.8767
   97MOL   H14536817   1.837   5.794   1.731 -1.3324  0.6573 -0.6960
   97MOL   H14636818   1.995   5.720   1.700 -2.4965 -1.0319  2.2208
   97MOL   H14736819   2.055   6.001   1.679  0.8963  1.1115  0.2393
   97MOL   H14836820   2.085   5.903   1.811  1.0310  1.5725 -0.3769
   97MOL   H14936821   1.951   6.076   1.902  1.6783 -1.7644  0.3096
   97MOL   H15036822   1.859   5.936   1.911  0.4058 -0.3236  0.2454
   97MOL   H15136823   1.819   6.115   1.666 -0.5390  3.0880  0.4483
   97MOL   H15236824   1.700   6.021   1.752 -1.8927  2.1979 -0.3413
   97MOL   H15336825   1.764   6.175   1.820 -1.2055  0.8891 -0.9341
   97MOL   C15436826   1.842   5.950   1.351 -0.0027  0.2445  0.3298
   97MOL   C15536827   1.736   6.065   1.327 -0.2688 -0.1847 -0.4832
   97MOL   C15636828   1.703   6.095   1.176  0.4811  0.3285  0.1773
   97MOL   C15736829   1.826   6.099   1.085 -0.3507  0.3591 -0.9641
   97MOL   C15836830   1.817   6.136   0.937  0.1276  0.5779 -0.9299
   97MOL   C15936831   1.949   6.104   0.854 -0.0361  0.5425  0.3238
   97MOL   O16036832   1.622   6.014   1.394 -0.2066 -0.1700 -0.2939
   97MOL   H16136833   1.797   5.866   1.298 -0.9750  0.2897  1.0658
   97MOL   H16236834   1.935   5.977   1.300 -0.0231  1.2552  0.7935
   97MOL   H16336835   1.766   6.157   1.378 -0.4013  0.2865 -1.2403
   97MOL   H16436836   1.631   6.176   1.168 -1.2223 -1.0649  1.1927
   97MOL   H16536837   1.647   6.008   1.141  0.7924 -0.1119  0.7633
   97MOL   H16636838   1.857   5.995   1.072 -0.2927  0.2441  0.0393
   97MOL   H16736839   1.909   6.157   1.124 -0.3283 -0.3423  0.0637
   97MOL   H16836840   1.731   6.076   0.907 -0.2303 -0.0500  1.2544
   97MOL   H16936841   1.799   6.242   0.919  2.0932  1.0784 -0.1260
   97MOL   H17036842   2.030   6.053   0.906 -0.2553  1.5911  1.7162
   97MOL   H17136843   1.985   6.200   0.818 -0.6437  0.0248 -1.7198
   97MOL   H17236844   1.923   6.046   0.766 -1.9883  0.9150  0.6219
   97MOL   C17336845   1.536   6.123   1.429  0.3949 -0.1224 -0.4972
   97MOL   C17436846   1.401   6.062   1.488 -0.0609 -0.0299  0.2330
   97MOL   C17536847   1.420   6.021   1.638  0.8684 -0.7914  0.2984
   97MOL   C17636848   1.306   5.938   1.687 -0.6885 -0.5905 -0.7186
   97MOL   C17736849   1.345   5.862   1.815 -0.1461 -0.2185 -0.0067
   97MOL   C17836850   1.223   5.808   1.888  0.3494 -0.4310  0.4019
   97MOL   O17936851   1.291   6.148   1.470 -0.0264 -0.3123  0.1298
   97MOL   H18036852   1.524   6.198   1.351  1.9358 -1.5166 -2.1165
   97MOL   H18136853   1.582   6.182   1.509  0.6052  0.7456 -1.2514
   97MOL   H18236854   1.376   5.971   1.435 -3.1367  1.5119 -1.1404
   97MOL   H18336855   1.503   5.953   1.660  1.1950 -0.3117  0.5505
   97MOL   H18436856   1.423   6.105   1.707 -1.8903  0.2961 -0.8502
   97MOL   H18536857   1.213   5.993   1.696 -2.0258 -2.7324 -1.0816
   97MOL   H18636858   1.284   5.853   1.622  1.6632 -1.5164 -0.3798
   97MOL   H18736859   1.405   5.773   1.795 -0.8380 -0.2307 -2.1551
   97MOL   H18836860   1.401   5.920   1.887  0.4146  1.0663 -1.4581
   97MOL   H18936861   1.248   5.774   1.989 -2.8384 -1.2867  0.9573
   97MOL   H19036862   1.182   5.721   1.837 -0.7896  1.1978 -1.5615
   97MOL   H19136863   1.141   5.880   1.892 -0.9678 -1.7128 -2.1782
   97MOL   C19236864   1.254   6.159   1.340  0.0632 -0.1140 -0.1839
   97MOL   C19336865   1.137   6.259   1.311  1.1023  0.2412  0.2976
   97MOL   C19436866   1.065   6.235   1.176  0.4806  0.2435  0.0816
   97MOL   C19536867   0.957   6.346   1.153 -0.1286  0.6809 -0.5008
   97MOL   C19636868   0.856   6.291   1.051 -0.2811 -0.3773  0.7046
   97MOL   C19736869   0.786   6.397   0.962  0.1361 -0.3077  0.5659
   97MOL   O19836870   1.173   6.391   1.337 -0.1271  0.7664  0.4093
   97MOL   H19936871   1.334   6.178   1.269  0.9715 -2.4385  0.1934
   97MOL   H20036872   1.227   6.057   1.315  1.8764 -0.8054  0.5981
   97MOL   H20136873   1.060   6.222   1.378  0.4460  2.0420  0.5361
   97MOL   H20236874   1.126   6.230   1.086  0.5837 -1.2395  0.2173
   97MOL   H20336875   1.011   6.140   1.181  1.9122 -0.6446 -0.8604
   97MOL   H20436876   1.000   6.442   1.124 -2.0348  1.8448  0.4262
   97MOL   H20536877   0.908   6.374   1.246 -0.7508 -0.3973 -0.4932
   97MOL   H20636878   0.918   6.223   0.992 -1.6524 -0.3289 -0.8274
   97MOL   H20736879   0.776   6.231   1.095 -0.8138 -1.0579 -1.1451
   97MOL   H20836880   0.707   6.352   0.902 -0.5790  0.1290  1.1671
   97MOL   H20936881   0.731   6.472   1.018 -0.1982  0.6106 -0.9655
   97MOL   H21036882   0.858   6.434   0.889 -1.2760 -1.8376 -1.6542
   97MOL   C21136883   1.199   6.432   1.467 -1.0925 -0.0103 -0.2107
   97MOL   C21236884   1.209   6.580   1.477  0.7690 -0.0051  0.1912
   97MOL   C21336885   1.306   6.622   1.591 -0.2874  0.2544  0.0858
   97MOL   C21436886   1.336   6.773   1.599 -0.1988  0.2075 -0.1949
   97MOL   C21536887   1.442   6.805   1.703  0.7437 -0.8515 -0.0255
   97MOL   C21636888   1.497   6.947   1.690  0.1753  0.3894  0.5122
   97MOL   O21736889   1.085   6.639   1.499  0.5085  0.3513 -0.2229
   97MOL   H21836890   1.288   6.384   1.507 -3.0855 -3.7110 -0.0599
   97MOL   H21936891   1.127   6.405   1.544 -0.2031 -2.2193 -0.1380
   97MOL   H22036892   1.251   6.615   1.382 -0.8414  0.6844 -0.2772
   97MOL   H22136893   1.277   6.578   1.686 -0.3172 -0.9757 -0.4883
   97MOL   H22236894   1.401   6.576   1.567  0.1213 -0.1749  2.4207
   97MOL   H22336895   1.384   6.789   1.502  0.1697 -1.6366 -0.3329
   97MOL   H22436896   1.251   6.841   1.602 -0.2043  0.1594  0.8727
   97MOL   H22536897   1.397   6.792   1.802 -0.2437 -0.1345 -0.3788
   97MOL   H22636898   1.527   6.738   1.692  2.1843  1.1511 -1.4529
   97MOL   H22736899   1.558   6.986   1.772  1.3407 -1.4218  0.5243
   97MOL   H22836900   1.413   7.016   1.699  0.6125  0.9576  0.2506
   97MOL   H22936901   1.541   6.956   1.591 -1.3900 -0.6428 -0.2969
   97MOL   C23036902   0.986   6.627   1.395 -0.4116 -0.6042  0.1604
   97MOL   C23136903   0.884   6.741   1.428  0.1174  0.1810 -0.0263
   97MOL   C23236904   0.744   6.691   1.384  0.3069 -0.1101 -0.0146
   97MOL   C23336905   0.629   6.788   1.436 -0.7702  0.9681  0.0539
   97MOL   C23436906   0.482   6.732   1.410  0.7983 -0.4490  0.0568
   97MOL   C23536907   0.452   6.590   1.453 -0.7135 -0.3544  0.0119
   97MOL   O23636908   0.907   6.849   1.341  0.0209 -0.2287  0.1343
   97MOL   H23736909   1.031   6.638   1.297  2.9986  2.5595  1.9206
   97MOL   H23836910   0.937   6.532   1.414 -1.6864  0.0219  0.0518
   97MOL   H23936911   0.886   6.782   1.529 -0.9033 -1.4714  0.6955
   97MOL   H24036912   0.729   6.589   1.419  0.6080  0.5251  2.0696
   97MOL   H24136913   0.740   6.685   1.276 -1.4979 -2.9749  0.1479
   97MOL   H24236914   0.647   6.883   1.384 -0.4285  2.1995  2.3693
   97MOL   H24336915   0.646   6.815   1.540  1.5359  1.4428 -0.4001
   97MOL   H24436916   0.416   6.805   1.457 -0.7661 -2.1607  0.6078
   97MOL   H24536917   0.480   6.749   1.302  0.6625 -2.3570 -0.2537
   97MOL   H24636918   0.504   6.527   1.381  1.3325  1.1999  0.0825
   97MOL   H24736919   0.348   6.559   1.456 -1.1008  0.9328  0.2230
   97MOL   H24836920   0.508   6.559   1.542 -0.6489  0.4137  0.2483
   97MOL   C24936921   1.028   6.917   1.360  0.3548  0.4694 -0.6467
   97MOL   C25036922   1.034   7.029   1.254  0.0387 -0.6765 -0.6437
   97MOL   C25136923   1.176   7.078   1.218  0.2690 -0.6356  0.8134
   97MOL   C25236924   1.184   7.182   1.100  0.7276  0.6603  0.4357
   97MOL   C25336925   1.325   7.242   1.077  0.0658 -0.0173 -0.2659
   97MOL   C25436926   1.412   7.138   1.017  0.7177  0.0856  0.6962
   97MOL   O25536927   0.966   7.145   1.308 -0.0667  0.1477 -0.4765
   97MOL   H25636928   1.048   6.949   1.462  2.4048  0.8168 -1.1244
   97MOL   H25736929   1.113   6.851   1.345  1.3992  2.0107 -1.7555
   97MOL   H25836930   0.991   6.995   1.160 -2.7727 -1.2593  0.8151
   97MOL   H25936931   1.208   7.131   1.307  0.1103 -0.1139  0.5615
   97MOL   H26036932   1.246   6.995   1.212  0.8984 -0.0340 -0.1998
   97MOL   H26136933   1.148   7.124   1.015  1.5524  0.5208  0.1767
   97MOL   H26236934   1.114   7.260   1.127 -0.0392 -0.8798  3.0678
   97MOL   H26336935   1.310   7.330   1.014  0.0236 -0.3124 -0.6690
   97MOL   H26436936   1.371   7.285   1.166 -0.0501 -0.9417  0.2494
   97MOL   H26536937   1.451   7.071   1.093  1.9191 -0.6736 -0.5789
   97MOL   H26636938   1.496   7.180   0.962  0.7806  1.2502  1.6337
   97MOL   H26736939   1.368   7.072   0.944  0.0516 -0.3624  1.4958
   97MOL   C26836940   0.822   7.119   1.319  0.0186  0.3884  0.3587
   97MOL   C26936941   0.735   7.244   1.336  0.0736  0.4361  0.1862
   97MOL   C27036942   0.612   7.210   1.426 -0.4740  0.3578 -0.8726
   97MOL   C27136943   0.635   7.187   1.579 -0.0551  0.6256  0.0090
   97MOL   C27236944   0.508   7.189   1.660  0.1131  0.0142  0.6148
   97MOL   C27336945   0.520   7.136   1.811 -0.3360 -0.2517 -0.0249
   97MOL   O27436946   0.684   7.293   1.215  0.2329  0.2447  0.3401
   97MOL   H27536947   0.808   7.053   1.404 -1.7974 -1.9489 -1.6967
   97MOL   H27636948   0.787   7.063   1.233 -2.2748  0.7700  1.0130
   97MOL   H27736949   0.787   7.325   1.387  0.9499 -1.8108  3.0359
   97MOL   H27836950   0.535   7.285   1.411 -0.6429  0.3435 -0.1056
   97MOL   H27936951   0.575   7.116   1.385  1.0835 -0.7299  0.1313
   97MOL   H28036952   0.675   7.090   1.607  1.6347  0.9289 -1.2962
   97MOL   H28136953   0.697   7.267   1.621  0.1935  0.9935 -1.0572
   97MOL   H28236954   0.457   7.286   1.662  0.8316  0.3965  0.4511
   97MOL   H28336955   0.440   7.127   1.601  0.3407 -0.5878  0.9834
   97MOL   H28436956   0.562   7.035   1.806  0.5125  0.0298  1.3278
   97MOL   H28536957   0.572   7.203   1.878  0.2705 -2.0741  1.3813
   97MOL   H28636958   0.424   7.124   1.861  0.5063 -1.8006  1.2538
   97MOL   C28736959   0.769   7.315   1.108  0.2754 -0.1046 -0.0394
   97MOL   C28836960   0.684   7.396   0.999 -0.1607  0.0400  0.3901
   97MOL   C28936961   0.732   7.360   0.853 -0.1744 -0.1341  0.2878
   97MOL   C29036962   0.668   7.448   0.750  0.4072  0.0070  0.4396
   97MOL   C29136963   0.750   7.456   0.621  0.1362  0.2797 -0.3605
   97MOL   C29236964   0.667   7.482   0.497 -0.6425  0.5003 -0.1404
   97MOL   O29336965   0.708   7.532   1.011  0.0592  0.4585  0.0901
   97MOL   H29436966   0.803   7.222   1.063  0.6393 -0.0831  0.1927
   97MOL   H29536967   0.855   7.377   1.132  0.4757 -1.8052  3.9114
   97MOL   H29636968   0.576   7.384   1.008 -0.0671 -1.9744 -0.8354
   97MOL   H29736969   0.839   7.378   0.852  0.2209 -2.3330  0.1501
   97MOL   H29836970   0.725   7.254   0.828  1.2315 -0.7106  2.2683
   97MOL   H29936971   0.567   7.422   0.721 -0.4534  3.2445  0.3767
   97MOL   H30036972   0.658   7.551   0.784  0.6363  0.7241 -1.5748
   97MOL   H30136973   0.804   7.361   0.623  1.0322  0.7953  1.0405
   97MOL   H30236974   0.834   7.525   0.636  0.2754 -0.3473  2.0703
   97MOL   H30336975   0.578   7.420   0.490 -0.9350  0.7771  1.0289
   97MOL   H30436976   0.639   7.587   0.506  1.1520  0.8566  1.4680
   97MOL   H30536977   0.726   7.479   0.405 -2.8655 -0.8199 -1.5495
   97MOL   C30636978   0.629   7.601   1.108 -0.2073 -0.0651  0.0393
   97MOL   C30736979   0.714   7.696   1.202  0.3963  0.6973 -0.1050
   97MOL   C30836980   0.654   7.704   1.350  0.0681 -0.0921  0.2377
   97MOL   C30936981   0.761   7.742   1.456 -0.6871 -0.1862 -0.3565
   97MOL   C31036982   0.721   7.755   1.602 -0.6252  0.1064 -0.6383
   97MOL   C31136983   0.834   0.020   1.691 -0.3044  0.9796 -0.7076
   97MOL   O31236984   0.720   0.042   1.150  0.4533 -0.0399 -0.0471
   97MOL   H31336985   0.541   7.644   1.059 -0.9081  0.2208  1.5330
   97MOL   H31436986   0.580   7.534   1.178  0.5904  0.0402  0.6988
   97MOL   H31536987   0.812   7.649   1.213 -0.6156 -1.3026  0.6154
   97MOL   H31636988   0.605   7.615   1.389 -0.1888  1.1300  2.7558
   97MOL   H31736989   0.575   7.778   1.363 -2.2618 -2.1618 -1.6174
   97MOL   H31836990   0.849   7.679   1.448 -0.2871  0.5532 -1.9276
   97MOL   H31936991   0.802   0.054   1.429  0.9373 -0.5375  0.7908
   97MOL   H32036992   0.695   7.655   1.638  1.2399  0.0247  0.5220
   97MOL   H32136993   0.632   0.032   1.609 -0.9618 -0.3626 -0.6733
   97MOL   H32236994   0.882   0.103   1.638  0.9831  1.3372  0.9827
   97MOL   H32336995   0.801   0.040   1.793 -0.7100  0.2287 -0.6896
   97MOL   H32436996   0.912   7.730   1.698  0.1961  1.7592  3.1000
   97MOL   C32536997   0.799   0.058   1.035 -0.5451  0.3898  0.2026
   97MOL   C32636998   0.803   0.209   1.006 -0.6938 -0.8717  0.4644
   97MOL   C32736999   0.854   0.227   0.862  0.5849 -0.2800  0.3938
   97MOL   C32837000   0.868   0.379   0.837 -0.3151  0.0334 -0.1971
   97MOL   C32937001   0.733   0.457   0.850 -0.2599 -0.9117  0.5872
   97MOL   C33037002   0.737   0.593   0.768 -0.3227  0.0761 -0.4167
   97MOL   O33137003   0.905   0.265   1.086  0.4864  0.1012  0.3931
   97MOL   H33237004   0.756   7.785   0.954  1.1303 -0.2109 -0.2820
   97MOL   H33337005   0.897   0.011   1.041 -1.1600 -1.0817 -1.1051
   97MOL   H33437006   0.704   0.253   1.016 -1.1255 -1.3244 -1.6062
   97MOL   H33537007   0.951   0.181   0.843 -0.2972 -1.8580 -0.4206
   97MOL   H33637008   0.780   0.189   0.792  2.9836  1.3331 -3.2404
   97MOL   H33737009   0.944   0.419   0.903  0.3791 -2.2915  0.4632
   97MOL   H33837010   0.918   0.401   0.743  0.8845  3.5367  1.1795
   97MOL   H33937011   0.657   0.394   0.805 -0.2300 -0.3718 -0.2395
   97MOL   H34037012   0.708   0.489   0.952 -1.6083 -0.9633  0.2858
   97MOL   H34137013   0.811   0.655   0.818 -2.0404  0.5731  1.5768
   97MOL   H34237014   0.772   0.585   0.665  2.0239  0.4105  0.3091
   97MOL   H34337015   0.643   0.648   0.770 -1.0993 -1.2766  0.5155
   97MOL   C34437016   0.870   0.333   1.206  0.0767  0.5607  0.3780
   97MOL   C34537017   1.012   0.388   1.255  0.9194 -0.2233 -0.5573
   97MOL   C34637018   1.002   0.525   1.326 -0.4829 -0.1390  0.5421
   97MOL   C34737019   1.150   0.556   1.365  0.8844 -0.6510  0.0102
   97MOL   C34837020   1.164   0.708   1.386  0.0068 -0.1523 -0.0895
   97MOL   C34937021   1.182   0.788   1.259 -0.8241  0.1737  0.6250
   97MOL   O35037022   1.069   0.289   1.345  0.6267 -0.5828 -0.1469
   97MOL   H35137023   0.817   0.275   1.281 -1.2131  1.4338  0.1553
   97MOL   H35237024   0.797   0.406   1.171 -0.2933 -0.1567 -0.3655
   97MOL   H35337025   1.077   0.408   1.169  2.2898 -0.5157  0.3916
   97MOL   H35437026   0.941   0.513   1.416  0.9035  1.5768  1.7392
   97MOL   H35537027   0.964   0.593   1.250 -0.1694  0.3281  0.8017
   97MOL   H35637028   1.215   0.530   1.281  1.9641 -1.1080  0.9773
   97MOL   H35737029   1.179   0.505   1.457  1.8707  0.3326  0.2459
   97MOL   H35837030   1.251   0.746   1.440 -1.4691  1.5840  1.1623
   97MOL   H35937031   1.088   0.751   1.452 -0.6346 -1.4027 -0.0021
   97MOL   H36037032   1.284   0.771   1.225 -1.7508 -1.3455 -1.5537
   97MOL   H36137033   1.161   0.894   1.268  0.5170  0.5458 -0.4411
   97MOL   H36237034   1.122   0.752   1.175  0.9556 -1.5963  0.0529
   97MOL   C36337035   1.098   0.165   1.288 -0.8197  0.7912  0.5232
   97MOL   C36437036   1.128   0.074   1.403 -0.0722  0.3658 -0.4765
   97MOL   C36537037   1.128   7.706   1.373 -0.4638 -0.4041 -0.0658
   97MOL   C36637038   1.152   7.614   1.504  0.1289 -0.6660 -0.4349
   97MOL   C36737039   1.106   7.470   1.488  0.0875 -0.2699  0.4806
   97MOL   C36837040   1.091   7.395   1.624  0.7699  0.3354  0.5257
   97MOL   O36937041   1.258   0.102   1.440 -0.3572  0.2375 -0.2542
   97MOL   H37037042   1.178   0.173   1.215  0.4592  0.2306  1.8500
   97MOL   H37137043   1.022   0.121   1.224  1.7778 -2.6997 -0.3034
   97MOL   H37237044   1.061   0.091   1.487  0.6711 -0.4668  0.2838
   97MOL   H37337045   1.035   7.670   1.327  0.6127 -1.7595 -1.2076
   97MOL   H37437046   1.203   7.688   1.296 -2.3743 -1.8398 -1.6622
   97MOL   H37537047   1.258   7.615   1.529  0.0916  2.0618 -0.2210
   97MOL   H37637048   1.094   7.660   1.584  2.9530 -1.8110  2.4295
   97MOL   H37737049   1.003   7.468   1.453  0.2902  1.2393 -0.2288
   97MOL   H37837050   1.167   7.425   1.410  1.0848  1.2734  0.3412
   97MOL   H37937051   1.038   7.459   1.694  0.0905 -1.3094  1.5436
   97MOL   H38037052   1.029   7.310   1.597 -0.2040  1.5958 -1.3261
   97MOL   H38137053   1.190   7.368   1.660  1.1075  0.4113 -0.3277
   97MOL   H38237054   1.257   0.196   1.443 -1.1590  0.2039  2.9426
   98MOL     C137055   1.449   6.468   7.578 -0.9879  0.1672  0.0533
   98MOL     C237056   1.554   6.534   7.475  0.4798  0.9605  0.1013
   98MOL     C337057   1.679   6.594   7.534 -0.0412  0.1111  0.1102
   98MOL     C437058   1.753   6.704   7.450 -0.2516  0.4707 -0.1333
   98MOL     C537059   1.850   6.784   7.537  0.2287 -0.6354 -0.2245
   98MOL     C637060   1.911   6.894   7.445 -0.2323 -0.3306  0.0016
   98MOL     O737061   1.576   6.451   7.367  0.2281 -0.0385 -0.0560
   98MOL     H837062   1.499   6.376   7.607  1.3827  1.0354 -1.1039
   98MOL     H937063   1.353   6.449   7.529 -0.6245 -0.8368 -0.2893
   98MOL    H1037064   1.490   6.609   7.429 -1.3595 -0.7148 -0.1500
   98MOL    H1137065   1.650   6.635   7.631 -0.4317 -0.3639  0.1949
   98MOL    H1237066   1.753   6.519   7.562  0.8138  0.0426 -2.2726
   98MOL    H1337067   1.806   6.650   7.372  0.7793 -1.2369  1.6921
   98MOL    H1437068   1.678   6.773   7.410  0.5890  1.6171  0.2377
   98MOL    H1537069   1.800   6.835   7.620 -1.0717  0.4261 -1.6424
   98MOL    H1637070   1.932   6.721   7.573 -0.1187 -0.5723  0.7041
   98MOL    H1737071   1.834   6.970   7.432 -1.5049 -1.8860 -1.6336
   98MOL    H1837072   1.997   6.945   7.488  0.0013 -2.2955  1.9683
   98MOL    H1937073   1.930   6.853   7.346 -2.5511  0.8827 -0.9776
   98MOL    H2037074   1.445   6.536   7.663 -0.2885  2.1868 -1.4912
   98MOL    C2137075   1.471   6.445   7.261  0.3200  0.5000 -0.0604
   98MOL    C2237076   1.513   6.354   7.143 -0.1423 -0.4106  0.3175
   98MOL    C2337077   1.391   6.289   7.066  0.8065 -0.7938 -0.3941
   98MOL    C2437078   1.433   6.160   6.990  1.0851  0.0742  0.4533
   98MOL    C2537079   1.315   6.096   6.913 -0.1936  0.2263  0.6328
   98MOL    C2637080   1.253   6.188   6.802 -0.4691 -0.1036 -0.1709
   98MOL    O2737081   1.579   6.424   7.039 -0.6979 -0.0646 -0.0435
   98MOL    H2837082   1.392   6.395   7.317 -0.8461 -0.2971 -2.3665
   98MOL    H2937083   1.442   6.547   7.238 -1.3881  0.6752  2.6865
   98MOL    H3037084   1.567   6.277   7.198 -0.2904 -0.0077  1.0332
   98MOL    H3137085   1.334   6.358   7.004 -1.5861 -1.8315  0.5408
   98MOL    H3237086   1.318   6.271   7.146  1.1362  5.0235  1.4040
   98MOL    H3337087   1.475   6.090   7.063 -0.0188  0.3201  1.3274
   98MOL    H3437088   1.519   6.187   6.929  0.3413 -0.7713 -0.9761
   98MOL    H3537089   1.359   6.017   6.853 -1.0092  1.2276 -1.3477
   98MOL    H3637090   1.234   6.063   6.977 -0.3379 -0.6925 -0.0096
   98MOL    H3737091   1.326   6.205   6.722  1.0590  3.2085  1.8014
   98MOL    H3837092   1.221   6.282   6.847 -1.5011 -1.4308  1.9059
   98MOL    H3937093   1.168   6.145   6.749  0.9424 -2.6975 -0.4012
   98MOL    C4037094   1.713   6.435   7.058 -0.3183 -0.2530  0.2946
   98MOL    C4137095   1.756   6.513   6.929 -1.0348 -0.1348 -0.3811
   98MOL    C4237096   1.896   6.471   6.881  0.4877 -0.7143 -0.0984
   98MOL    C4337097   1.891   6.327   6.823 -0.8046 -0.0640  0.1382
   98MOL    C4437098   2.000   6.288   6.723  0.2687  0.0927  0.1978
   98MOL    C4537099   2.095   6.185   6.772 -0.6590  0.5142 -0.0594
   98MOL    O4637100   1.745   6.653   6.966  0.1015 -0.1037 -0.0058
   98MOL    H4737101   1.753   6.333   7.058  3.3638  1.1039  0.9652
   98MOL    H4837102   1.753   6.477   7.151 -1.4817 -3.1732  2.1713
   98MOL    H4937103   1.698   6.490   6.839  1.4698 -1.0970 -1.7806
   98MOL    H5037104   1.932   6.539   6.803  2.5628 -0.2394  1.2393
   98MOL    H5137105   1.978   6.482   6.951 -0.4662  1.6281  0.7000
   98MOL    H5237106   1.794   6.312   6.776 -0.2989 -2.1173 -0.2921
   98MOL    H5337107   1.888   6.258   6.907  0.7779  1.4411  1.4832
   98MOL    H5437108   1.949   6.259   6.631  0.0952  1.2887 -0.0897
   98MOL    H5537109   2.051   6.382   6.701  0.0523  0.0128 -0.6805
   98MOL    H5637110   2.181   6.163   6.709 -1.9869 -0.1223 -1.7022
   98MOL    H5737111   2.132   6.225   6.866  0.3240 -0.1381 -0.1645
   98MOL    H5837112   2.049   6.089   6.795  0.5124 -0.3400 -1.2452
   98MOL    C5937113   1.616   6.707   6.950 -0.5927 -0.3084  0.8344
   98MOL    C6037114   1.610   6.861   6.963  0.1198 -0.2660 -0.1841
   98MOL    C6137115   1.641   6.909   7.113  0.2006 -0.4250 -0.3866
   98MOL    C6237116   1.619   7.061   7.126 -0.0843  0.4226  0.7660
   98MOL    C6337117   1.617   7.118   7.263  1.0088 -0.1459 -0.1346
   98MOL    C6437118   1.579   7.267   7.277  0.2786 -0.1879 -0.4085
   98MOL    O6537119   1.696   6.934   6.883  0.3871 -0.0941 -0.5079
   98MOL    H6637120   1.535   6.669   7.012 -1.2473 -0.2287  0.0441
   98MOL    H6737121   1.588   6.680   6.848  1.3912  1.1714 -0.1257
   98MOL    H6837122   1.508   6.897   6.947  0.0801  1.4632  3.3681
   98MOL    H6937123   1.745   6.879   7.128 -0.8236 -3.1990  1.6006
   98MOL    H7037124   1.570   6.859   7.179 -1.9295  0.8099 -1.7031
   98MOL    H7137125   1.527   7.095   7.077 -1.0873 -0.0439  2.2966
   98MOL    H7237126   1.704   7.111   7.080  0.9168 -0.1323  1.9997
   98MOL    H7337127   1.716   7.098   7.304  0.4398 -0.3372  1.1603
   98MOL    H7437128   1.564   7.055   7.335  2.5814  1.9517  2.9742
   98MOL    H7537129   1.633   7.312   7.359 -2.2706  0.6415  0.8810
   98MOL    H7637130   1.597   7.330   7.190  0.8157 -0.8153 -0.7595
   98MOL    H7737131   1.471   7.277   7.294 -0.1603  0.0947 -3.1170
   98MOL    C7837132   1.694   6.917   6.738 -0.3760 -0.5209 -0.9533
   98MOL    C7937133   1.818   6.999   6.688  0.2445 -0.2149  0.2311
   98MOL    C8037134   1.786   7.048   6.543  0.0970 -0.1298 -0.6113
   98MOL    C8137135   1.885   7.150   6.470 -0.0142 -0.1741  0.2519
   98MOL    C8237136   2.013   7.087   6.408 -0.5706  0.6276  0.2418
   98MOL    C8337137   2.079   7.160   6.287 -0.1935 -0.2143  0.5007
   98MOL    O8437138   1.942   6.934   6.679  0.1706  0.0964 -0.1343
   98MOL    H8537139   1.597   6.961   6.716  1.0554  1.3882 -3.8652
   98MOL    H8637140   1.698   6.818   6.692  0.8602 -0.3950 -1.1422
   98MOL    H8737141   1.830   7.087   6.752  0.5844  0.0105 -0.1394
   98MOL    H8837142   1.770   6.952   6.494 -0.8928  0.2758 -1.1090
   98MOL    H8937143   1.689   7.098   6.551  0.0023 -0.6882  2.2378
   98MOL    H9037144   1.913   7.235   6.532 -0.0227  0.2828 -0.3626
   98MOL    H9137145   1.826   7.193   6.388  1.0556 -1.0182 -0.9837
   98MOL    H9237146   2.086   7.083   6.489  0.6021 -0.0151 -0.8274
   98MOL    H9337147   1.982   6.986   6.380 -1.7729  0.8438  0.7478
   98MOL    H9437148   2.013   7.219   6.225 -0.9384 -0.5787  0.9381
   98MOL    H9537149   2.118   7.090   6.213  0.3379 -0.3395  0.8908
   98MOL    H9637150   2.165   7.221   6.316 -1.3215 -0.3662  4.4337
   98MOL    C9737151   1.980   6.855   6.790  0.1881 -0.5506  0.7085
   98MOL    C9837152   2.124   6.800   6.777 -0.7312 -0.5929 -0.0396
   98MOL    C9937153   2.165   6.750   6.913  0.7943 -0.7200 -0.3999
   98MOL   C10037154   2.205   6.864   7.015 -0.1806 -0.1323  0.0354
   98MOL   C10137155   2.226   6.807   7.154  0.1668 -0.3242  0.7619
   98MOL   C10237156   2.239   6.906   7.274 -0.0939  0.1882 -0.3002
   98MOL   O10337157   2.136   6.696   6.681  0.1019  0.0276  0.0572
   98MOL   H10437158   1.912   6.770   6.786 -0.2298 -0.1782 -0.4389
   98MOL   H10537159   1.965   6.915   6.879  1.2159  1.1886 -0.2664
   98MOL   H10637160   2.197   6.879   6.758 -1.5504  0.1327 -0.2262
   98MOL   H10737161   2.239   6.672   6.898 -0.6973 -1.8707 -1.9530
   98MOL   H10837162   2.083   6.687   6.947 -0.6226 -0.0230 -2.4710
   98MOL   H10937163   2.124   6.937   7.020 -1.1483 -1.0259 -1.9834
   98MOL   H11037164   2.299   6.906   6.979  0.1867 -0.4314  0.6415
   98MOL   H11137165   2.304   6.731   7.145  0.0093 -0.4526  0.4630
   98MOL   H11237166   2.138   6.748   7.177  0.2529 -1.1056 -0.7963
   98MOL   H11337167   2.292   6.852   7.352  0.2886  2.1055  0.7982
   98MOL   H11437168   2.295   6.997   7.250  0.0786 -0.2280 -1.5303
   98MOL   H11537169   2.136   6.930   7.298 -0.9585 -3.0713 -0.5005
   98MOL   C11637170   2.164   6.752   6.554  1.1726 -0.0556 -0.7519
   98MOL   C11737171   2.162   6.653   6.436 -0.1956 -0.0804 -0.5684
   98MOL   C11837172   2.255   6.699   6.315 -0.2881 -0.0485 -0.4719
   98MOL   C11937173   2.247   6.604   6.193 -0.2616 -0.3825  0.3678
   98MOL   C12037174   2.332   6.646   6.074  0.4278  0.5593  0.3412
   98MOL   C12137175   2.479   6.614   6.086  0.0114 -0.0316  0.2439
   98MOL   O12237176   2.024   6.649   6.387  0.2821  0.4211  0.8758
   98MOL   H12337177   2.100   6.832   6.518 -1.8604 -2.2832 -0.5085
   98MOL   H12437178   2.264   6.796   6.556  1.0746  0.3379 -3.4220
   98MOL   H12537179   2.203   6.558   6.469 -0.8641  0.0140  0.5774
   98MOL   H12637180   2.220   6.798   6.288 -0.5891  0.2544  0.9840
   98MOL   H12737181   2.357   6.693   6.353 -1.1648 -2.0655  1.7256
   98MOL   H12837182   2.146   6.576   6.164  0.4446 -0.8914 -1.6511
   98MOL   H12937183   2.281   6.507   6.228 -1.5088 -0.2901  1.9142
   98MOL   H13037184   2.290   6.584   5.994 -0.7852 -0.0142  1.4032
   98MOL   H13137185   2.306   6.747   6.042  0.6633 -0.3260 -2.8126
   98MOL   H13237186   2.483   6.508   6.111  0.5819  0.3920  2.0356
   98MOL   H13337187   2.532   6.626   5.992 -1.5196  1.6614 -0.4312
   98MOL   H13437188   2.521   6.670   6.169 -1.3471  2.2521 -0.5802
   98MOL   C13537189   1.929   6.579   6.463  0.1411 -0.1463  0.6234
   98MOL   C13637190   1.785   6.627   6.428 -0.4860 -0.3074  0.5983
   98MOL   C13737191   1.693   6.570   6.530  0.3028  0.4128  0.9541
   98MOL   C13837192   1.551   6.613   6.492  0.5725  0.4160 -0.4246
   98MOL   C13937193   1.437   6.541   6.576 -0.4983 -0.1898 -0.2041
   98MOL   C14037194   1.298   6.598   6.556 -0.1590 -0.2702 -0.2096
   98MOL   O14137195   1.752   6.571   6.302  0.0594 -0.1444 -0.6453
   98MOL   H14237196   1.933   6.472   6.443 -0.1120 -0.3420  1.5910
   98MOL   H14337197   1.946   6.592   6.570  1.3124  0.0512  0.4257
   98MOL   H14437198   1.769   6.735   6.431  0.0136 -0.2308  0.5743
   98MOL   H14537199   1.704   6.461   6.536  0.3359  0.4500  1.5686
   98MOL   H14637200   1.712   6.589   6.635  0.9817 -0.4672  0.9997
   98MOL   H14737201   1.524   6.607   6.387  0.4648  2.7875 -0.5721
   98MOL   H14837202   1.530   6.719   6.506 -0.8897  0.0795 -0.0432
   98MOL   H14937203   1.457   6.553   6.683  1.5702 -1.2433 -0.4623
   98MOL   H15037204   1.448   6.433   6.569  3.1649  0.0540  1.0102
   98MOL   H15137205   1.276   6.574   6.451 -1.7499 -0.8866  0.2447
   98MOL   H15237206   1.223   6.545   6.615 -0.2234 -1.4518 -1.3178
   98MOL   H15337207   1.306   6.704   6.577 -0.2212 -0.4077  0.5214
   98MOL   C15437208   1.784   6.659   6.191 -0.1658 -0.6228  0.2535
   98MOL   C15537209   1.789   6.577   6.060  0.8122 -0.2599 -0.1524
   98MOL   C15637210   1.825   6.666   5.938  0.1619  0.0918  0.4588
   98MOL   C15737211   1.832   6.590   5.804 -0.0401  0.3051 -0.5024
   98MOL   C15837212   1.877   6.691   5.691 -0.4820 -0.0840 -0.0401
   98MOL   C15937213   1.860   6.635   5.552 -0.4084 -0.3748  0.5873
   98MOL   O16037214   1.896   6.488   6.066  0.1742 -0.0630  0.6748
   98MOL   H16137215   1.878   6.714   6.204 -0.7760  0.8598 -1.4427
   98MOL   H16237216   1.705   6.734   6.183  2.1950  2.0926  1.4517
   98MOL   H16337217   1.695   6.527   6.037  1.9675 -1.8847 -1.5165
   98MOL   H16437218   1.921   6.716   5.956 -0.1623  0.0733  2.4044
   98MOL   H16537219   1.755   6.747   5.920  0.0886 -0.1070 -0.1509
   98MOL   H16637220   1.732   6.547   5.795  0.4611 -0.8088 -0.9935
   98MOL   H16737221   1.899   6.504   5.811  0.0783  0.3702 -0.8158
   98MOL   H16837222   1.815   6.779   5.675 -0.7727 -0.2627  0.0993
   98MOL   H16937223   1.978   6.731   5.706 -0.8073  1.4879 -1.7648
   98MOL   H17037224   1.789   6.553   5.555  1.1019 -1.6837  1.5813
   98MOL   H17137225   1.957   6.601   5.516 -0.2055  0.3806  0.4024
   98MOL   H17237226   1.826   6.706   5.477 -2.1174 -0.3375  1.3755
   98MOL   C17337227   1.867   6.360   6.121  0.0991 -0.1704  0.4230
   98MOL   C17437228   1.993   6.296   6.179  0.0516 -0.0027  0.3010
   98MOL   C17537229   1.954   6.179   6.273 -0.3259 -0.2800  0.8460
   98MOL   C17637230   2.076   6.107   6.330 -0.0783 -0.3912  0.9616
   98MOL   C17737231   2.041   5.992   6.420  0.5805  0.0458  0.0654
   98MOL   C17837232   2.156   5.894   6.440 -0.8227  0.0385  0.4155
   98MOL   O17937233   2.072   6.232   6.079  0.0794  0.5325  0.3008
   98MOL   H18037234   1.812   6.288   6.060 -0.4041 -0.3934  1.1366
   98MOL   H18137235   1.804   6.370   6.209  0.1101 -0.9749  0.5285
   98MOL   H18237236   2.058   6.372   6.223  1.3372  1.0078 -3.1977
   98MOL   H18337237   1.884   6.210   6.351  0.3617  0.1985  1.2863
   98MOL   H18437238   1.901   6.107   6.211 -0.4645 -0.4922  1.2122
   98MOL   H18537239   2.118   6.070   6.237  0.7287  1.6499  0.4919
   98MOL   H18637240   2.143   6.180   6.376  1.7302 -0.6117 -1.2323
   98MOL   H18737241   2.007   6.023   6.519  1.0485 -3.5909  1.4247
   98MOL   H18837242   1.964   5.928   6.377  0.1654 -1.3365  2.7484
   98MOL   H18937243   2.122   5.808   6.497  0.2735 -0.0943  0.8784
   98MOL   H19037244   2.247   5.937   6.482 -0.6188  0.7832 -0.7722
   98MOL   H19137245   2.180   5.852   6.342 -0.3379 -0.9013  0.9222
   98MOL   C19237246   2.150   6.321   6.000  0.5268  0.2499  0.0469
   98MOL   C19337247   2.208   6.231   5.885  0.9334 -0.2545  0.4846
   98MOL   C19437248   2.345   6.270   5.834 -0.2953  0.0440 -0.3075
   98MOL   C19537249   2.467   6.236   5.914  0.5971  0.1833  0.4560
   98MOL   C19637250   2.602   6.276   5.846 -0.7526 -0.3161 -0.5896
   98MOL   C19737251   2.723   6.205   5.902  0.6677 -0.1385  0.3336
   98MOL   O19837252   2.130   6.251   5.766  0.2500  0.2104  0.0248
   98MOL   H19937253   2.108   6.416   5.967 -0.4455 -0.4235 -0.7008
   98MOL   H20037254   2.233   6.350   6.064  0.1748  0.7817  0.2713
   98MOL   H20137255   2.212   6.126   5.912  0.2968 -0.8473 -1.6288
   98MOL   H20237256   2.353   6.217   5.739  0.9019  0.0159 -0.2056
   98MOL   H20337257   2.356   6.374   5.804  1.4130  0.4193  1.4687
   98MOL   H20437258   2.468   6.129   5.937  1.4968  0.5200  2.1218
   98MOL   H20537259   2.465   6.299   6.003 -1.7448  0.2806  0.3475
   98MOL   H20637260   2.602   6.240   5.743  2.5034  1.2101 -1.1839
   98MOL   H20737261   2.614   6.384   5.845  1.8704 -0.5802 -0.3607
   98MOL   H20837262   2.729   6.245   6.004 -0.3571 -1.8424  1.0686
   98MOL   H20937263   2.713   6.097   5.909  1.2559 -0.2215 -0.0660
   98MOL   H21037264   2.813   6.236   5.849  1.7321 -0.8735  1.6642
   98MOL   C21137265   2.005   6.175   5.752  0.0989  0.3427  0.3261
   98MOL   C21237266   1.934   6.235   5.636 -0.1959  0.4487  0.2040
   98MOL   C21337267   1.788   6.186   5.614  0.4385 -0.2685 -0.0934
   98MOL   C21437268   1.705   6.250   5.502  1.0718  0.1633  0.5261
   98MOL   C21537269   1.563   6.195   5.473  0.2319  0.9227  0.6794
   98MOL   C21637270   1.490   6.295   5.377  0.8826  0.5080 -0.5628
   98MOL   O21737271   1.993   6.209   5.512 -0.4315  0.3314 -0.0537
   98MOL   H21837272   1.948   6.191   5.844  0.9347  2.4880  0.5260
   98MOL   H21937273   2.027   6.069   5.750  2.0215  0.7381 -0.4936
   98MOL   H22037274   1.934   6.342   5.657 -1.0064  1.0222 -2.5503
   98MOL   H22137275   1.784   6.081   5.585 -0.8065 -0.3323  0.2645
   98MOL   H22237276   1.730   6.207   5.704 -1.7862  0.0437 -1.5533
   98MOL   H22337277   1.697   6.352   5.539 -0.1615  0.1526  0.3249
   98MOL   H22437278   1.766   6.257   5.413  0.0531  0.1433 -0.1874
   98MOL   H22537279   1.571   6.096   5.427  1.4270  0.9220  0.8922
   98MOL   H22637280   1.503   6.183   5.563 -0.6760 -1.3701 -0.1930
   98MOL   H22737281   1.474   6.383   5.439  1.4496  0.5853 -0.5290
   98MOL   H22837282   1.390   6.261   5.351  1.5415 -0.3448 -2.0297
   98MOL   H22937283   1.551   6.312   5.288 -0.1353  2.3165 -0.9439
   98MOL   C23037284   2.065   6.312   5.445 -0.2818 -0.3920 -0.1444
   98MOL   C23137285   2.213   6.289   5.437  0.2423  0.4142 -0.8682
   98MOL   C23237286   2.280   6.409   5.375  0.3300 -0.3242 -0.7523
   98MOL   C23337287   2.426   6.396   5.335 -0.3308  0.3291  0.1495
   98MOL   C23437288   2.515   6.347   5.448 -0.4132 -0.4274 -0.4824
   98MOL   C23537289   2.545   6.458   5.548 -0.1691  0.4385 -0.3611
   98MOL   O23637290   2.243   6.191   5.336 -0.3975 -0.1317  0.5136
   98MOL   H23737291   2.026   6.322   5.343  2.2032  4.1707 -0.7932
   98MOL   H23837292   2.050   6.408   5.494  0.4845 -0.2521 -0.1806
   98MOL   H23937293   2.247   6.273   5.539 -0.6030  2.6251 -0.2037
   98MOL   H24037294   2.275   6.496   5.441 -0.7951  0.0452 -1.3113
   98MOL   H24137295   2.217   6.440   5.291 -0.7773  0.5070  0.3718
   98MOL   H24237296   2.467   6.493   5.306 -2.9159  1.2336 -0.5263
   98MOL   H24337297   2.437   6.325   5.253  3.1844  1.8531 -0.8036
   98MOL   H24437298   2.469   6.252   5.476 -0.0874  0.0577  1.7666
   98MOL   H24537299   2.613   6.317   5.412 -0.0012  2.0964 -1.5508
   98MOL   H24637300   2.548   6.557   5.504  1.4720  1.3906  1.8330
   98MOL   H24737301   2.643   6.442   5.594 -0.1989 -0.3177 -0.5412
   98MOL   H24837302   2.468   6.448   5.624 -0.4139 -0.7793 -0.7515
   98MOL   C24937303   2.251   6.061   5.373  0.3887  0.9116  0.4136
   98MOL   C25037304   2.298   5.980   5.258  0.9228  0.1599  0.0029
   98MOL   C25137305   2.284   5.831   5.292 -0.1134 -0.3726  0.7438
   98MOL   C25237306   2.317   5.726   5.189 -0.4723 -0.2227  0.3421
   98MOL   C25337307   2.282   5.580   5.237  0.5148  0.2382  0.9490
   98MOL   C25437308   2.289   5.482   5.121  0.6729  0.4102 -0.2737
   98MOL   O25537309   2.433   6.006   5.231  0.3728 -0.0416  0.6767
   98MOL   H25637310   2.307   6.043   5.464 -0.0397  0.7102  0.6389
   98MOL   H25737311   2.151   6.040   5.410 -0.8227  2.8830 -1.6284
   98MOL   H25837312   2.244   5.997   5.165  2.3554  1.9358 -0.5343
   98MOL   H25937313   2.356   5.814   5.372 -0.3676  3.6013  1.9054
   98MOL   H26037314   2.182   5.811   5.325 -0.5608  0.7992  0.1079
   98MOL   H26137315   2.254   5.742   5.102  0.3815 -1.1516 -0.4624
   98MOL   H26237316   2.420   5.730   5.154 -0.5085 -1.8721  0.0012
   98MOL   H26337317   2.354   5.546   5.312 -0.7279  0.9658  2.5174
   98MOL   H26437318   2.191   5.578   5.296  0.9867 -0.8234  1.6512
   98MOL   H26537319   2.212   5.512   5.049  0.1374 -0.3403 -0.0183
   98MOL   H26637320   2.275   5.382   5.162  1.1576  0.4578  0.0115
   98MOL   H26737321   2.386   5.483   5.070  0.2574 -1.0585 -1.1381
   98MOL   C26837322   2.465   6.053   5.101 -0.1464 -0.1096  0.2792
   98MOL   C26937323   2.612   6.088   5.095 -1.1039  0.4565  0.8403
   98MOL   C27037324   2.644   6.187   4.976 -0.4139  0.4545  0.0670
   98MOL   C27137325   2.784   6.246   4.957 -0.6671 -0.2482 -0.0388
   98MOL   C27237326   2.791   6.360   4.852 -0.4701  0.1989  0.1317
   98MOL   C27337327   2.935   6.397   4.813 -0.8866 -0.3343  0.1910
   98MOL   O27437328   2.691   5.970   5.066 -0.1996  0.1739 -1.0409
   98MOL   H27537329   2.416   6.148   5.078  0.0274 -0.4782 -1.7581
   98MOL   H27637330   2.432   5.988   5.020  0.2748 -0.5095  0.4263
   98MOL   H27737331   2.642   6.145   5.183  0.6126  0.9598 -0.0471
   98MOL   H27837332   2.615   6.141   4.881  2.1635 -4.2691  1.4306
   98MOL   H27937333   2.577   6.273   4.986  1.8859  2.6000 -2.1547
   98MOL   H28037334   2.798   6.296   5.054  0.2032 -3.3170  1.4757
   98MOL   H28137335   2.865   6.175   4.942 -0.7063 -0.0878 -1.0168
   98MOL   H28237336   2.744   6.318   4.763 -0.0005 -1.4036  0.6265
   98MOL   H28337337   2.739   6.450   4.886  0.5479 -0.3513  3.3589
   98MOL   H28437338   2.936   6.461   4.725 -0.7992  2.3159  2.0688
   98MOL   H28537339   2.981   6.457   4.891  0.8701  1.0643 -1.8478
   98MOL   H28637340   2.994   6.310   4.783 -0.5883  0.9750 -3.1911
   98MOL   C28737341   2.715   5.896   5.187 -0.0130  0.6279 -0.6870
   98MOL   C28837342   2.823   5.793   5.152 -0.1048 -0.1192 -0.6085
   98MOL   C28937343   2.832   5.673   5.252  0.1266 -0.4861 -0.9767
   98MOL   C29037344   2.700   5.612   5.298  0.3676 -0.5502  0.6992
   98MOL   C29137345   2.722   5.473   5.374  0.3286  0.5501 -0.1065
   98MOL   C29237346   2.600   5.410   5.419  1.0181  0.5894 -0.5223
   98MOL   O29337347   2.943   5.860   5.172  0.4499  0.1345  0.1362
   98MOL   H29437348   2.619   5.852   5.215  0.5585 -1.0052 -1.2529
   98MOL   H29537349   2.744   5.957   5.273  1.6606 -0.3008 -0.5710
   98MOL   H29637350   2.811   5.744   5.055  0.2536 -3.1792  0.8356
   98MOL   H29737351   2.900   5.613   5.191  1.3116  2.5072 -2.7241
   98MOL   H29837352   2.899   5.688   5.336 -0.6018  0.7576 -0.5991
   98MOL   H29937353   2.643   5.683   5.358  0.3586  1.6192 -1.8090
   98MOL   H30037354   2.638   5.601   5.209 -1.0089 -1.9719  1.7833
   98MOL   H30137355   2.771   5.492   5.470  0.0511 -2.1190  0.5919
   98MOL   H30237356   2.785   5.409   5.312 -0.8181 -1.3321  0.6382
   98MOL   H30337357   2.552   5.460   5.503  0.0166 -1.2906  0.0435
   98MOL   H30437358   2.524   5.401   5.342  0.5147  0.1196  0.0267
   98MOL   H30537359   2.612   5.307   5.454 -1.9333  0.2743 -0.3391
   98MOL   C30637360   3.013   5.905   5.057 -0.0000 -0.6330  0.4579
   98MOL   C30737361   3.132   5.990   5.095  0.0227  0.8306  0.8146
   98MOL   C30837362   3.172   6.081   4.984 -0.6983  0.0287 -0.8039
   98MOL   C30937363   3.289   6.166   5.021 -0.8417  0.6906 -0.4679
   98MOL   C31037364   3.336   6.278   4.925  0.1345  0.3503 -1.0337
   98MOL   C31137365   3.426   6.243   4.806 -0.6144 -0.0599 -0.3355
   98MOL   O31237366   3.246   5.920   5.145  0.0596 -0.4009 -0.0495
   98MOL   H31337367   3.045   5.815   5.004  0.2945  0.0412 -0.5334
   98MOL   H31437368   2.942   5.963   4.998 -0.2543  0.4540  1.7977
   98MOL   H31537369   3.107   6.049   5.183 -1.7415 -0.4169  1.1611
   98MOL   H31637370   3.084   6.140   4.958  0.4766  1.5523 -1.4583
   98MOL   H31737371   3.198   6.025   4.894 -1.1869 -1.6773  0.1154
   98MOL   H31837372   3.279   6.206   5.122  0.8650 -1.3845  0.5642
   98MOL   H31937373   3.370   6.099   5.049 -2.6664 -0.5438  2.0191
   98MOL   H32037374   3.399   6.344   4.985 -0.4419 -0.1061  0.0940
   98MOL   H32137375   3.255   6.339   4.884 -1.4982 -2.0066 -1.3977
   98MOL   H32237376   3.505   6.172   4.831 -1.2725 -0.1802  1.3941
   98MOL   H32337377   3.370   6.201   4.722 -1.7586  0.4167  0.1946
   98MOL   H32437378   3.484   6.325   4.762 -1.4564  0.8901  0.3215
   98MOL   C32537379   3.231   5.839   5.260  0.3088 -0.3306 -0.2141
   98MOL   C32637380   3.367   5.791   5.304  0.0086 -0.0832  0.8202
   98MOL   C32737381   3.470   5.911   5.316 -0.4818  0.0138 -0.2865
   98MOL   C32837382   3.608   5.869   5.374  0.4159  0.7855  0.4478
   98MOL   C32937383   3.698   5.988   5.402 -0.2958  0.0159  0.6307
   98MOL   C33037384   3.847   5.961   5.408  0.3266  0.0362  0.2670
   98MOL   O33137385   3.407   5.694   5.210 -0.2001  0.4274  0.0878
   98MOL   H33237386   3.156   5.762   5.241  1.6487 -1.8464  0.4759
   98MOL   H33337387   3.196   5.894   5.348  1.1669 -2.5046  1.5274
   98MOL   H33437388   3.367   5.744   5.401  0.1089 -2.5821 -0.3604
   98MOL   H33537389   3.476   5.971   5.225  0.3287  2.5161  1.3480
   98MOL   H33637390   3.421   5.976   5.389  1.0600  2.7751 -1.6142
   98MOL   H33737391   3.587   5.810   5.463  0.2939 -1.1143 -0.8096
   98MOL   H33837392   3.661   5.794   5.315 -1.2027  0.7318 -0.9867
   98MOL   H33937393   3.702   6.051   5.313 -0.5079 -0.6539  0.1436
   98MOL   H34037394   3.669   6.051   5.486  1.6409  1.4330  0.2482
   98MOL   H34137395   3.888   6.060   5.429 -0.8252  0.6783 -0.4682
   98MOL   H34237396   3.870   5.896   5.493 -0.0024  0.4804  0.6949
   98MOL   H34337397   3.893   5.918   5.319 -3.2205 -0.2438 -1.5142
   98MOL   C34437398   3.360   5.563   5.251  0.2313  0.1444 -0.6611
   98MOL   C34537399   3.362   5.451   5.146 -0.2412  0.2296 -0.0317
   98MOL   C34637400   3.498   5.383   5.118 -0.0860 -0.1252 -1.0924
   98MOL   C34737401   3.491   5.251   5.044 -0.0134 -0.0333 -0.4314
   98MOL   C34837402   3.620   5.209   4.968  0.1734 -0.2941 -0.3943
   98MOL   C34937403   3.669   5.301   4.852 -0.0235 -0.3216 -0.0412
   98MOL   O35037404   3.283   5.346   5.200  0.5578  0.1527 -0.2060
   98MOL   H35137405   3.254   5.569   5.276 -0.4713 -0.7084 -3.2452
   98MOL   H35237406   3.401   5.536   5.348 -0.3807  3.2745  0.5155
   98MOL   H35337407   3.309   5.470   5.053  1.3038 -2.0259 -1.4318
   98MOL   H35437408   3.558   5.362   5.207 -3.7608 -2.7150  0.9095
   98MOL   H35537409   3.556   5.458   5.063 -2.2608 -0.0663 -3.3605
   98MOL   H35637410   3.418   5.257   4.963 -1.2568 -2.1397  0.4859
   98MOL   H35737411   3.474   5.175   5.120  1.8814  1.0811  1.1548
   98MOL   H35837412   3.602   5.119   4.909 -0.7578 -0.0277 -0.5199
   98MOL   H35937413   3.698   5.187   5.041 -0.8533  0.4109  0.9393
   98MOL   H36037414   3.694   5.405   4.877 -0.9217 -0.2116  0.4495
   98MOL   H36137415   3.582   5.311   4.787  0.6771  1.9989 -0.6957
   98MOL   H36237416   3.749   5.249   4.800  1.5523 -1.1578  3.0607
   98MOL   C36337417   3.165   5.314   5.134 -0.2059 -0.4068  0.0983
   98MOL   C36437418   3.112   5.194   5.207  0.0817 -0.2628 -0.1758
   98MOL   C36537419   3.050   5.234   5.345  0.0516 -0.1876  0.6391
   98MOL   C36637420   3.029   5.107   5.432 -0.6077 -0.6220  0.0572
   98MOL   C36737421   2.979   5.133   5.574 -0.7752  0.2000  0.6836
   98MOL   C36837422   2.976   4.999   5.646  0.6482 -0.2022  0.8212
   98MOL   O36937423   3.010   5.130   5.144  0.2504  0.1315 -0.3853
   98MOL   H37037424   3.191   5.294   5.030  0.0062  1.6384 -0.2617
   98MOL   H37137425   3.101   5.402   5.136  1.4808  0.8338  0.5616
   98MOL   H37237426   3.195   5.123   5.207 -0.3723 -0.8126 -1.3306
   98MOL   H37337427   3.116   5.298   5.402  1.0810 -0.5294 -0.1468
   98MOL   H37437428   2.957   5.288   5.326 -2.0904 -3.2926  1.9033
   98MOL   H37537429   2.966   5.030   5.386  0.3835 -2.4657  1.7148
   98MOL   H37637430   3.126   5.059   5.438 -0.8699 -0.9468  2.0889
   98MOL   H37737431   3.046   5.199   5.630 -1.1060  1.4851 -0.4083
   98MOL   H37837432   2.883   5.184   5.579 -1.0759  0.0275 -2.3090
   98MOL   H37937433   2.942   4.925   5.573  0.0853 -0.7501  1.6289
   98MOL   H38037434   3.074   4.968   5.683  0.8613 -2.0110 -1.1303
   98MOL   H38137435   2.901   5.010   5.725 -0.7734  0.2943 -0.5800
   98MOL   H38237436   3.045   5.094   5.064 -1.2529 -0.0425 -0.9680
   99MOL     C137437   1.492   6.200   2.603  0.1327 -0.6649 -0.1740
   99MOL     C237438   1.376   6.148   2.686 -0.0111 -0.1009 -0.3484
   99MOL     C337439   1.387   6.007   2.732 -0.4731  0.3294  0.1203
   99MOL     C437440   1.266   5.951   2.802  0.1315 -0.1373  0.5595
   99MOL     C537441   1.267   5.799   2.828 -0.3672  0.2781 -0.6996
   99MOL     C637442   1.368   5.756   2.932 -0.0753 -0.1198 -0.4096
   99MOL     O737443   1.355   6.229   2.803 -0.1087  0.1383  0.3171
   99MOL     H837444   1.584   6.220   2.657 -0.6950  0.0602  0.9739
   99MOL     H937445   1.464   6.299   2.567 -0.3571 -1.4358 -2.0071
   99MOL    H1037446   1.284   6.159   2.628  0.0795 -0.5922 -0.5861
   99MOL    H1137447   1.422   5.945   2.649  2.3272  0.1431  1.3854
   99MOL    H1237448   1.466   5.990   2.805 -0.0130 -0.4194 -0.5494
   99MOL    H1337449   1.236   6.002   2.894 -0.2084  1.4187 -0.4003
   99MOL    H1437450   1.174   5.958   2.744 -1.3561 -2.2100  2.5670
   99MOL    H1537451   1.170   5.764   2.865 -0.0183 -1.0736 -1.0463
   99MOL    H1637452   1.295   5.748   2.736  2.0719 -2.4151  1.4239
   99MOL    H1737453   1.455   5.817   2.957 -0.2125  0.5596 -1.5341
   99MOL    H1837454   1.310   5.729   3.020  0.8870  4.5442  1.8281
   99MOL    H1937455   1.409   5.660   2.900  0.8935 -0.3048  1.3302
   99MOL    H2037456   1.524   6.141   2.517  1.3040 -1.9879  1.1593
   99MOL    C2137457   1.270   6.349   2.795  0.8003  0.1064 -0.6964
   99MOL    C2237458   1.273   6.409   2.936  0.4025  0.2784  0.4792
   99MOL    C2337459   1.203   6.546   2.940 -0.1760  0.6200  0.8076
   99MOL    C2437460   1.232   6.639   3.054  0.1833  0.2514  0.4631
   99MOL    C2537461   1.363   6.720   3.021  0.4451  0.4031 -0.7846
   99MOL    C2637462   1.417   6.810   3.128  0.3901 -0.0702  0.4636
   99MOL    O2737463   1.210   6.319   3.031 -0.1124  0.0941  0.0872
   99MOL    H2837464   1.297   6.419   2.716 -3.7963  0.0625 -2.4375
   99MOL    H2937465   1.169   6.320   2.769 -0.1084  0.0300  2.7007
   99MOL    H3037466   1.380   6.427   2.946  0.5212 -0.6952  0.9958
   99MOL    H3137467   1.097   6.536   2.919  0.3734  0.9645 -2.4947
   99MOL    H3237468   1.240   6.596   2.850 -0.2170 -2.4147 -0.9350
   99MOL    H3337469   1.252   6.582   3.145  1.6919  1.1376  0.7079
   99MOL    H3437470   1.148   6.707   3.066 -0.0936  0.1333 -0.7502
   99MOL    H3537471   1.444   6.647   3.016  0.5804  0.4762  0.1510
   99MOL    H3637472   1.359   6.777   2.928 -1.8791 -1.2865 -1.7473
   99MOL    H3737473   1.496   6.877   3.096 -0.2552  0.0091 -1.0135
   99MOL    H3837474   1.444   6.751   3.216  2.4336  0.7784  0.4304
   99MOL    H3937475   1.331   6.872   3.152  1.0247  1.5250 -1.2984
   99MOL    C4037476   1.301   6.245   3.112 -0.7157  0.2247  0.1888
   99MOL    C4137477   1.229   6.178   3.236 -0.4935 -0.3334 -0.8592
   99MOL    C4237478   1.334   6.152   3.341 -0.3765 -0.2309  0.4950
   99MOL    C4337479   1.283   6.099   3.478  0.2118 -0.5389 -0.5717
   99MOL    C4437480   1.392   6.121   3.593  0.4162 -0.3940  0.0968
   99MOL    C4537481   1.398   6.263   3.645 -0.2452 -0.2998  0.4780
   99MOL    O4637482   1.182   6.058   3.177 -0.6125 -0.4807  0.4652
   99MOL    H4737483   1.382   6.307   3.152  0.3143 -0.8795 -0.1305
   99MOL    H4837484   1.356   6.165   3.063  0.3822  1.3971 -0.5425
   99MOL    H4937485   1.143   6.237   3.268  0.2978 -0.4699  1.6028
   99MOL    H5037486   1.402   6.076   3.301  0.6653  0.1072  1.5835
   99MOL    H5137487   1.394   6.239   3.366 -1.1127  0.5721 -0.4778
   99MOL    H5237488   1.265   5.993   3.460  1.0312 -1.0361  1.3535
   99MOL    H5337489   1.196   6.158   3.506  0.1426 -0.8369 -0.1540
   99MOL    H5437490   1.372   6.055   3.677  0.8440 -2.8689 -1.6642
   99MOL    H5537491   1.489   6.083   3.559  1.1900  0.5619  1.2099
   99MOL    H5637492   1.303   6.292   3.690 -1.4641  0.2994 -2.3951
   99MOL    H5737493   1.472   6.272   3.724 -0.0162  0.7330  0.1587
   99MOL    H5837494   1.426   6.335   3.569  0.7882 -0.5149  0.6495
   99MOL    C5937495   1.094   5.974   3.254 -0.6659  0.3222  0.4190
   99MOL    C6037496   1.022   5.894   3.137 -0.7283  0.0534 -0.8460
   99MOL    C6137497   0.975   5.760   3.187 -0.3462 -0.0932  0.6137
   99MOL    C6237498   0.878   5.694   3.094  0.4601 -0.0172  0.1539
   99MOL    C6337499   0.821   5.564   3.155 -0.0661 -0.5159 -0.0799
   99MOL    C6437500   0.900   5.440   3.103 -0.0058 -0.2470 -0.7323
   99MOL    O6537501   0.911   5.976   3.088 -0.2933 -0.0246  0.3093
   99MOL    H6637502   1.025   6.027   3.319 -1.3108 -0.0662  0.0539
   99MOL    H6737503   1.144   5.898   3.314  0.3566  1.1236  0.6067
   99MOL    H6837504   1.091   5.886   3.053  0.7726 -1.6370  0.5101
   99MOL    H6937505   0.932   5.780   3.285  1.6511  0.3531  1.4229
   99MOL    H7037506   1.068   5.703   3.189 -0.9225 -1.0674  0.1444
   99MOL    H7137507   0.921   5.674   2.997 -2.3274  1.1607 -1.3931
   99MOL    H7237508   0.796   5.762   3.068 -0.7380 -0.4865  2.5299
   99MOL    H7337509   0.719   5.551   3.118  0.1763 -1.6143 -0.3730
   99MOL    H7437510   0.823   5.559   3.264  1.6808  0.9987 -0.0223
   99MOL    H7537511   1.002   5.446   3.140 -0.9205 -0.7710  1.9641
   99MOL    H7637512   0.848   5.351   3.139 -0.1160  0.2539  0.3536
   99MOL    H7737513   0.899   5.433   2.994  0.5151 -0.4109 -0.7248
   99MOL    C7837514   0.925   6.038   2.962 -0.5508 -0.2101  0.6824
   99MOL    C7937515   0.809   6.124   2.920  0.1573 -0.4898  0.4267
   99MOL    C8037516   0.825   6.254   3.001 -0.0364  0.3113 -0.2440
   99MOL    C8137517   0.701   6.346   2.979  0.0950 -0.5485 -0.3501
   99MOL    C8237518   0.692   6.473   3.057  0.6481  0.1106  0.1972
   99MOL    C8337519   0.826   6.551   3.040 -0.1278  0.1503 -0.5732
   99MOL    O8437520   0.689   6.056   2.952  0.4163  0.1599  0.2377
   99MOL    H8537521   0.948   5.955   2.895 -2.4573 -0.4875  0.3432
   99MOL    H8637522   1.015   6.098   2.958  0.0981 -1.2565 -0.9577
   99MOL    H8737523   0.825   6.136   2.813  0.4946 -1.5236  0.3529
   99MOL    H8837524   0.829   6.220   3.104  0.1135  2.9973  0.6757
   99MOL    H8937525   0.915   6.306   2.969  0.3172 -0.3510 -0.3284
   99MOL    H9037526   0.614   6.282   3.000 -0.0723 -1.0935 -2.5445
   99MOL    H9137527   0.700   6.382   2.876  2.0760  2.2171  0.5612
   99MOL    H9237528   0.601   6.525   3.026  0.7939  0.6781  0.6976
   99MOL    H9337529   0.674   6.441   3.160 -0.2623  1.6105  0.5153
   99MOL    H9437530   0.840   6.637   3.106 -1.0387 -1.2296  1.4503
   99MOL    H9537531   0.840   6.586   2.938 -2.8460  0.4801 -0.8856
   99MOL    H9637532   0.912   6.489   3.066 -0.2885 -0.1832 -0.8413
   99MOL    C9737533   0.648   5.948   2.878  0.5607 -0.2293 -0.0155
   99MOL    C9837534   0.501   5.934   2.845 -0.3589 -0.2673 -0.7634
   99MOL    C9937535   0.408   5.924   2.967  0.6189 -0.0216 -0.0205
   99MOL   C10037536   0.254   5.900   2.952 -0.3454 -0.0716 -0.4283
   99MOL   C10137537   0.204   5.778   2.869  1.2179 -0.1651 -0.0060
   99MOL   C10237538   0.249   5.651   2.930  0.4363  0.2294 -0.8117
   99MOL   O10337539   0.447   6.016   2.739 -0.6642  0.1878 -0.7541
   99MOL   H10437540   0.684   5.856   2.924  5.0928  0.8349 -1.1526
   99MOL   H10537541   0.699   5.948   2.781 -0.5604 -0.9823 -0.6202
   99MOL   H10637542   0.502   5.833   2.803 -0.7680  0.3842 -2.3818
   99MOL   H10737543   0.413   6.012   3.031 -1.7699  0.9158 -1.0466
   99MOL   H10837544   0.450   5.841   3.025  0.1921 -0.9969 -1.0924
   99MOL   H10937545   0.214   5.992   2.909  0.8289  1.6182  1.9316
   99MOL   H11037546   0.204   5.887   3.048  0.5049  0.1900  0.0591
   99MOL   H11137547   0.240   5.773   2.766 -1.9463 -0.5036 -1.1416
   99MOL   H11237548   0.096   5.779   2.855  1.1519 -0.8947  0.3851
   99MOL   H11337549   0.200   5.564   2.885  1.5352 -1.3188  0.9505
   99MOL   H11437550   0.355   5.628   2.922  0.6376  0.0510  1.9598
   99MOL   H11537551   0.221   5.648   3.035  1.6647 -2.7865 -0.5269
   99MOL   C11637552   0.424   6.149   2.770  0.1680 -0.5121 -0.7341
   99MOL   C11737553   0.390   6.235   2.644 -0.1615  0.2838  0.2384
   99MOL   C11837554   0.436   6.378   2.669  0.6148 -0.0588  0.0349
   99MOL   C11937555   0.468   6.462   2.540  0.7595  0.7852  0.2624
   99MOL   C12037556   0.480   6.610   2.579  0.0948 -0.0011  0.0522
   99MOL   C12137557   0.601   6.645   2.665  0.8319 -0.2904 -0.2325
   99MOL   O12237558   0.251   6.237   2.614 -0.4450  0.4485 -0.4669
   99MOL   H12337559   0.352   6.158   2.851  0.1610 -1.5399 -0.6223
   99MOL   H12437560   0.512   6.194   2.816 -0.3162 -0.2616 -0.0411
   99MOL   H12537561   0.452   6.190   2.566  1.8418  2.0686  0.7485
   99MOL   H12637562   0.359   6.431   2.725  0.7138 -1.7256  1.7691
   99MOL   H12737563   0.527   6.381   2.730 -1.0094 -1.3288  2.5760
   99MOL   H12837564   0.381   6.447   2.475  1.5088 -0.2733 -0.5226
   99MOL   H12937565   0.558   6.423   2.492 -0.3428 -1.3314 -0.1737
   99MOL   H13037566   0.487   6.665   2.485  1.6672 -1.9297 -0.9830
   99MOL   H13137567   0.393   6.654   2.628  1.2418  1.7217  0.5689
   99MOL   H13237568   0.615   6.753   2.659  1.3415 -0.4188 -1.4916
   99MOL   H13337569   0.584   6.627   2.771 -1.2937 -0.4125 -0.5661
   99MOL   H13437570   0.689   6.583   2.647  1.1157 -0.5435  1.8725
   99MOL   C13537571   0.191   6.127   2.560  0.5539 -1.0147  0.1272
   99MOL   C13637572   0.045   6.111   2.589  0.5015  0.3397  0.1064
   99MOL   C13737573   0.010   5.962   2.585  0.4076  0.8570 -0.5190
   99MOL   C13837574   0.011   5.897   2.444 -0.5986  0.4512  0.4642
   99MOL   C13937575   7.746   5.748   2.440  0.3110 -0.7291 -0.2740
   99MOL   C14037576   7.604   5.729   2.443 -0.0119  0.9873  0.1115
   99MOL   O14137577   7.749   6.181   2.494 -0.0642 -0.2280  0.0744
   99MOL   H14237578   0.199   6.119   2.451 -2.5021 -0.3725 -0.1782
   99MOL   H14337579   0.248   6.045   2.605  0.6247 -1.5557 -0.9033
   99MOL   H14437580   0.028   6.147   2.690  0.1777  3.3002 -0.9629
   99MOL   H14537581   0.082   5.896   2.634 -0.4460 -2.1841 -3.1668
   99MOL   H14637582   7.702   5.948   2.639  0.8182  1.1484  0.2757
   99MOL   H14737583   0.113   5.899   2.405 -0.7097  0.8450  0.2058
   99MOL   H14837584   7.736   5.957   2.377 -1.0652 -0.3362  0.1765
   99MOL   H14937585   0.008   5.695   2.522  1.0527 -0.6420 -0.6433
   99MOL   H15037586   7.779   5.693   2.352  0.2862  0.6143 -1.1387
   99MOL   H15137587   7.579   5.623   2.443 -0.7477  1.1488 -0.7369
   99MOL   H15237588   7.564   5.766   2.537 -1.2880  2.0827 -0.8297
   99MOL   H15337589   7.560   5.770   2.351 -2.5989 -0.1418  0.8018
   99MOL   C15437590   7.770   6.321   2.487  0.1930 -0.5196  0.4652
   99MOL   C15537591   7.650   6.368   2.393 -0.4280  0.5786 -1.0773
   99MOL   C15637592   7.609   6.510   2.417 -0.0862 -0.3552  0.3545
   99MOL   C15737593   7.466   6.551   2.363  0.2207 -0.9202 -0.7548
   99MOL   C15837594   7.426   6.694   2.396  0.2385  0.6692  0.5366
   99MOL   C15937595   7.283   6.717   2.341  0.4369 -0.8537 -0.0257
   99MOL   O16037596   7.646   6.337   2.260 -0.4087 -0.5888  0.2925
   99MOL   H16137597   0.081   6.350   2.446 -0.5131  0.8492 -0.2569
   99MOL   H16237598   7.758   6.356   2.589 -2.3008  0.9109 -0.2835
   99MOL   H16337599   7.561   6.321   2.435 -0.7645  1.7591 -0.4490
   99MOL   H16437600   7.688   6.567   2.369  0.1075 -0.8202  0.1141
   99MOL   H16537601   7.610   6.543   2.521 -2.0937  1.1909 -0.0683
   99MOL   H16637602   7.385   6.491   2.407  2.2268 -1.0491  2.9408
   99MOL   H16737603   7.470   6.541   2.255 -0.0130 -0.3462 -0.8172
   99MOL   H16837604   7.426   6.695   2.505 -1.7821 -0.3007  0.5744
   99MOL   H16937605   7.505   6.767   2.379  1.8866 -1.0040  0.7878
   99MOL   H17037606   7.222   6.771   2.413  1.1459  0.7960 -0.6381
   99MOL   H17137607   7.228   6.623   2.332  2.7606 -2.4283  1.5381
   99MOL   H17237608   7.276   6.768   2.245  0.5280 -0.9997 -0.1106
   99MOL   C17337609   7.603   6.207   2.225  0.6019  0.2590 -0.0593
   99MOL   C17437610   7.560   6.195   2.077 -0.3400 -0.1220  1.0839
   99MOL   C17537611   7.614   6.067   2.019  0.0200  1.0692  0.0088
   99MOL   C17637612   7.559   6.031   1.877  0.2416  0.3106 -0.1057
   99MOL   C17737613   7.588   5.886   1.835 -0.2337  0.2377  0.1431
   99MOL   C17837614   7.509   5.769   1.894 -0.6017 -0.1751  0.9009
   99MOL   O17937615   7.422   6.193   2.078  0.7220  0.5680 -0.1354
   99MOL   H18037616   7.530   6.166   2.296  1.3371  0.6536  0.9385
   99MOL   H18137617   7.687   6.140   2.243 -0.8427 -2.0545 -1.7160
   99MOL   H18237618   7.604   6.282   2.029  1.4383 -0.9367  1.2110
   99MOL   H18337619   7.723   6.065   2.012  0.0894 -0.6769  1.2913
   99MOL   H18437620   7.595   5.981   2.082 -0.2873 -0.7267 -2.4459
   99MOL   H18537621   7.453   6.053   1.872  0.2794  0.1143 -2.1845
   99MOL   H18637622   7.601   6.107   1.811  0.1836  0.4008 -0.0406
   99MOL   H18737623   7.567   5.881   1.728 -2.0811  1.7730  0.4115
   99MOL   H18837624   7.691   5.855   1.854 -0.3982  0.4350  1.4379
   99MOL   H18937625   7.525   5.758   2.001  2.4699  0.2793  0.5350
   99MOL   H19037626   7.555   5.678   1.854  0.2138  1.7724 -2.9279
   99MOL   H19137627   7.402   5.766   1.874 -0.2684 -1.2973 -0.8939
   99MOL   C19237628   7.353   6.316   2.067 -0.0325  0.9975 -0.2254
   99MOL   C19337629   7.203   6.302   2.091 -0.2543  0.3085 -0.1252
   99MOL   C19437630   7.124   6.413   2.026 -0.3523 -0.3170 -0.2845
   99MOL   C19537631   6.972   6.406   2.047 -0.0934  0.0295  0.1737
   99MOL   C19637632   6.903   6.282   1.986 -0.4899 -0.5487  0.4142
   99MOL   C19737633   6.752   6.294   1.984  0.3248 -0.1132 -0.6019
   99MOL   O19837634   7.185   6.310   2.237  0.2847 -0.3348  0.3954
   99MOL   H19937635   7.397   6.382   2.141  0.7183  1.2155 -0.8539
   99MOL   H20037636   7.379   6.355   1.968  1.2022  0.6783 -0.0372
   99MOL   H20137637   7.165   6.216   2.035 -0.2766  0.8570 -0.9716
   99MOL   H20237638   7.163   6.507   2.064 -0.6327  0.6764 -2.3669
   99MOL   H20337639   7.148   6.403   1.920 -0.0214 -0.3777 -0.2049
   99MOL   H20437640   6.917   6.489   2.004 -2.5926  0.1063  3.3071
   99MOL   H20537641   6.953   6.408   2.154 -2.0857  0.2107 -0.1763
   99MOL   H20637642   6.944   6.265   1.886 -1.3687 -0.4678  0.0308
   99MOL   H20737643   6.936   6.198   2.048  0.2763 -0.3147  0.3326
   99MOL   H20837644   6.709   6.371   1.921  1.5224  0.8512 -0.2669
   99MOL   H20937645   6.703   6.205   1.944  0.6811 -0.9686  0.8228
   99MOL   H21037646   6.708   6.307   2.082  0.5576 -1.4474 -0.3046
   99MOL   C21137647   7.192   6.182   2.285 -0.0516 -0.1276 -0.1921
   99MOL   C21237648   7.182   6.176   2.441 -0.2577  0.1584  0.4291
   99MOL   C21337649   7.257   6.046   2.484 -0.5400 -0.1568  0.7466
   99MOL   C21437650   7.276   6.029   2.637 -0.4702 -0.0313 -0.7396
   99MOL   C21537651   7.146   5.985   2.709  0.1593 -0.1131  0.4845
   99MOL   C21637652   7.171   5.948   2.856 -0.1481 -0.5872 -0.3512
   99MOL   O21737653   7.048   6.171   2.487 -0.4647  0.4983  0.7177
   99MOL   H21837654   7.285   6.145   2.241  0.5133  2.4645 -1.2282
   99MOL   H21937655   7.112   6.123   2.240 -0.4395  1.7609 -2.0044
   99MOL   H22037656   7.246   6.256   2.477 -1.1590  1.0733  0.0123
   99MOL   H22137657   7.208   5.961   2.436  0.5530  0.3397 -1.2882
   99MOL   H22237658   7.358   6.045   2.443 -1.9790  0.9310 -3.1371
   99MOL   H22337659   7.343   5.945   2.656 -3.7523 -2.2521  1.5648
   99MOL   H22437660   7.324   6.114   2.686  0.1544 -0.5902 -0.3630
   99MOL   H22537661   7.072   6.064   2.697  0.6877  0.2547 -0.4122
   99MOL   H22637662   7.097   5.903   2.657  0.4801 -0.0593  0.0995
   99MOL   H22737663   7.089   5.906   2.913 -1.9152  1.8294 -1.0430
   99MOL   H22837664   7.218   6.026   2.915 -0.6046 -2.4221  2.5106
   99MOL   H22937665   7.245   5.867   2.862  0.6772  0.0827 -1.2516
   99MOL   C23037666   6.964   6.279   2.447  0.0630  0.2867 -0.2119
   99MOL   C23137667   6.820   6.254   2.485  0.3671  0.1287 -0.4053
   99MOL   C23237668   6.727   6.365   2.430  0.0635 -0.7446 -0.5569
   99MOL   C23337669   6.576   6.337   2.448  0.6828 -0.5450 -0.0840
   99MOL   C23437670   6.488   6.443   2.382  0.2684 -0.2192  0.1890
   99MOL   C23537671   6.344   6.441   2.439 -0.2846 -0.1802 -0.1099
   99MOL   O23637672   6.788   6.261   2.623 -0.6674 -0.0065 -0.0424
   99MOL   H23737673   6.989   6.368   2.505  0.5312  0.2685 -0.3832
   99MOL   H23837674   6.968   6.291   2.338  0.4388  0.4321 -0.1828
   99MOL   H23937675   6.783   6.158   2.452 -0.7162  0.4140 -0.0467
   99MOL   H24037676   6.754   6.390   2.328  0.1837  2.7109  0.2374
   99MOL   H24137677   6.750   6.459   2.482 -2.8378  0.3370 -1.1185
   99MOL   H24237678   6.556   6.340   2.555  1.0824 -0.4142 -0.0097
   99MOL   H24337679   6.566   6.237   2.407 -0.0737  0.4649 -2.4240
   99MOL   H24437680   6.526   6.541   2.412 -1.0275  0.0544  0.9432
   99MOL   H24537681   6.481   6.436   2.273  1.5374 -1.7551  0.1702
   99MOL   H24637682   6.280   6.503   2.377 -2.5532 -1.1919  1.1618
   99MOL   H24737683   6.355   6.487   2.537  0.0219  0.1044 -0.2784
   99MOL   H24837684   6.297   6.343   2.446 -0.5969  0.0651  1.6697
   99MOL   C24937685   6.851   6.181   2.719 -0.0373 -0.0942  0.2751
   99MOL   C25037686   6.763   6.178   2.846 -0.3198  0.2196 -0.4742
   99MOL   C25137687   6.843   6.155   2.974  0.9814 -0.0149 -0.2030
   99MOL   C25237688   6.757   6.161   3.101  0.1709  0.2345  0.1643
   99MOL   C25337689   6.832   6.199   3.235 -0.5264  0.2708 -0.4656
   99MOL   C25437690   6.734   6.218   3.343  0.2757 -0.0380 -0.5047
   99MOL   O25537691   6.674   6.067   2.834 -0.2308 -0.3206 -0.2466
   99MOL   H25637692   6.858   6.082   2.676  0.7061  0.3146 -0.5674
   99MOL   H25737693   6.949   6.223   2.743  0.8544 -1.4518 -0.8597
   99MOL   H25837694   6.712   6.274   2.855  1.0858  0.9446 -0.0862
   99MOL   H25937695   6.894   6.061   2.956 -1.1607 -0.9867 -1.2372
   99MOL   H26037696   6.914   6.238   2.980 -1.1178  2.0465 -2.7956
   99MOL   H26137697   6.686   6.243   3.097  0.3158  0.3671  0.3338
   99MOL   H26237698   6.702   6.067   3.105 -0.9052  0.7173 -2.4708
   99MOL   H26337699   6.906   6.130   3.275 -0.3399 -0.4051 -1.9611
   99MOL   H26437700   6.885   6.294   3.232  0.2275 -0.1476 -0.3944
   99MOL   H26537701   6.675   6.128   3.359  0.9701 -0.3002  0.6874
   99MOL   H26637702   6.678   6.312   3.342  1.6228  0.7902 -0.8696
   99MOL   H26737703   6.786   6.233   3.438 -3.0600 -0.7265  1.4837
   99MOL   C26837704   6.563   6.082   2.745 -0.6187  0.6433 -0.3389
   99MOL   C26937705   6.457   5.985   2.783 -0.4803 -0.2831  0.3264
   99MOL   C27037706   6.373   5.944   2.653 -0.0406 -0.4534 -0.3553
   99MOL   C27137707   6.282   5.822   2.683 -0.0901 -0.5773 -0.1076
   99MOL   C27237708   6.203   5.761   2.568 -0.2077 -0.3244  0.2840
   99MOL   C27337709   6.269   5.644   2.504  0.0385 -0.8537  0.3091
   99MOL   O27437710   6.363   6.050   2.869 -0.5682  0.5692 -0.0659
   99MOL   H27537711   6.593   6.069   2.640 -1.1668  2.8067 -0.8017
   99MOL   H27637712   6.526   6.184   2.759 -2.5636 -0.0214 -0.5470
   99MOL   H27737713   6.508   5.892   2.812 -0.5786 -1.3116 -2.6057
   99MOL   H27837714   6.309   6.024   2.615  1.1613  0.3549 -0.7072
   99MOL   H27937715   6.442   5.915   2.575  1.1780 -0.6846  0.7897
   99MOL   H28037716   6.336   5.741   2.733  0.3642 -0.2187 -0.0158
   99MOL   H28137717   6.213   5.847   2.763 -0.9226 -0.2170 -0.9183
   99MOL   H28237718   6.102   5.738   2.601 -0.1084 -1.5048 -0.1993
   99MOL   H28337719   6.205   5.840   2.493 -0.3746 -1.8227 -1.3401
   99MOL   H28437720   6.212   5.616   2.415  1.1009 -4.8231  0.7820
   99MOL   H28537721   6.373   5.654   2.474 -0.2422 -0.3930 -0.5062
   99MOL   H28637722   6.268   5.550   2.560 -1.9273 -0.4674  0.9501
   99MOL   C28737723   6.398   6.053   3.005 -0.1806 -1.3208  0.8168
   99MOL   C28837724   6.293   6.104   3.105  0.0351 -0.0095  0.7041
   99MOL   C28937725   6.363   6.156   3.231 -0.5762  0.4898  0.4444
   99MOL   C29037726   6.276   6.251   3.314 -0.7191 -0.0898 -0.6977
   99MOL   C29137727   6.358   6.308   3.437 -0.6327 -0.1189  0.2538
   99MOL   C29237728   6.286   6.433   3.493  0.0882 -0.4040 -0.3634
   99MOL   O29337729   6.204   6.004   3.144 -0.8963  0.9618  0.1122
   99MOL   H29437730   6.480   6.125   3.007 -0.2356 -1.2510  0.4830
   99MOL   H29537731   6.444   5.960   3.038  1.7337 -1.8886 -3.1867
   99MOL   H29637732   6.248   6.191   3.058  0.2902  0.9681  2.2402
   99MOL   H29737733   6.400   6.070   3.287  0.7932  1.7496  1.5369
   99MOL   H29837734   6.449   6.215   3.201  0.0905 -0.4792  0.4318
   99MOL   H29937735   6.243   6.335   3.253  1.6644  0.8883 -0.6948
   99MOL   H30037736   6.187   6.199   3.350 -0.5136  0.1998  0.2467
   99MOL   H30137737   6.453   6.340   3.395 -1.9274  1.3954 -1.6183
   99MOL   H30237738   6.374   6.236   3.516  1.0644  0.5540  0.5394
   99MOL   H30337739   6.284   6.507   3.413 -1.1016 -0.7116 -0.6225
   99MOL   H30437740   6.186   6.412   3.531 -0.6787  2.7616 -0.4948
   99MOL   H30537741   6.340   6.477   3.577 -0.8158  1.1329 -0.5636
   99MOL   C30637742   6.103   5.971   3.056  0.4119 -0.7570 -0.5438
   99MOL   C30737743   6.045   5.839   3.110 -0.1895 -0.2506  0.5702
   99MOL   C30837744   5.933   5.777   3.032  0.0615  0.1906  0.0453
   99MOL   C30937745   5.877   5.646   3.087  0.2952 -0.5492  0.3411
   99MOL   C31037746   5.733   5.616   3.032  0.0804 -0.0408  0.5552
   99MOL   C31137747   5.726   5.598   2.877 -0.2495  0.2855  0.6287
   99MOL   O31237748   5.985   5.877   3.239 -0.7249 -0.1807 -0.3330
   99MOL   H31337749   6.030   6.052   3.043 -0.7105 -1.6066  0.3310
   99MOL   H31437750   6.152   5.952   2.961  1.7148  0.2416 -0.0821
   99MOL   H31537751   6.119   5.759   3.105  1.6026  1.1021  3.6814
   99MOL   H31637752   5.954   5.772   2.925 -1.9221  3.3628 -0.5489
   99MOL   H31737753   5.855   5.854   3.037 -1.0717 -0.8845 -0.6856
   99MOL   H31837754   5.949   5.566   3.071 -1.8922 -2.3823 -0.6155
   99MOL   H31937755   5.880   5.654   3.195 -4.5700  0.7861  0.4964
   99MOL   H32037756   5.645   5.667   3.072  0.8213  1.0644  0.8280
   99MOL   H32137757   5.728   5.522   3.087 -1.5936  1.4062  2.9823
   99MOL   H32237758   5.805   5.528   2.854 -0.0590  0.2485  1.3790
   99MOL   H32337759   5.624   5.561   2.861 -1.2710  2.3785  2.0086
   99MOL   H32437760   5.755   5.680   2.811 -1.8216 -1.0223 -1.7416
   99MOL   C32537761   6.064   5.840   3.350 -0.2832  0.2851 -0.0790
   99MOL   C32637762   6.039   5.942   3.468 -0.7450 -0.4824  0.1218
   99MOL   C32737763   6.137   5.918   3.587 -0.7697 -0.2667  0.5637
   99MOL   C32837764   6.148   6.036   3.689 -0.6235 -0.5869  0.6276
   99MOL   C32937765   6.238   6.000   3.807 -0.9010 -0.7257  0.1682
   99MOL   C33037766   6.247   6.114   3.916 -0.2725  0.5169 -0.2148
   99MOL   O33137767   5.911   5.941   3.518  0.3194 -0.0094  0.3521
   99MOL   H33237768   6.173   5.842   3.340 -0.2889 -1.3047 -0.5580
   99MOL   H33337769   6.031   5.742   3.385  1.0625  0.2621  1.1751
   99MOL   H33437770   6.062   6.043   3.435  2.7268 -1.0753  0.5389
   99MOL   H33537771   6.112   5.820   3.629  0.8837  0.2775  2.8773
   99MOL   H33637772   6.238   5.915   3.546 -0.6940  0.9080  0.6635
   99MOL   H33737773   6.184   6.130   3.649 -2.2274 -0.4838 -0.6235
   99MOL   H33837774   6.052   6.077   3.720  0.4955  1.7423  1.0627
   99MOL   H33937775   6.212   5.898   3.835  3.2417 -2.3817 -1.6158
   99MOL   H34037776   6.334   5.999   3.757 -1.3315 -1.4568 -0.6654
   99MOL   H34137777   6.149   6.117   3.963 -0.1158  0.7995  0.0919
   99MOL   H34237778   6.326   6.105   3.990  0.9199  0.1738 -1.5145
   99MOL   H34337779   6.246   6.212   3.868 -0.5839  0.7939  0.3589
   99MOL   C34437780   5.812   6.014   3.461  0.4384 -0.4143 -0.5233
   99MOL   C34537781   5.695   5.930   3.399 -0.1798 -0.2312  0.5304
   99MOL   C34637782   5.611   5.836   3.490  0.1889  0.2952 -0.2869
   99MOL   C34737783   5.564   5.710   3.414 -0.3098  0.6006 -0.4607
   99MOL   C34837784   5.502   5.619   3.515 -0.1268 -0.2201  0.0724
   99MOL   C34937785   5.450   5.495   3.445  0.4224  0.1666 -0.0282
   99MOL   O35037786   5.606   6.018   3.334  0.0326  0.0249  0.0446
   99MOL   H35137787   5.859   6.075   3.384  1.1648  1.7260  1.5598
   99MOL   H35237788   5.781   6.082   3.540 -1.8574  0.2538 -1.9457
   99MOL   H35337789   5.757   5.873   3.330  1.2662  2.0700 -0.1354
   99MOL   H35437790   5.530   5.892   3.536 -0.6902 -2.5292  1.7065
   99MOL   H35537791   5.681   5.807   3.569  0.5367  2.5040  0.2518
   99MOL   H35637792   5.639   5.667   3.349  0.5685  0.2882  0.7374
   99MOL   H35737793   5.488   5.745   3.345 -0.3302 -0.9048 -1.2098
   99MOL   H35837794   5.419   5.669   3.564  0.3615 -0.6257  1.3247
   99MOL   H35937795   5.579   5.601   3.590  1.4579  3.2794 -0.5668
   99MOL   H36037796   5.361   5.517   3.386  1.4173  0.5226 -1.4097
   99MOL   H36137797   5.406   5.426   3.518  1.4566 -0.1547  0.2951
   99MOL   H36237798   5.528   5.441   3.391 -0.4548 -1.2268  0.0611
   99MOL   C36337799   5.601   5.995   3.198  0.4965 -0.4916  0.2370
   99MOL   C36437800   5.473   6.071   3.136 -0.1395 -0.5921  0.5481
   99MOL   C36537801   5.491   6.227   3.156 -0.8316 -0.0111 -0.9407
   99MOL   C36637802   5.383   6.315   3.088  0.1290  0.2983  0.0651
   99MOL   C36737803   5.417   6.467   3.081  0.9354 -0.2760 -1.0447
   99MOL   C36837804   5.303   6.531   3.000 -0.3901  0.0203  0.7938
   99MOL   O36937805   5.466   6.034   2.998  0.7285 -0.2927  0.3236
   99MOL   H37037806   5.585   5.887   3.188  1.6928 -0.5835 -0.7308
   99MOL   H37137807   5.690   6.014   3.138  0.0158 -1.8523 -0.9549
   99MOL   H37237808   5.379   6.049   3.187 -0.8349 -2.0609 -1.3124
   99MOL   H37337809   5.474   6.251   3.261 -1.5971  0.2742 -1.1242
   99MOL   H37437810   5.591   6.250   3.118 -0.5617  0.9635  0.3023
   99MOL   H37537811   5.357   6.282   2.987 -2.0381  1.5841  0.1536
   99MOL   H37637812   5.298   6.301   3.155  1.2208  1.7579  1.8128
   99MOL   H37737813   5.423   6.513   3.180  1.3143 -0.5248 -0.9491
   99MOL   H37837814   5.512   6.481   3.028  1.0539 -0.8239 -0.9850
   99MOL   H37937815   5.327   6.630   2.963 -0.9992  0.1791  0.8245
   99MOL   H38037816   5.266   6.470   2.917  0.9734  0.0161  0.1742
   99MOL   H38137817   5.220   6.530   3.070 -2.9773 -0.9642 -2.1617
   99MOL   H38237818   5.556   6.034   2.969  0.6738 -1.0389  0.1365
  100MOL     C137819   6.382   4.403   5.813  0.5102 -0.1531 -0.9941
  100MOL     C237820   6.461   4.503   5.903 -0.0450 -0.0881 -0.7371
  100MOL     C337821   6.535   4.436   6.019 -0.1087 -0.5370 -0.4729
  100MOL     C437822   6.589   4.539   6.119  0.5478  0.1587  0.3033
  100MOL     C537823   6.637   4.472   6.244  0.9477 -1.0007  0.1390
  100MOL     C637824   6.706   4.557   6.349  0.9129 -0.6061  0.1087
  100MOL     O737825   6.547   4.580   5.823  0.0151  0.1731  0.3394
  100MOL     H837826   6.313   4.448   5.743 -0.1120  2.5848  1.2919
  100MOL     H937827   6.316   4.338   5.873  1.5972  1.0791  1.6249
  100MOL    H1037828   6.380   4.564   5.945  0.4887 -1.3430  2.2601
  100MOL    H1137829   6.470   4.385   6.090  0.6514 -0.0026  0.6239
  100MOL    H1237830   6.603   4.357   5.986 -1.2884 -1.4876 -0.6680
  100MOL    H1337831   6.675   4.592   6.079  1.4370 -0.9934  0.6514
  100MOL    H1437832   6.516   4.615   6.149  2.6348  2.3124  0.0906
  100MOL    H1537833   6.565   4.401   6.285 -0.4214  0.4726  0.3484
  100MOL    H1637834   6.710   4.398   6.213  1.5799  0.0455 -0.9100
  100MOL    H1737835   6.729   4.490   6.432 -1.3709  1.5102  2.5260
  100MOL    H1837836   6.792   4.610   6.308  0.0745 -0.2556 -1.2369
  100MOL    H1937837   6.640   4.629   6.398  1.3772 -1.4502  2.0077
  100MOL    H2037838   6.444   4.333   5.757  0.7409 -0.5119 -0.3042
  100MOL    C2137839   6.531   4.722   5.847  1.0570 -0.1886  0.1010
  100MOL    C2237840   6.602   4.818   5.756 -0.3928  0.1604 -0.3086
  100MOL    C2337841   6.530   4.959   5.761  0.1554  0.4350 -0.6096
  100MOL    C2437842   6.608   5.068   5.685  0.5981  0.2138  0.2803
  100MOL    C2537843   6.564   5.211   5.717 -1.3155 -0.3679 -0.2575
  100MOL    C2637844   6.642   5.319   5.642 -0.5072 -0.8567  0.4246
  100MOL    O2737845   6.740   4.838   5.785 -0.2136  0.1401  0.1130
  100MOL    H2837846   6.425   4.738   5.827  0.8320 -2.3426 -0.6013
  100MOL    H2937847   6.541   4.754   5.951  0.5063  2.7430 -0.7038
  100MOL    H3037848   6.606   4.778   5.655  2.3902  0.3063 -0.2915
  100MOL    H3137849   6.520   4.990   5.865  0.8998 -0.5649 -0.2269
  100MOL    H3237850   6.428   4.941   5.730 -1.0401  1.0131  2.7220
  100MOL    H3337851   6.593   5.051   5.578  0.2185  0.2379  0.3300
  100MOL    H3437852   6.715   5.052   5.702  0.9474  1.8937 -0.2029
  100MOL    H3537853   6.457   5.219   5.696 -0.8856  3.9009 -1.2389
  100MOL    H3637854   6.571   5.237   5.823 -2.9477 -0.9125 -0.0004
  100MOL    H3737855   6.740   5.320   5.689 -0.8078 -2.6491  1.1529
  100MOL    H3837856   6.586   5.413   5.644  1.2131  0.1733  1.9799
  100MOL    H3937857   6.647   5.293   5.537  1.5141  0.0117  0.3027
  100MOL    C4037858   6.830   4.736   5.768 -0.0779 -0.6350  0.3854
  100MOL    C4137859   6.968   4.779   5.821 -0.1774 -0.0416  0.2527
  100MOL    C4237860   7.076   4.694   5.751  0.8385 -0.5521 -0.1872
  100MOL    C4337861   7.213   4.774   5.761 -0.0685  0.3413 -0.2140
  100MOL    C4437862   7.305   4.732   5.880 -0.2713  0.1724 -0.2359
  100MOL    C4537863   7.418   4.823   5.903  0.0065 -0.4383 -0.2996
  100MOL    O4637864   6.973   4.758   5.965 -0.5381 -0.2197 -0.0660
  100MOL    H4737865   6.826   4.711   5.662  0.8907 -1.0829  0.4477
  100MOL    H4837866   6.795   4.640   5.806  0.7397 -0.4454  1.6635
  100MOL    H4937867   6.980   4.884   5.797 -0.0451  0.1460  1.1407
  100MOL    H5037868   7.069   4.597   5.799  1.4676 -0.9773 -0.9589
  100MOL    H5137869   7.068   4.680   5.644  1.3060 -0.8415 -0.1846
  100MOL    H5237870   7.191   4.880   5.774 -0.9637  0.3082 -1.2789
  100MOL    H5337871   7.274   4.780   5.670 -1.5218 -0.2909 -1.2629
  100MOL    H5437872   7.251   4.710   5.972 -0.0206  1.2375  0.1730
  100MOL    H5537873   7.346   4.638   5.845 -1.0270  0.1716 -1.1522
  100MOL    H5637874   7.489   4.788   5.978  1.5501  0.2872 -1.3928
  100MOL    H5737875   7.471   4.849   5.811  1.0896 -0.3632  0.3390
  100MOL    H5837876   7.387   4.922   5.936 -0.7681  0.1475 -2.6529
  100MOL    C5937877   6.914   4.853   6.042  0.1349 -0.1397  0.0734
  100MOL    C6037878   7.007   4.954   6.099  0.3263 -0.0875 -0.8483
  100MOL    C6137879   6.946   5.096   6.108  0.6615 -0.3169 -0.0174
  100MOL    C6237880   6.894   5.156   5.973  0.1771  0.4966  0.6638
  100MOL    C6337881   7.008   5.197   5.874 -0.2434  0.3561  0.3504
  100MOL    C6437882   7.106   5.305   5.920  0.1209 -0.5620 -0.0708
  100MOL    O6537883   7.039   4.909   6.229  0.0380 -0.0812  0.5241
  100MOL    H6637884   6.870   4.794   6.122  0.0406 -0.6268 -0.3413
  100MOL    H6737885   6.826   4.900   5.999 -0.1056  1.2223  1.9478
  100MOL    H6837886   7.098   4.961   6.039 -0.7888 -0.4578 -2.5981
  100MOL    H6937887   7.025   5.164   6.142  1.5709 -0.9170 -0.9119
  100MOL    H7037888   6.863   5.104   6.179  0.1203  0.2102 -0.6933
  100MOL    H7137889   6.841   5.247   5.999  0.1357  0.4719  0.6647
  100MOL    H7237890   6.817   5.095   5.926  2.0268 -0.3713 -1.3600
  100MOL    H7337891   6.956   5.236   5.787  1.1330 -0.8196 -1.0338
  100MOL    H7437892   7.060   5.106   5.843  0.0586  1.2561 -1.8944
  100MOL    H7537893   7.155   5.366   5.844  2.3787 -1.6260  0.4914
  100MOL    H7637894   7.050   5.377   5.980  1.4641  0.6610 -0.2526
  100MOL    H7737895   7.176   5.265   5.993 -0.3040 -0.1995  0.5472
  100MOL    C7837896   7.149   4.818   6.235 -0.2864 -0.4516  0.4019
  100MOL    C7937897   7.175   4.771   6.380  0.0014  1.0625  0.0684
  100MOL    C8037898   7.052   4.681   6.425 -0.0616  1.1099 -1.0398
  100MOL    C8137899   7.077   4.604   6.565  0.3362 -0.6633 -0.0603
  100MOL    C8237900   6.985   4.484   6.590 -0.2472  0.3773 -0.1103
  100MOL    C8337901   7.004   4.402   6.721 -0.1661  0.0865  0.2634
  100MOL    O8437902   7.232   4.872   6.469 -0.2562  0.1966 -0.2288
  100MOL    H8537903   7.232   4.856   6.176 -2.0745  1.1202 -1.1815
  100MOL    H8637904   7.118   4.731   6.177 -1.0757 -2.1862  3.2914
  100MOL    H8737905   7.261   4.706   6.367 -0.7266 -0.4098  2.2687
  100MOL    H8837906   6.957   4.734   6.421 -0.7443 -0.1112 -0.9292
  100MOL    H8937907   7.031   4.622   6.337  1.0878 -0.5253 -0.2368
  100MOL    H9037908   7.075   4.673   6.648  0.1122 -0.1704 -0.4750
  100MOL    H9137909   7.180   4.570   6.559  1.0081  1.3431 -0.1981
  100MOL    H9237910   6.891   4.537   6.603 -0.2282  0.5121 -0.5261
  100MOL    H9337911   6.980   4.426   6.498  0.5490  1.5215 -0.8899
  100MOL    H9437912   6.908   4.363   6.756 -0.5613  0.4761 -0.3704
  100MOL    H9537913   7.044   4.461   6.803 -0.0672 -2.1209  1.8426
  100MOL    H9637914   7.065   4.313   6.710 -0.5351  0.0358 -1.6228
  100MOL    C9737915   7.149   4.981   6.502  0.2881  0.5840 -0.5887
  100MOL    C9837916   7.166   5.112   6.426  0.2042 -0.1339  0.2527
  100MOL    C9937917   7.072   5.222   6.473 -0.6958 -0.2964 -0.3678
  100MOL   C10037918   7.092   5.359   6.401 -0.1153 -0.3146 -0.1353
  100MOL   C10137919   6.952   5.431   6.388 -0.1136  0.4051  0.0650
  100MOL   C10237920   6.966   5.573   6.324 -0.1392 -0.0000  0.7029
  100MOL   O10337921   7.295   5.167   6.469 -0.2684  0.2448 -0.4095
  100MOL   H10437922   7.168   5.001   6.607 -1.9051 -0.0165 -0.0526
  100MOL   H10537923   7.047   4.943   6.506  1.3894 -2.4974  0.4573
  100MOL   H10637924   7.168   5.091   6.319 -1.1135 -1.2272  0.4421
  100MOL   H10737925   7.066   5.233   6.582 -1.6276  0.7189 -0.5072
  100MOL   H10837926   6.970   5.186   6.456 -0.9863  0.1792  0.3022
  100MOL   H10937927   7.135   5.341   6.302 -1.0667  1.4551 -0.8977
  100MOL   H11037928   7.164   5.417   6.458 -1.2737 -0.7057  1.7545
  100MOL   H11137929   6.892   5.428   6.479  1.1145  0.9877  0.9076
  100MOL   H11237930   6.904   5.357   6.325 -0.3504 -0.0188  0.7301
  100MOL   H11337931   7.022   5.572   6.231  2.0713 -2.0247  2.0136
  100MOL   H11437932   6.864   5.605   6.302 -0.7662 -0.0725  3.2778
  100MOL   H11537933   7.021   5.645   6.385  3.2905 -1.5329 -0.4565
  100MOL   C11637934   7.418   5.119   6.414 -0.9230  0.3516  0.5068
  100MOL   C11737935   7.450   5.191   6.281  1.1430 -0.6246  0.1034
  100MOL   C11837936   7.520   5.108   6.173  0.0766 -0.8282 -0.3459
  100MOL   C11937937   7.522   5.170   6.031  0.3191  0.0581 -0.0255
  100MOL   C12037938   7.649   5.123   5.951  0.7113 -0.3958 -0.8566
  100MOL   C12137939   7.647   5.179   5.806 -0.6861  0.8951  0.1663
  100MOL   O12237940   7.519   5.311   6.308  0.1025  0.6147  0.3717
  100MOL   H12337941   7.486   5.145   6.496 -1.0609 -0.3069  0.8313
  100MOL   H12437942   7.438   5.012   6.414 -0.3608  0.4564  0.6519
  100MOL   H12537943   7.358   5.220   6.232  2.1978  2.1501 -0.3196
  100MOL   H12637944   7.620   5.081   6.206  0.2409  0.1443 -0.0281
  100MOL   H12737945   7.459   5.018   6.167 -2.4592  0.7660  0.2898
  100MOL   H12837946   7.547   5.275   6.045 -1.8681  0.9803 -2.4733
  100MOL   H12937947   7.430   5.160   5.974 -0.9875  0.2016  2.0595
  100MOL   H13037948   7.738   5.160   6.002 -0.8118  1.4437  0.5407
  100MOL   H13137949   7.641   5.015   5.950 -0.4323 -0.3363  0.6215
  100MOL   H13237950   7.656   5.287   5.796  1.7480  0.7519  0.5002
  100MOL   H13337951   7.735   5.140   5.753  0.3639  1.9199  1.1329
  100MOL   H13437952   7.567   5.133   5.748  1.0074 -0.7397 -0.9712
  100MOL   C13537953   7.454   5.434   6.279  0.0302 -0.0606  0.0927
  100MOL   C13637954   7.500   5.530   6.382  0.4832 -0.0524 -0.3185
  100MOL   C13737955   7.400   5.647   6.389  0.1155  0.2677  0.3256
  100MOL   C13837956   7.435   5.754   6.490  0.0188  0.0425  0.2522
  100MOL   C13937957   7.329   5.865   6.487  0.6845 -0.0585  0.5675
  100MOL   C14037958   7.387   5.988   6.565  0.0133  0.2167 -0.5581
  100MOL   O14137959   7.626   5.592   6.345 -0.4330  0.4892 -0.1291
  100MOL   H14237960   7.469   5.476   6.180 -0.9534 -0.6618 -0.3162
  100MOL   H14337961   7.350   5.420   6.307  0.0404 -0.5325 -0.1014
  100MOL   H14437962   7.507   5.485   6.481  2.8947 -1.7037 -1.2103
  100MOL   H14537963   7.396   5.692   6.289  0.7636 -0.4473 -0.0202
  100MOL   H14637964   7.306   5.606   6.425  0.7941 -0.5727  1.1554
  100MOL   H14737965   7.527   5.808   6.467 -0.4247  0.6015 -0.2390
  100MOL   H14837966   7.431   5.716   6.592  0.7969  0.8351  0.5844
  100MOL   H14937967   7.240   5.822   6.533  0.3258  0.4546  0.3687
  100MOL   H15037968   7.316   5.899   6.384 -1.2149 -1.1110  0.4327
  100MOL   H15137969   7.460   6.038   6.502 -0.7610 -0.0083 -1.6467
  100MOL   H15237970   7.298   6.050   6.577 -1.0470 -1.4867  0.6477
  100MOL   H15337971   7.433   5.962   6.660  1.6663 -2.6037 -2.0647
  100MOL   C15437972   7.740   5.513   6.382 -0.0558  0.1545  1.0798
  100MOL   C15537973   0.080   5.593   6.357 -0.4117 -0.3669 -0.2805
  100MOL   C15637974   0.199   5.543   6.442  0.1601  0.4905  0.0421
  100MOL   C15737975   0.321   5.635   6.436  0.3973  0.1186  0.3527
  100MOL   C15837976   0.417   5.611   6.547 -0.2248  0.5465 -0.0079
  100MOL   C15937977   0.529   5.719   6.564 -0.1685  0.3977 -0.1391
  100MOL   O16037978   0.121   5.571   6.220 -0.2010  0.4168  0.0949
  100MOL   H16137979   7.753   5.416   6.333  0.3980 -0.4042  2.2965
  100MOL   H16237980   7.735   5.508   6.490  1.8417  1.7870  1.2470
  100MOL   H16337981   0.068   5.699   6.378 -0.6997 -0.6631  1.0525
  100MOL   H16437982   0.228   5.446   6.401  2.0366  1.3156 -0.6355
  100MOL   H16537983   0.175   5.534   6.548  3.5140  0.0057  0.8158
  100MOL   H16637984   0.279   5.735   6.441 -0.5410 -0.1758 -1.3480
  100MOL   H16737985   0.383   5.604   6.352  2.1854  0.8627  1.3723
  100MOL   H16837986   0.367   5.598   6.643  2.1061 -0.4792  1.1150
  100MOL   H16937987   0.475   5.520   6.531 -0.6983  0.2589 -0.0825
  100MOL   H17037988   0.626   5.692   6.606 -0.0726  2.7896  1.2538
  100MOL   H17137989   0.496   5.808   6.617  0.7707  0.6598  0.0146
  100MOL   H17237990   0.555   5.753   6.464 -1.7744 -2.1975 -1.5132
  100MOL   C17337991   0.054   5.650   6.122 -0.5252  0.2622  0.1023
  100MOL   C17437992   0.120   5.631   5.976 -0.3759  0.4504  0.0120
  100MOL   C17537993   0.019   5.659   5.862  0.1894 -0.4384 -0.2771
  100MOL   C17637994   7.743   5.794   5.863  0.0544 -0.2836 -0.3101
  100MOL   C17737995   7.657   5.820   5.740  0.3003  0.6444  0.4987
  100MOL   C17837996   7.595   5.958   5.740  0.0429 -0.1729  0.3191
  100MOL   O17937997   0.228   5.715   5.962  0.4862  0.0876 -0.4235
  100MOL   H18037998   0.029   5.753   6.147 -1.5342  0.3592 -1.2501
  100MOL   H18137999   7.739   5.608   6.126 -0.2020 -0.5046  0.2846
  100MOL   H18238000   0.152   5.530   5.951 -1.7237 -0.3211  1.3173
  100MOL   H18338001   0.075   5.648   5.769  0.5725 -0.3989 -0.0536
  100MOL   H18438002   7.728   5.581   5.868  0.0111 -0.2238  0.2104
  100MOL   H18538003   7.682   5.793   5.954  1.4338 -0.9009  0.6263
  100MOL   H18638004   0.032   5.872   5.876 -1.3412  0.9829  0.2079
  100MOL   H18738005   7.722   5.803   5.654  0.7320 -1.7128  1.2670
  100MOL   H18838006   7.580   5.747   5.717  3.0607 -1.9717 -0.7490
  100MOL   H18938007   7.553   5.996   5.834  0.3582 -0.9950  0.7954
  100MOL   H19038008   7.521   5.977   5.662 -0.3350  2.4060  1.2315
  100MOL   H19138009   7.678   6.028   5.733  0.7687 -0.6923  3.0639
  100MOL   C19238010   0.355   5.660   5.987 -0.0123 -0.2578  0.4775
  100MOL   C19338011   0.475   5.759   5.987 -0.0917 -0.1505  0.1626
  100MOL   C19438012   0.449   5.878   6.083  0.0913 -0.4609 -0.4324
  100MOL   C19538013   0.560   5.988   6.083 -0.4897 -0.0720  0.4316
  100MOL   C19638014   0.515   6.106   6.168  0.4172  0.0466  0.0529
  100MOL   C19738015   0.630   6.188   6.209 -0.6372 -0.2020  0.1444
  100MOL   O19838016   0.495   5.824   5.864  0.0883 -0.7072 -0.4104
  100MOL   H19938017   0.363   5.588   6.068 -0.1057 -0.0855  0.6408
  100MOL   H20038018   0.384   5.588   5.910  0.0452  0.0884  0.1709
  100MOL   H20138019   0.561   5.703   6.024  0.6872 -0.5242 -2.1184
  100MOL   H20238020   0.355   5.923   6.053  0.1352  0.6047  0.9760
  100MOL   H20338021   0.427   5.846   6.185  0.6985 -1.3612 -0.5698
  100MOL   H20438022   0.571   6.022   5.980 -3.8222  1.3890  0.4889
  100MOL   H20538023   0.657   5.951   6.117 -0.6196 -0.0034  0.8785
  100MOL   H20638024   0.446   6.166   6.108  0.4018 -1.0678 -1.0464
  100MOL   H20738025   0.469   6.073   6.261 -1.8507  1.8079 -0.3939
  100MOL   H20838026   0.587   6.279   6.251 -1.9359 -0.3079 -0.9056
  100MOL   H20938027   0.691   6.130   6.278 -0.4873 -0.3511 -0.1133
  100MOL   H21038028   0.695   6.215   6.126 -2.1624  0.7723 -0.7505
  100MOL   C21138029   0.516   5.748   5.745  0.4369 -1.1779  0.2936
  100MOL   C21238030   0.625   5.828   5.671  0.5576 -0.6294 -0.3429
  100MOL   C21338031   0.606   5.798   5.515 -0.4392 -0.0505  0.5632
  100MOL   C21438032   0.696   5.890   5.421 -0.5280 -1.0611  0.4662
  100MOL   C21538033   0.651   5.878   5.283 -0.2019  0.2303  0.4979
  100MOL   C21638034   0.746   5.954   5.193  0.0147 -0.3414  0.1551
  100MOL   O21738035   0.755   5.789   5.712  0.1011  0.3459  0.2914
  100MOL   H21838036   0.422   5.753   5.690  0.3371  0.2761  0.5613
  100MOL   H21938037   0.547   5.644   5.755 -3.0975 -2.2561  0.6603
  100MOL   H22038038   0.610   5.935   5.686 -1.9227 -0.8764 -0.9699
  100MOL   H22138039   0.637   5.697   5.486 -2.6137 -0.4358 -0.5139
  100MOL   H22238040   0.503   5.819   5.489 -0.6189 -0.6985  0.7490
  100MOL   H22338041   0.697   5.993   5.458  1.2146 -0.5743 -0.8247
  100MOL   H22438042   0.801   5.864   5.434 -0.4058 -0.0273  1.6686
  100MOL   H22538043   0.643   5.775   5.249 -0.6435 -0.1063  1.6036
  100MOL   H22638044   0.553   5.926   5.281  1.6295  4.2181  0.5665
  100MOL   H22738045   0.853   5.947   5.210  0.1480 -0.4576 -0.6910
  100MOL   H22838046   0.715   6.058   5.204  0.1289 -0.2856 -0.0468
  100MOL   H22938047   0.720   5.923   5.091  2.1564  0.4815 -0.6675
  100MOL   C23038048   0.809   5.867   5.820  0.4299 -0.0885 -0.3198
  100MOL   C23138049   0.947   5.817   5.860 -0.1898 -0.5726 -0.3912
  100MOL   C23238050   0.999   5.843   6.000  0.2461 -0.0716 -0.2813
  100MOL   C23338051   0.913   5.765   6.105  0.9550  0.3630  0.2580
  100MOL   C23438052   0.952   5.800   6.248  0.1115 -0.8151  0.5076
  100MOL   C23538053   0.878   5.921   6.303  0.5967 -0.3523  0.7390
  100MOL   O23638054   1.048   5.879   5.779  0.1622 -0.2311 -0.2670
  100MOL   H23738055   0.813   5.975   5.807 -0.1073  0.1723  1.4510
  100MOL   H23838056   0.733   5.867   5.898 -1.0421 -0.1886 -1.7296
  100MOL   H23938057   0.959   5.712   5.835 -1.0847 -0.0327 -3.3634
  100MOL   H24038058   0.990   5.949   6.025 -1.0349 -0.2820  0.1809
  100MOL   H24138059   1.105   5.827   6.020  0.1786  1.4758  1.4393
  100MOL   H24238060   0.928   5.657   6.094 -0.4716  0.1996 -0.2771
  100MOL   H24338061   0.806   5.768   6.084  1.4217  0.9077 -2.1768
  100MOL   H24438062   0.931   5.722   6.321  3.0752 -1.5218  0.6811
  100MOL   H24538063   1.060   5.813   6.260  0.2165  1.3723 -2.3868
  100MOL   H24638064   0.942   5.977   6.371  1.8847 -0.5491 -0.2949
  100MOL   H24738065   0.788   5.898   6.361  1.6787 -2.8277  1.5077
  100MOL   H24838066   0.855   5.991   6.222  0.9843 -0.7811  0.2551
  100MOL   C24938067   1.077   5.804   5.662  0.7253  0.3318 -0.0493
  100MOL   C25038068   1.201   5.863   5.593 -0.6192 -0.7983  0.2337
  100MOL   C25138069   1.210   5.809   5.453  0.8129 -0.9048 -0.2427
  100MOL   C25238070   1.319   5.884   5.369  0.0413 -0.9177  0.2554
  100MOL   C25338071   1.357   5.795   5.240  0.3467 -0.3108 -0.3918
  100MOL   C25438072   1.429   5.883   5.143 -0.3980  0.2288  0.0752
  100MOL   O25538073   1.321   5.836   5.658 -1.1565 -0.0352  0.0439
  100MOL   H25638074   1.101   5.699   5.678  1.4390  0.3231 -1.0790
  100MOL   H25738075   0.992   5.816   5.595  0.7639  1.6477  0.1374
  100MOL   H25838076   1.192   5.972   5.584 -0.1269 -0.8731 -1.4856
  100MOL   H25938077   1.245   5.706   5.464 -3.2445 -2.2727  0.5009
  100MOL   H26038078   1.114   5.809   5.403  0.2413 -2.2463  0.8082
  100MOL   H26138079   1.292   5.988   5.348  1.7139 -0.8738 -1.8787
  100MOL   H26238080   1.409   5.893   5.430 -0.0683 -2.4505  0.6510
  100MOL   H26338081   1.418   5.715   5.281 -1.0984 -1.3733 -0.2552
  100MOL   H26438082   1.264   5.755   5.199 -0.3700  0.4320  0.4893
  100MOL   H26538083   1.528   5.912   5.177  0.3187 -0.7360 -1.1224
  100MOL   H26638084   1.379   5.965   5.091 -0.2352 -0.8910 -1.9154
  100MOL   H26738085   1.459   5.819   5.060  0.0572  0.6249 -0.0636
  100MOL   C26838086   1.348   5.911   5.780 -0.7563 -0.2859  0.0180
  100MOL   C26938087   1.453   5.839   5.861 -0.3000 -0.6130 -0.0921
  100MOL   C27038088   1.464   5.888   6.010 -0.1262  0.3236  0.0026
  100MOL   C27138089   1.501   6.038   6.020  0.3676  0.2518  0.2064
  100MOL   C27238090   1.557   6.076   6.160 -0.1701 -0.0627 -0.4234
  100MOL   C27338091   1.553   6.222   6.180 -0.4858  0.3775 -0.1968
  100MOL   O27438092   1.577   5.860   5.797  0.0637 -0.6301 -0.3895
  100MOL   H27538093   1.263   5.925   5.847 -0.9630 -0.8680 -0.1195
  100MOL   H27638094   1.391   6.005   5.746 -1.1095  0.6202  2.0255
  100MOL   H27738095   1.435   5.733   5.876 -0.5773 -0.3695  1.4000
  100MOL   H27838096   1.365   5.867   6.052 -0.6624 -0.7559 -1.7119
  100MOL   H27938097   1.543   5.829   6.057  0.5998  1.9345  0.8354
  100MOL   H28038098   1.583   6.056   5.950 -0.9865  0.8555 -1.2379
  100MOL   H28138099   1.420   6.098   5.979  0.1986 -0.0495  0.0964
  100MOL   H28238100   1.496   6.040   6.243 -0.6054  0.0951 -0.6731
  100MOL   H28338101   1.653   6.025   6.172  0.2727  0.8488 -0.0451
  100MOL   H28438102   1.601   6.275   6.098  3.0825 -0.7284  1.0758
  100MOL   H28538103   1.451   6.260   6.178  0.3324  2.7683  0.9122
  100MOL   H28638104   1.598   6.242   6.278 -3.3435  0.2824  1.2065
  100MOL   C28738105   1.624   5.755   5.708  0.5450 -0.2722  0.0367
  100MOL   C28838106   1.766   5.779   5.655  0.1424  0.0768 -0.2613
  100MOL   C28938107   1.782   5.712   5.516  0.1980  0.4040  0.2750
  100MOL   C29038108   1.904   5.765   5.443 -0.4343 -0.1074  0.1700
  100MOL   C29138109   1.910   5.710   5.299  0.0525 -0.1811 -0.0510
  100MOL   C29238110   1.783   5.758   5.216 -0.6425  0.9261  0.7115
  100MOL   O29338111   1.862   5.722   5.744 -0.5766 -0.2471 -0.4333
  100MOL   H29438112   1.551   5.754   5.627 -0.9738  1.2142  1.3403
  100MOL   H29538113   1.614   5.657   5.755  0.4500 -0.4441 -0.3371
  100MOL   H29638114   1.775   5.887   5.649 -0.5059  0.2038  0.7712
  100MOL   H29738115   1.791   5.604   5.528 -2.1348  0.4275  2.7186
  100MOL   H29838116   1.694   5.737   5.457  2.3914  0.5091 -3.1212
  100MOL   H29938117   1.890   5.872   5.453 -0.0742  0.0203 -0.6357
  100MOL   H30038118   1.996   5.743   5.498  0.2571 -0.3776 -1.0587
  100MOL   H30138119   1.909   5.601   5.308 -0.9244 -0.1512  0.3508
  100MOL   H30238120   1.995   5.738   5.238 -0.3332  2.2060  0.4431
  100MOL   H30338121   1.811   5.756   5.111 -1.5526  0.7285  0.4740
  100MOL   H30438122   1.698   5.690   5.223  1.5488 -2.1718 -1.4638
  100MOL   H30538123   1.756   5.859   5.246  2.3468  2.1560 -0.5304
  100MOL   C30638124   1.854   5.781   5.873  0.1932 -0.0417  0.0489
  100MOL   C30738125   1.959   5.715   5.956 -0.3343  0.0035 -0.1104
  100MOL   C30838126   1.922   5.748   6.109  0.6604  0.6703  0.1120
  100MOL   C30938127   1.803   5.666   6.169  0.6123  0.3220  0.7154
  100MOL   C31038128   1.745   5.713   6.304  0.4761 -0.9058 -0.5442
  100MOL   C31138129   1.836   5.674   6.426  0.8496 -0.1321  0.5434
  100MOL   O31238130   2.086   5.771   5.942 -0.3621  0.0660 -0.2028
  100MOL   H31338131   1.859   5.890   5.870  1.7144 -0.1306 -1.0529
  100MOL   H31438132   1.754   5.753   5.906 -0.3052  0.2191 -1.1971
  100MOL   H31538133   1.965   5.606   5.947  0.6846  0.1394 -1.2427
  100MOL   H31638134   1.907   5.856   6.108  0.5151  0.6495 -1.3995
  100MOL   H31738135   2.012   5.737   6.169  0.0706 -1.1280  0.6782
  100MOL   H31838136   1.723   5.664   6.095 -1.0547 -0.1673  2.5007
  100MOL   H31938137   1.820   5.559   6.187 -2.9163 -0.5315 -0.7715
  100MOL   H32038138   1.646   5.673   6.324 -0.9775  1.7707 -2.1197
  100MOL   H32138139   1.735   5.821   6.294 -0.1195 -0.3671  4.4981
  100MOL   H32238140   1.837   5.565   6.427  0.7114 -0.1347  0.4543
  100MOL   H32338141   1.937   5.697   6.395  0.4083 -0.9151 -1.5959
  100MOL   H32438142   1.820   5.710   6.527 -0.9094  2.3131 -0.5414
  100MOL   C32538143   2.156   5.736   5.820 -0.0318 -0.5899 -0.2764
  100MOL   C32638144   2.284   5.823   5.801 -0.5575  0.9698 -0.3307
  100MOL   C32738145   2.320   5.829   5.657 -0.1219 -0.5622 -0.5072
  100MOL   C32838146   2.462   5.902   5.633  0.1577  0.0915 -0.4420
  100MOL   C32938147   2.596   5.842   5.682 -0.1366  0.7490 -0.1570
  100MOL   C33038148   2.719   5.912   5.632  0.3004 -0.0828  0.0307
  100MOL   O33138149   2.384   5.754   5.879 -0.1056 -0.2981  0.3132
  100MOL   H33238150   2.085   5.751   5.739  0.2524  0.4820 -0.3240
  100MOL   H33338151   2.177   5.629   5.812  1.5551 -0.2905 -0.1041
  100MOL   H33438152   2.255   5.921   5.839 -0.7009  0.4214  0.9890
  100MOL   H33538153   2.317   5.727   5.617 -1.9277 -0.8203  0.2596
  100MOL   H33638154   2.242   5.884   5.605  0.4814 -0.3893 -1.2402
  100MOL   H33738155   2.466   5.889   5.525  0.0248 -1.9098 -0.2164
  100MOL   H33838156   2.465   6.009   5.654 -0.9058  0.4066 -1.8088
  100MOL   H33938157   2.597   5.843   5.791 -0.0577 -0.5279 -0.1432
  100MOL   H34038158   2.598   5.736   5.656  0.6386  0.6478  0.2883
  100MOL   H34138159   2.702   5.915   5.525 -0.5203 -1.3264  0.1102
  100MOL   H34238160   2.720   6.012   5.674 -1.2932  1.2661 -3.0066
  100MOL   H34338161   2.808   5.854   5.658 -1.3329 -2.5930  0.1833
  100MOL   C34438162   2.381   5.790   6.014 -0.0773  0.0052  0.1215
  100MOL   C34538163   2.502   5.726   6.096  0.4312  0.0280 -0.2752
  100MOL   C34638164   2.508   5.762   6.245 -0.0216  0.6657 -0.2232
  100MOL   C34738165   2.617   5.695   6.328 -0.6819 -0.1054  0.1201
  100MOL   C34838166   2.609   5.718   6.483 -0.3204 -0.1803 -0.3267
  100MOL   C34938167   2.738   5.671   6.544 -0.1701 -0.3676 -0.7127
  100MOL   O35038168   2.505   5.585   6.083 -0.2554  0.4711  0.4045
  100MOL   H35138169   2.295   5.756   6.071 -1.6019  1.3546 -1.3036
  100MOL   H35238170   2.380   5.899   6.019 -1.4049 -0.0398  0.9505
  100MOL   H35338171   2.590   5.772   6.051  0.1630 -1.9221 -2.9410
  100MOL   H35438172   2.410   5.744   6.291 -0.7325  1.1927 -1.4904
  100MOL   H35538173   2.534   5.868   6.251  2.0234  0.3563 -2.9223
  100MOL   H35638174   2.712   5.735   6.291  0.7482 -2.8710  0.6145
  100MOL   H35738175   2.620   5.589   6.303  0.0351  0.1155 -0.7554
  100MOL   H35838176   2.525   5.660   6.522  0.5168 -0.9459  0.3395
  100MOL   H35938177   2.596   5.824   6.505  0.9273 -0.0290 -0.3299
  100MOL   H36038178   2.772   5.585   6.486  1.2541 -1.0886  1.1312
  100MOL   H36138179   2.728   5.644   6.649  2.6422 -1.2170 -0.6031
  100MOL   H36238180   2.823   5.739   6.539 -1.1930  1.1190  1.4685
  100MOL   C36338181   2.584   5.530   5.973  0.4312 -0.2024 -0.1495
  100MOL   C36438182   2.557   5.389   5.944 -0.0860  0.3385 -0.1587
  100MOL   C36538183   2.590   5.291   6.053 -0.5796 -0.2948 -0.1343
  100MOL   C36638184   2.744   5.263   6.066 -0.4908 -0.9062  0.1844
  100MOL   C36738185   2.771   5.116   6.122  0.1972  0.1767  0.3568
  100MOL   C36838186   2.923   5.104   6.135 -0.6666  0.1430  0.1284
  100MOL   O36938187   2.423   5.370   5.902 -0.4564  0.3528  0.1043
  100MOL   H37038188   2.691   5.538   5.991  0.3938 -2.1175  1.0383
  100MOL   H37138189   2.559   5.582   5.880 -2.5569 -1.1887  0.0558
  100MOL   H37238190   2.618   5.367   5.857 -0.1843 -0.1103 -0.1147
  100MOL   H37338191   2.549   5.327   6.147  3.0574  0.1474  1.3869
  100MOL   H37438192   2.548   5.197   6.019  1.2659 -0.4816 -2.0199
  100MOL   H37538193   2.796   5.262   5.970  1.7018  1.8400  1.2536
  100MOL   H37638194   2.790   5.336   6.133 -0.0268 -1.3759  0.3784
  100MOL   H37738195   2.716   5.091   6.212 -0.5162 -1.5948 -0.5583
  100MOL   H37838196   2.724   5.050   6.049  0.8211 -0.9396  0.9573
  100MOL   H37938197   2.954   4.999   6.129 -1.0717  0.0475 -0.3306
  100MOL   H38038198   2.972   5.161   6.056  0.2980  0.5337  0.9903
  100MOL   H38138199   2.966   5.142   6.227  0.5318  0.2024 -0.4476
  100MOL   H38238200   2.371   5.450   5.900 -0.1936  0.5131 -1.2722
  101MOL     C138201   4.903   7.606   3.697  0.0566 -0.0925 -0.0683
  101MOL     C238202   4.849   7.472   3.647  0.3226 -0.7080  0.0014
  101MOL     C338203   4.843   7.458   3.495  0.2382  0.0339  0.2923
  101MOL     C438204   4.730   7.544   3.433 -0.3143  0.5682  0.3037
  101MOL     C538205   4.747   7.573   3.283 -0.0082  0.8693  0.5560
  101MOL     C638206   4.741   7.447   3.196  0.4080  0.1609  0.0798
  101MOL     O738207   4.934   7.364   3.690 -0.1482 -0.7453 -0.6564
  101MOL     H838208   4.999   7.629   3.651  0.3992 -1.4603 -0.0438
  101MOL     H938209   4.911   7.610   3.806  0.6024 -1.6162 -0.0402
  101MOL    H1038210   4.744   7.461   3.673  0.0007  2.4385  0.2264
  101MOL    H1138211   4.938   7.499   3.463  0.6966 -0.6992  0.6781
  101MOL    H1238212   4.853   7.355   3.461 -4.3507 -0.2737 -0.4467
  101MOL    H1338213   4.636   7.491   3.451  0.2644 -0.4283  0.4346
  101MOL    H1438214   4.718   7.635   3.491  1.6595  1.1225 -0.1139
  101MOL    H1538215   4.675   7.646   3.245 -0.4349 -0.4075 -1.1852
  101MOL    H1638216   4.845   7.620   3.272  0.8346 -1.2387 -1.4827
  101MOL    H1738217   4.676   7.376   3.248 -0.0643  1.5374  1.4291
  101MOL    H1838218   4.690   7.451   3.100 -0.2023  1.3910  0.4435
  101MOL    H1938219   4.839   7.408   3.172 -1.1048 -1.0421 -4.6214
  101MOL    H2038220   4.827   7.680   3.673 -0.9800 -1.3432 -0.7083
  101MOL    C2138221   4.876   7.280   3.791  0.1121  0.4312  0.0387
  101MOL    C2238222   4.963   7.150   3.824 -0.4277  0.6235  0.2324
  101MOL    C2338223   4.953   7.092   3.968 -0.4695  0.1475 -0.4360
  101MOL    C2438224   5.065   6.985   3.988  0.3919 -0.5871  0.0790
  101MOL    C2538225   5.044   6.895   4.107  0.3477  0.3277  0.7484
  101MOL    C2638226   5.152   6.807   4.132 -0.7334 -0.3057  0.2751
  101MOL    O2738227   4.936   7.033   3.741  0.1272 -0.1541 -0.2747
  101MOL    H2838228   4.868   7.338   3.883 -1.2390  0.9820 -0.4241
  101MOL    H2938229   4.776   7.250   3.761  0.5756 -0.8572 -0.2675
  101MOL    H3038230   5.070   7.170   3.823  0.2822 -2.7522  1.0736
  101MOL    H3138231   4.856   7.044   3.983 -0.4928 -0.2117 -1.6323
  101MOL    H3238232   4.960   7.163   4.050  0.8083  2.4181 -2.4483
  101MOL    H3338233   5.161   7.035   4.004  0.9963 -2.0651  1.2101
  101MOL    H3438234   5.061   6.920   3.901 -0.4930  0.9943 -1.0868
  101MOL    H3538235   5.021   6.965   4.188  0.2844 -0.9557  1.8474
  101MOL    H3638236   4.952   6.839   4.091 -0.8775  2.2481  0.8236
  101MOL    H3738237   5.140   6.762   4.230  0.8638  3.7673  2.4246
  101MOL    H3838238   5.242   6.868   4.135  1.0493 -2.8129 -0.0125
  101MOL    H3938239   5.167   6.721   4.066  0.3735 -0.9926  1.4085
  101MOL    C4038240   4.982   7.059   3.607  0.0618 -0.1003  0.1083
  101MOL    C4138241   5.011   6.928   3.530 -0.1288 -0.1273 -0.6423
  101MOL    C4238242   5.142   6.859   3.583 -0.1825  0.4569  0.1059
  101MOL    C4338243   5.185   6.754   3.487 -0.2342  0.1615 -0.6752
  101MOL    C4438244   5.078   6.642   3.468 -0.7362  0.1649  0.5225
  101MOL    C4538245   5.122   6.556   3.344  0.2631  0.1000  0.2840
  101MOL    O4638246   5.019   6.953   3.389  0.0006  0.2992 -0.0863
  101MOL    H4738247   5.068   7.125   3.608  0.3881 -0.5241 -0.1960
  101MOL    H4838248   4.892   7.107   3.566 -1.1678 -0.3245  2.4713
  101MOL    H4938249   4.922   6.869   3.551  0.5498 -0.2816  1.9620
  101MOL    H5038250   5.225   6.928   3.593  0.5221 -0.6382  2.0585
  101MOL    H5138251   5.113   6.808   3.675 -2.4469  1.8914  0.2388
  101MOL    H5238252   5.272   6.708   3.534 -1.4267  1.0528  2.4626
  101MOL    H5338253   5.203   6.796   3.388 -0.5019  2.2111  0.1329
  101MOL    H5438254   5.061   6.589   3.562 -2.3823 -1.0625 -0.4490
  101MOL    H5538255   4.981   6.688   3.449  0.7421  2.7461 -1.0423
  101MOL    H5638256   5.221   6.518   3.371  1.1260  1.0060 -1.5430
  101MOL    H5738257   5.053   6.473   3.325  1.9173 -0.7547 -2.3111
  101MOL    H5838258   5.126   6.629   3.264 -0.9829  0.6816  0.7457
  101MOL    C5938259   4.896   6.964   3.311  0.6220  0.0302 -0.2820
  101MOL    C6038260   4.920   7.021   3.167  0.2252  0.5007  0.0235
  101MOL    C6138261   4.777   7.027   3.095  0.1216 -0.5026  0.4391
  101MOL    C6238262   4.775   7.082   2.950 -0.1584  0.1391 -0.3936
  101MOL    C6338263   4.649   7.048   2.866 -0.2697 -0.0036  0.4052
  101MOL    C6438264   4.625   6.905   2.824  0.3565  0.2919  0.6159
  101MOL    O6538265   4.970   7.154   3.172  0.0081 -0.1384 -0.3707
  101MOL    H6638266   4.837   7.038   3.365  0.9818 -0.2202  0.4634
  101MOL    H6738267   4.844   6.868   3.320 -0.0574  0.2911 -1.4281
  101MOL    H6838268   4.982   6.957   3.104  0.3250  1.3060 -0.6990
  101MOL    H6938269   4.717   7.096   3.153 -0.4365 -0.4505 -0.2026
  101MOL    H7038270   4.726   6.930   3.097 -0.7433 -0.0585  0.0159
  101MOL    H7138271   4.870   7.052   2.905 -0.1209  0.7298 -0.7157
  101MOL    H7238272   4.776   7.191   2.958 -3.1875  0.2743 -1.2451
  101MOL    H7338273   4.651   7.110   2.777  0.1040 -1.6711 -0.7773
  101MOL    H7438274   4.560   7.070   2.925  0.0322  1.7207  0.2453
  101MOL    H7538275   4.536   6.899   2.761  1.5018 -2.8162 -0.8270
  101MOL    H7638276   4.703   6.871   2.756  2.4266  0.1786  2.9760
  101MOL    H7738277   4.612   6.834   2.906  0.2520  0.2097  0.5276
  101MOL    C7838278   5.114   7.166   3.160 -0.2852  0.3012  0.4732
  101MOL    C7938279   5.149   7.320   3.161 -0.4010 -0.3605  0.0240
  101MOL    C8038280   5.167   7.374   3.014 -0.0801 -0.9883  0.4752
  101MOL    C8138281   5.192   7.525   3.013  0.8299 -0.4837 -0.1323
  101MOL    C8238282   5.073   7.606   2.988 -0.1891  0.4119  0.1373
  101MOL    C8338283   4.988   7.578   2.861 -0.2044 -0.0381 -0.1257
  101MOL    O8438284   5.265   7.343   3.239  0.0954 -0.5822 -0.6829
  101MOL    H8538285   5.148   7.115   3.070  1.7883 -0.3188  1.5771
  101MOL    H8638286   5.164   7.116   3.243 -0.6983 -2.0971 -0.6545
  101MOL    H8738287   5.071   7.387   3.195  0.5876  1.0193 -0.4081
  101MOL    H8838288   5.256   7.333   2.966  0.0641  1.3321 -1.3304
  101MOL    H8938289   5.089   7.338   2.948 -1.0745  1.5286  0.2144
  101MOL    H9038290   5.266   7.554   2.938  0.8237 -1.2900 -0.4572
  101MOL    H9138291   5.239   7.559   3.105  1.0824 -2.9284  0.6842
  101MOL    H9238292   5.000   7.590   3.067 -1.7118  1.7955 -0.9406
  101MOL    H9338293   5.102   7.711   2.995 -2.2046  1.1343 -1.6075
  101MOL    H9438294   5.048   7.608   2.775  0.4213 -0.1456  0.2721
  101MOL    H9538295   4.905   7.649   2.869 -0.2210 -0.2585  1.7066
  101MOL    H9638296   4.963   7.473   2.846 -0.2988 -0.0490  0.1060
  101MOL    C9738297   5.243   7.361   3.378  0.4784  0.5049 -0.4797
  101MOL    C9838298   5.376   7.344   3.450  0.1547  0.7727 -0.0575
  101MOL    C9938299   5.355   7.358   3.602  0.3923  0.1614  0.1777
  101MOL   C10038300   5.296   7.493   3.655  0.1830 -0.3279  1.0962
  101MOL   C10138301   5.319   7.517   3.798  0.3333 -0.0304 -0.4279
  101MOL   C10238302   5.271   7.408   3.888 -0.7162  0.1331 -0.2685
  101MOL   O10338303   5.412   7.217   3.412 -0.4275 -0.3296 -0.9382
  101MOL   H10438304   5.162   7.301   3.421  1.3966 -1.8995 -1.9612
  101MOL   H10538305   5.210   7.464   3.386  0.9465  0.6376 -0.2933
  101MOL   H10638306   5.436   7.430   3.421 -0.9068  1.2228 -0.9416
  101MOL   H10738307   5.455   7.348   3.645  0.5451 -3.3604 -0.8510
  101MOL   H10838308   5.308   7.271   3.647  0.0854 -0.1793 -0.7872
  101MOL   H10938309   5.187   7.492   3.644  0.0962 -0.4655  1.9797
  101MOL   H11038310   5.336   7.580   3.604 -2.2668 -0.1608 -0.6680
  101MOL   H11138311   5.267   7.610   3.820  1.6055  1.2283 -2.6094
  101MOL   H11238312   5.424   7.527   3.825 -0.0242  2.0300  0.2893
  101MOL   H11338313   5.274   7.433   3.994 -0.6709  1.8874 -0.6625
  101MOL   H11438314   5.163   7.401   3.878 -1.1748  3.0505  1.9066
  101MOL   H11538315   5.326   7.315   3.871 -0.1025 -0.0558  2.4972
  101MOL   C11638316   5.501   7.196   3.306  0.0829  0.6804  0.5559
  101MOL   C11738317   5.504   7.052   3.256  0.1270 -0.2119  0.0593
  101MOL   C11838318   5.558   6.955   3.366 -0.0984 -0.1118 -0.6671
  101MOL   C11938319   5.533   6.802   3.332 -0.3010  0.2357  0.1699
  101MOL   C12038320   5.588   6.711   3.438 -0.4471  0.2700  0.0741
  101MOL   C12138321   5.552   6.561   3.419  0.0265  0.2384  0.1569
  101MOL   O12238322   5.581   7.029   3.136  0.1121 -0.3534 -0.1378
  101MOL   H12338323   5.482   7.260   3.220 -0.7724 -0.7916 -0.3612
  101MOL   H12438324   5.600   7.226   3.341 -0.0877  0.0336  1.6481
  101MOL   H12538325   5.398   7.032   3.241  0.1639 -0.6865  0.4240
  101MOL   H12638326   5.662   6.974   3.390 -0.6430  0.4684  1.2814
  101MOL   H12738327   5.511   6.978   3.461  1.0379  2.0794 -0.6100
  101MOL   H12838328   5.575   6.773   3.236  1.3127 -1.5541  1.3998
  101MOL   H12938329   5.425   6.792   3.316  0.0026 -1.0687 -1.1470
  101MOL   H13038330   5.697   6.721   3.430 -0.5141 -0.5992 -2.5244
  101MOL   H13138331   5.541   6.746   3.529  2.9376 -1.4613  2.6049
  101MOL   H13238332   5.444   6.554   3.420 -0.0335  0.7876 -0.9255
  101MOL   H13338333   5.592   6.517   3.327 -0.6262  0.5378 -0.2799
  101MOL   H13438334   5.585   6.505   3.506  0.0569 -0.6380 -0.4122
  101MOL   C13538335   5.493   7.015   3.026  0.3003 -0.3112 -0.2282
  101MOL   C13638336   5.580   6.992   2.900 -0.2931  0.1864  0.2741
  101MOL   C13738337   5.507   7.032   2.768 -0.1821  0.2884  0.0125
  101MOL   C13838338   5.583   6.996   2.643 -0.3689 -0.7092 -0.0750
  101MOL   C13938339   5.512   7.044   2.513  0.5917  0.1248 -0.0319
  101MOL   C14038340   5.599   7.013   2.388 -0.5706 -0.4235  0.5616
  101MOL   O14138341   5.606   6.850   2.887 -0.4632 -0.2079  0.2021
  101MOL   H14238342   5.410   6.948   3.043 -1.1158  1.3454 -0.4788
  101MOL   H14338343   5.435   7.107   3.016 -1.6254 -1.5186 -0.1812
  101MOL   H14438344   5.671   7.051   2.905 -0.3499  0.1301  2.3070
  101MOL   H14538345   5.409   6.984   2.760  0.8347 -1.7988 -0.3705
  101MOL   H14638346   5.502   7.140   2.782 -0.1196  0.3174 -0.1858
  101MOL   H14738347   5.611   6.890   2.642 -0.5079 -0.7486 -1.7773
  101MOL   H14838348   5.678   7.051   2.644  0.5056 -2.1787  1.3892
  101MOL   H14938349   5.498   7.151   2.523  0.3085  0.0007  0.8900
  101MOL   H15038350   5.417   6.991   2.515  0.3809  0.5178  0.8328
  101MOL   H15138351   5.612   6.907   2.369  3.7066 -0.5296  3.2279
  101MOL   H15238352   5.569   7.059   2.294 -1.0692 -2.3485 -0.2293
  101MOL   H15338353   5.699   7.055   2.404 -0.2396 -1.3285  0.8840
  101MOL   C15438354   5.723   6.814   2.969 -0.1661  0.0979  0.5881
  101MOL   C15538355   5.807   6.706   2.901 -0.2178 -0.2187  0.8806
  101MOL   C15638356   5.919   6.770   2.818 -0.5915 -0.0889  0.2706
  101MOL   C15738357   5.985   6.674   2.721 -0.5522  0.5684  0.4787
  101MOL   C15838358   6.087   6.735   2.629  0.0965 -0.3441  0.3514
  101MOL   C15938359   6.034   6.852   2.544 -0.3188  1.3090 -0.4584
  101MOL   O16038360   5.869   6.609   2.987  0.6159  0.4907 -0.4437
  101MOL   H16138361   5.683   6.766   3.058 -0.0433  2.7167  2.1003
  101MOL   H16238362   5.790   6.892   3.004  1.3515  0.0959 -2.1541
  101MOL   H16338363   5.741   6.649   2.835 -1.7236  0.3017  1.9049
  101MOL   H16438364   5.996   6.816   2.880 -0.7535 -1.0535  1.2105
  101MOL   H16538365   5.863   6.851   2.770  0.0983  1.2709  1.7179
  101MOL   H16638366   5.898   6.637   2.666 -2.3301  0.0995  3.4798
  101MOL   H16738367   6.030   6.593   2.777 -1.2199 -1.2164 -1.5004
  101MOL   H16838368   6.175   6.772   2.683 -0.9473  1.9302  0.5460
  101MOL   H16938369   6.131   6.665   2.558  1.8684 -0.0136  1.0934
  101MOL   H17038370   6.103   6.896   2.472 -1.5822  0.3708 -2.3116
  101MOL   H17138371   5.995   6.939   2.597 -1.5528  1.2155 -1.1886
  101MOL   H17238372   5.946   6.812   2.492 -0.2169  1.3422 -0.6579
  101MOL   C17338373   5.797   6.500   3.027 -0.0904 -0.3712 -1.3264
  101MOL   C17438374   5.893   6.394   3.071 -0.0014  0.4553  0.0434
  101MOL   C17538375   5.872   6.332   3.215  0.3644 -0.2569  0.1123
  101MOL   C17638376   5.917   6.429   3.335  0.2265  0.4663 -0.3506
  101MOL   C17738377   5.886   6.363   3.471  0.4222 -0.0669 -0.2297
  101MOL   C17838378   5.918   6.459   3.595 -0.2190 -0.5701  0.4836
  101MOL   O17938379   5.883   6.274   2.997 -0.1152 -0.2085 -0.2769
  101MOL   H18038380   5.733   6.458   2.949 -0.3514  1.4888 -2.1356
  101MOL   H18138381   5.735   6.522   3.114  0.7524 -1.4996 -0.4200
  101MOL   H18238382   5.996   6.429   3.062 -0.8893  3.1180 -0.3367
  101MOL   H18338383   5.767   6.304   3.217  0.5847 -1.0011  1.3689
  101MOL   H18438384   5.934   6.243   3.225  1.1612  0.2499 -0.2074
  101MOL   H18538385   6.024   6.451   3.335  0.1147  1.0148  0.0104
  101MOL   H18638386   5.872   6.527   3.323  1.3652  1.3486  2.0925
  101MOL   H18738387   5.782   6.343   3.496  0.3288  0.3492 -0.2923
  101MOL   H18838388   5.929   6.263   3.475 -0.9741 -0.6199  2.5440
  101MOL   H18938389   5.869   6.406   3.676 -3.7253 -3.1784 -3.1583
  101MOL   H19038390   5.866   6.555   3.596  1.9399  0.6499  1.4559
  101MOL   H19138391   6.021   6.479   3.624 -0.9621  0.4136  2.5285
  101MOL   C19238392   5.936   6.282   2.869  0.4152 -0.2803 -0.0732
  101MOL   C19338393   5.869   6.178   2.767 -0.3458 -0.2388 -0.1193
  101MOL   C19438394   5.976   6.081   2.702 -0.3676 -0.2928 -0.1001
  101MOL   C19538395   5.933   5.985   2.592  0.4064  0.4316  0.8518
  101MOL   C19638396   5.843   5.862   2.631  0.1641  0.3339 -0.0216
  101MOL   C19738397   5.779   5.797   2.510  0.0832  0.3636 -0.3622
  101MOL   O19838398   5.798   6.251   2.664  0.2025 -0.4284 -0.1766
  101MOL   H19938399   5.929   6.383   2.829 -1.6589  0.1487  1.3073
  101MOL   H20038400   6.043   6.271   2.889  0.2569  0.4872  1.2871
  101MOL   H20138401   5.795   6.120   2.822 -0.0767 -0.8581 -0.4154
  101MOL   H20238402   6.050   6.145   2.655 -0.7331 -0.1266 -0.4535
  101MOL   H20338403   6.022   6.030   2.786 -0.6064  1.7720  1.3281
  101MOL   H20438404   6.025   5.948   2.547 -1.7655 -3.5472 -0.6389
  101MOL   H20538405   5.887   6.050   2.518  1.8803 -0.4320 -0.8673
  101MOL   H20638406   5.909   5.788   2.677 -0.1196  0.2231  0.2099
  101MOL   H20738407   5.762   5.885   2.700 -0.3161 -0.7399 -0.2282
  101MOL   H20838408   5.849   5.730   2.461  0.9987 -0.3715  1.8762
  101MOL   H20938409   5.704   5.723   2.537  1.5864 -1.2691 -0.5694
  101MOL   H21038410   5.741   5.876   2.446  1.1761 -0.3469 -1.9100
  101MOL   C21138411   5.655   6.257   2.687  0.0347  0.0913  0.4675
  101MOL   C21238412   5.600   6.352   2.577  0.5071  0.2454  0.1523
  101MOL   C21338413   5.509   6.463   2.646 -0.0377  1.3316 -0.3002
  101MOL   C21438414   5.433   6.555   2.553  1.0477  0.5761  0.2691
  101MOL   C21538415   5.347   6.650   2.640  0.1855  0.8220 -0.4160
  101MOL   C21638416   5.213   6.585   2.669  0.3013  0.5582  0.2097
  101MOL   O21738417   5.520   6.281   2.478  0.5377 -0.5040 -0.0190
  101MOL   H21838418   5.628   6.297   2.785  1.7671  1.9451  0.2290
  101MOL   H21938419   5.618   6.154   2.684 -0.0885  0.0254  2.9108
  101MOL   H22038420   5.669   6.406   2.512  0.4357  2.4524  1.8660
  101MOL   H22138421   5.448   6.405   2.715  2.7313 -1.2217  0.1112
  101MOL   H22238422   5.573   6.522   2.711  0.6139  0.8350 -0.4871
  101MOL   H22338423   5.496   6.600   2.476 -1.8107  1.8831 -1.4053
  101MOL   H22438424   5.372   6.481   2.501  0.7463  1.2234 -0.3149
  101MOL   H22538425   5.407   6.676   2.728  0.3380 -1.1681  0.0899
  101MOL   H22638426   5.326   6.745   2.590 -0.3446  1.1308  0.3849
  101MOL   H22738427   5.163   6.581   2.572  0.1993 -1.5424  0.3259
  101MOL   H22838428   5.148   6.626   2.747  0.7828  1.7739 -0.0227
  101MOL   H22938429   5.219   6.483   2.708 -2.1959  0.6076  0.8343
  101MOL   C23038430   5.599   6.199   2.395  0.3805 -0.0979 -0.0322
  101MOL   C23138431   5.503   6.135   2.289 -1.0297  0.5260  0.2950
  101MOL   C23238432   5.569   6.013   2.222 -0.2552  0.5112  0.1808
  101MOL   C23338433   5.696   6.049   2.135 -0.3023 -0.6067 -0.2533
  101MOL   C23438434   5.765   5.932   2.061 -0.1632  0.0683  0.4089
  101MOL   C23538435   5.884   5.962   1.983  0.3677  0.5808  0.1332
  101MOL   O23638436   5.466   6.216   2.184 -0.5538  0.0760 -0.1773
  101MOL   H23738437   5.675   6.254   2.338  0.7884 -0.4871  0.1377
  101MOL   H23838438   5.660   6.128   2.450 -0.9706 -0.1473  1.4576
  101MOL   H23938439   5.419   6.093   2.344 -1.8339 -1.9573 -2.6692
  101MOL   H24038440   5.490   5.973   2.158 -1.3443  1.3181  0.9947
  101MOL   H24138441   5.586   5.935   2.296 -2.1128 -0.2876 -0.2064
  101MOL   H24238442   5.764   6.100   2.204 -1.0142  0.7205 -0.5167
  101MOL   H24338443   5.661   6.121   2.061  3.1648 -0.2544 -1.6754
  101MOL   H24438444   5.783   5.860   2.140  4.0942  1.0067  0.3988
  101MOL   H24538445   5.691   5.897   1.989  2.1186 -0.0985 -1.9225
  101MOL   H24638446   5.946   5.875   1.961  0.2997  0.2821  1.0957
  101MOL   H24738447   5.952   6.029   2.036 -0.3810  0.0501  1.7978
  101MOL   H24838448   5.850   6.016   1.894  0.6857  1.7873  0.7310
  101MOL   C24938449   5.344   6.287   2.204 -0.1164  0.6879  0.0413
  101MOL   C25038450   5.224   6.198   2.161 -0.5385  0.4683  0.0857
  101MOL   C25138451   5.236   6.156   2.010 -0.5907  0.5754 -0.6245
  101MOL   C25238452   5.126   6.056   1.956  0.0302  0.2836  0.1095
  101MOL   C25338453   5.162   5.984   1.824 -0.6464  0.6272  0.2864
  101MOL   C25438454   5.061   5.885   1.760  0.3036 -0.2360  0.1607
  101MOL   O25538455   5.111   6.275   2.159 -0.1754 -0.3282 -0.1188
  101MOL   H25638456   5.328   6.325   2.305 -1.3966  1.2090 -0.3501
  101MOL   H25738457   5.350   6.374   2.139 -1.6401  1.7313  1.2827
  101MOL   H25838458   5.215   6.111   2.226  0.6495 -1.0053 -1.6666
  101MOL   H25938459   5.261   6.239   1.944  0.1599  1.1745  0.3978
  101MOL   H26038460   5.323   6.090   2.004 -0.8291  0.1648  0.3563
  101MOL   H26138461   5.122   5.972   2.025 -1.4645 -0.6229 -1.0287
  101MOL   H26238462   5.022   6.090   1.965 -0.6362 -0.7244 -3.0518
  101MOL   H26338463   5.195   6.059   1.752 -0.3941 -0.1047 -0.3795
  101MOL   H26438464   5.252   5.925   1.841  0.0633  1.5340 -0.2901
  101MOL   H26538465   4.961   5.927   1.745  0.4845 -0.7383 -2.7401
  101MOL   H26638466   5.039   5.810   1.836 -0.1399  0.3305  0.5994
  101MOL   H26738467   5.095   5.836   1.669 -0.0876 -1.2591  0.5537
  101MOL   C26838468   5.043   6.254   2.278 -0.7926 -0.1368 -0.0505
  101MOL   C26938469   4.924   6.345   2.254  0.0814  0.5801  0.0473
  101MOL   C27038470   4.881   6.401   2.391 -1.2809  0.6198  0.3249
  101MOL   C27138471   4.751   6.489   2.402  0.0816 -0.4996 -0.1794
  101MOL   C27238472   4.739   6.545   2.551 -0.6055 -0.1138 -0.1285
  101MOL   C27338473   4.597   6.587   2.595  0.1895  0.1521 -0.4551
  101MOL   O27438474   4.815   6.264   2.203 -0.0732 -0.0881 -0.1105
  101MOL   H27538475   5.106   6.290   2.359 -1.7536  0.8937  0.2464
  101MOL   H27638476   5.006   6.154   2.300  0.6294 -0.5956  0.3039
  101MOL   H27738477   4.952   6.427   2.188  0.7244  2.1031  2.1626
  101MOL   H27838478   4.883   6.325   2.470 -1.4382  0.8336  0.5341
  101MOL   H27938479   4.966   6.461   2.426 -1.0152  0.4292  0.0069
  101MOL   H28038480   4.756   6.572   2.331  0.0167 -0.2898  0.0614
  101MOL   H28138481   4.665   6.425   2.381  0.5596 -0.9401 -0.8047
  101MOL   H28238482   4.769   6.471   2.624  0.8182  0.6841  0.1136
  101MOL   H28338483   4.817   6.619   2.570 -1.2033  0.3286  0.6134
  101MOL   H28438484   4.598   6.651   2.683 -0.1049  1.2229 -1.2133
  101MOL   H28538485   4.548   6.646   2.518 -0.3009  1.3804  0.7735
  101MOL   H28638486   4.531   6.509   2.632  0.2563  0.2261 -0.1773
  101MOL   C28738487   4.783   6.292   2.063  0.0840 -0.4215  1.1080
  101MOL   C28838488   4.661   6.210   2.015 -0.9849  0.2819  0.1606
  101MOL   C28938489   4.682   6.146   1.876  0.0237  0.0569 -0.0272
  101MOL   C29038490   4.553   6.090   1.816  0.1153  0.2955 -0.1158
  101MOL   C29138491   4.587   6.044   1.678 -0.2889  1.0760 -0.2432
  101MOL   C29238492   4.462   5.974   1.617  0.7844 -0.6444  0.9396
  101MOL   O29338493   4.545   6.294   2.012  0.1797  0.2521 -0.0555
  101MOL   H29438494   4.871   6.254   2.011 -0.7933 -2.0696  0.7967
  101MOL   H29538495   4.773   6.399   2.044 -0.9182 -0.7778 -0.5061
  101MOL   H29638496   4.659   6.119   2.076  4.1636  0.3351  0.6046
  101MOL   H29738497   4.717   6.221   1.805 -0.7636  0.3928 -0.0600
  101MOL   H29838498   4.768   6.080   1.892 -0.6437 -0.3643  1.9654
  101MOL   H29938499   4.527   6.003   1.877 -1.3250  0.9874  0.2877
  101MOL   H30038500   4.468   6.156   1.802  0.9537  1.5811  0.7142
  101MOL   H30138501   4.674   5.978   1.680  0.0769  1.6005  1.9458
  101MOL   H30238502   4.614   6.131   1.618  0.7280  0.7189 -0.3105
  101MOL   H30338503   4.434   5.870   1.638 -0.7331 -0.4818 -0.1459
  101MOL   H30438504   4.374   6.037   1.627  1.0725  0.2550 -1.7544
  101MOL   H30538505   4.481   5.966   1.510 -0.5032  0.2195  0.6296
  101MOL   C30638506   4.458   6.283   2.123  0.5246 -0.0131  0.5477
  101MOL   C30738507   4.357   6.399   2.111  0.0382  0.4919 -0.5320
  101MOL   C30838508   4.310   6.438   2.245 -0.8874 -0.2219 -0.3089
  101MOL   C30938509   4.223   6.562   2.226  0.2570 -0.0343 -0.0565
  101MOL   C31038510   4.163   6.622   2.355 -0.0413 -0.2369  0.1237
  101MOL   C31138511   4.081   6.755   2.329  0.0225  0.7383  0.3938
  101MOL   O31238512   4.245   6.349   2.033  0.3746  0.4776 -0.3343
  101MOL   H31338513   4.407   6.187   2.119 -2.7014  1.6028  0.6755
  101MOL   H31438514   4.519   6.296   2.212  1.0529 -0.4540  0.2480
  101MOL   H31538515   4.410   6.484   2.069  0.7805  1.2747  1.9315
  101MOL   H31638516   4.399   6.449   2.307 -0.8393  1.9498 -0.7300
  101MOL   H31738517   4.257   6.354   2.292 -0.1134 -0.9614 -0.7571
  101MOL   H31838518   4.283   6.634   2.170 -1.0846  2.1044  1.1988
  101MOL   H31938519   4.138   6.533   2.165 -1.2671  1.1777  1.4419
  101MOL   H32038520   4.242   6.660   2.420 -0.7102 -0.2034  0.9279
  101MOL   H32138521   4.113   6.550   2.418  2.0659 -0.1797  1.9369
  101MOL   H32238522   4.056   6.792   2.428  2.2071 -1.1458  1.6818
  101MOL   H32338523   4.142   6.823   2.270  3.7872 -0.4303  2.7650
  101MOL   H32438524   3.982   6.730   2.289  0.6211 -1.9108  0.4727
  101MOL   C32538525   4.246   6.373   1.903  0.9558  0.3382 -0.3423
  101MOL   C32638526   4.142   6.288   1.829 -0.2114  0.2201 -0.2437
  101MOL   C32738527   4.163   6.295   1.678 -0.1758 -0.1106  0.5303
  101MOL   C32838528   4.107   6.179   1.598 -0.0191  1.2706  0.1649
  101MOL   C32938529   4.092   6.214   1.447  0.0396 -0.2689 -0.7390
  101MOL   C33038530   4.022   6.108   1.368 -0.6328  0.1498  0.6643
  101MOL   O33138531   4.007   6.338   1.864 -0.1827  0.1772  0.5523
  101MOL   H33238532   4.344   6.342   1.864  0.6697 -1.1036  0.0416
  101MOL   H33338533   4.229   6.478   1.884 -0.8995 -0.1853 -1.6540
  101MOL   H33438534   4.149   6.183   1.856 -0.7422 -0.0837 -1.2932
  101MOL   H33538535   4.127   6.389   1.636  0.5155  0.0993  0.3970
  101MOL   H33638536   4.271   6.288   1.664 -0.0396 -0.1463  1.5500
  101MOL   H33738537   4.166   6.088   1.604 -0.4712  1.0068  0.6020
  101MOL   H33838538   4.011   6.146   1.637  0.5595 -0.5722  0.0930
  101MOL   H33938539   4.040   6.309   1.438 -1.6061 -0.9623  0.9340
  101MOL   H34038540   4.187   6.235   1.400 -0.6766  2.1931 -1.1512
  101MOL   H34138541   3.915   6.109   1.393 -0.0759 -2.2081  3.4151
  101MOL   H34238542   4.039   6.131   1.263  0.7104  0.9944  1.0512
  101MOL   H34338543   4.060   6.009   1.391  0.3122  0.1924 -0.6656
  101MOL   C34438544   3.948   6.268   1.975 -0.4817 -0.8320 -0.6879
  101MOL   C34538545   3.848   6.161   1.936  0.1734  0.8864  0.3650
  101MOL   C34638546   3.814   6.061   2.050  0.2560 -0.6665  0.1583
  101MOL   C34738547   3.731   5.942   2.000  0.4656 -0.1747  0.3756
  101MOL   C34838548   3.710   5.831   2.100 -0.2182 -0.6406  0.5650
  101MOL   C34938549   3.679   5.693   2.037  0.2060 -0.3669  0.1543
  101MOL   O35038550   3.726   6.220   1.886  0.8553 -0.5828 -0.5748
  101MOL   H35138551   3.893   6.332   2.044 -0.3718  1.0149 -2.2682
  101MOL   H35238552   4.023   6.222   2.040 -2.0048 -1.6694  0.5136
  101MOL   H35338553   3.886   6.099   1.854 -1.4905 -2.5208  2.0833
  101MOL   H35438554   3.758   6.123   2.120  1.2485  1.9286 -1.2772
  101MOL   H35538555   3.903   6.025   2.101  2.7541  3.3238 -1.1483
  101MOL   H35638556   3.786   5.902   1.915  2.0913  0.8251  0.9316
  101MOL   H35738557   3.638   5.967   1.949 -0.1967  1.2056  2.2457
  101MOL   H35838558   3.640   5.855   2.181 -2.0569  0.1000 -1.2012
  101MOL   H35938559   3.807   5.823   2.149  1.2939 -0.7482 -2.3493
  101MOL   H36038560   3.694   5.616   2.113  1.9025  0.5442  0.7673
  101MOL   H36138561   3.735   5.671   1.946 -0.8233 -0.8206 -0.3741
  101MOL   H36238562   3.578   5.675   1.999  1.1890 -1.5859 -1.9990
  101MOL   C36338563   3.688   6.190   1.748 -0.2843  0.1372  0.2493
  101MOL   C36438564   3.587   6.293   1.691 -0.1166  0.4252 -0.7718
  101MOL   C36538565   3.541   6.255   1.551  0.0982 -0.2213 -0.1749
  101MOL   C36638566   3.662   6.216   1.457  0.1651 -0.3308  0.1878
  101MOL   C36738567   3.611   6.213   1.316 -0.2974 -0.0493 -0.2923
  101MOL   C36838568   3.695   6.143   1.208  0.2026 -0.0019  0.4754
  101MOL   O36938569   3.473   6.301   1.771  0.0421  0.1417 -0.1749
  101MOL   H37038570   3.659   6.085   1.748  0.6781 -0.1313 -0.7166
  101MOL   H37138571   3.780   6.206   1.692 -0.3137 -1.0799 -0.1631
  101MOL   H37238572   3.638   6.388   1.680 -2.1986  1.6165 -0.3151
  101MOL   H37338573   3.478   6.166   1.544 -3.1341  1.9584 -0.0162
  101MOL   H37438574   3.480   6.336   1.510  0.2727  0.4582  0.8813
  101MOL   H37538575   3.741   6.291   1.465 -2.0420  2.3097 -1.8967
  101MOL   H37638576   3.709   6.120   1.479  1.8024  0.4723  0.2853
  101MOL   H37738577   3.517   6.158   1.307 -1.1766  1.5404 -1.0773
  101MOL   H37838578   3.607   6.315   1.277 -1.6987  0.5998  1.4539
  101MOL   H37938579   3.689   6.034   1.219 -1.7219  0.0487  0.0505
  101MOL   H38038580   3.667   6.172   1.107 -2.2204 -0.5497  0.9543
  101MOL   H38138581   3.801   6.167   1.220  0.2851 -0.8714  1.5833
  101MOL   H38238582   3.496   6.281   1.861  0.3000  1.3068  0.0335
  102MOL     C138583   1.167   7.684   3.936  0.3529 -0.1832  0.0920
  102MOL     C238584   1.172   0.048   3.918  0.8275 -0.7785 -0.0371
  102MOL     C338585   1.193   0.121   4.059  0.2902 -0.4190 -0.0311
  102MOL     C438586   1.122   0.256   4.062 -1.0115  0.5550  0.1921
  102MOL     C538587   1.117   0.323   4.199 -0.4872  0.3622 -0.6511
  102MOL     C638588   1.075   0.473   4.182 -0.4314  0.4792 -0.6397
  102MOL     O738589   1.284   0.100   3.850 -0.1890  0.3011 -0.1512
  102MOL     H838590   1.103   7.638   3.860  0.4391 -0.0567 -0.0557
  102MOL     H938591   1.146   7.659   4.040  1.6915  1.2341  0.7192
  102MOL    H1038592   1.082   0.089   3.872  1.8134 -2.5305 -3.7704
  102MOL    H1138593   1.149   0.068   4.144 -0.3378  2.1258  1.3007
  102MOL    H1238594   1.298   0.131   4.083  0.0627 -0.0638  0.8540
  102MOL    H1338595   1.161   0.322   3.984  2.2208 -2.2414 -0.6746
  102MOL    H1438596   1.022   0.243   4.020 -0.5086 -1.2208 -0.5102
  102MOL    H1538597   1.057   0.261   4.266 -0.5121 -3.1404 -3.7583
  102MOL    H1638598   1.213   0.301   4.246 -1.1432  0.8119  0.9323
  102MOL    H1738599   1.093   0.518   4.280  1.1787 -1.0748 -0.2118
  102MOL    H1838600   1.146   0.516   4.112  0.3872  1.6193  0.8626
  102MOL    H1938601   0.971   0.495   4.157 -0.2463  2.3209  0.1471
  102MOL    H2038602   1.264   7.634   3.930  0.6955  0.6061 -1.0503
  102MOL    C2138603   1.277   0.095   3.706 -0.0667 -0.3364 -0.0418
  102MOL    C2238604   1.379   0.196   3.647  0.6535 -0.5039  0.6991
  102MOL    C2338605   1.342   0.339   3.687 -0.2053  0.1837  0.2292
  102MOL    C2438606   1.432   0.450   3.620 -1.0017 -0.5203 -0.6669
  102MOL    C2538607   1.357   0.579   3.639  0.6279 -0.0012  0.0325
  102MOL    C2638608   1.453   0.686   3.584  0.6270 -0.2331  0.0325
  102MOL    O2738609   1.513   0.168   3.670  0.1830  0.5752 -0.8371
  102MOL    H2838610   1.292   7.777   3.673  2.2393  0.0793 -0.3609
  102MOL    H2938611   1.178   0.126   3.673  0.0383  2.3807  2.1091
  102MOL    H3038612   1.372   0.193   3.538 -0.0938 -1.6406  0.7732
  102MOL    H3138613   1.359   0.355   3.793 -1.0160  0.3635  0.3359
  102MOL    H3238614   1.234   0.344   3.679 -0.1394  0.5152 -0.5049
  102MOL    H3338615   1.434   0.430   3.513  1.4424 -1.4478 -0.4917
  102MOL    H3438616   1.533   0.466   3.658 -0.8625  1.2057 -1.6725
  102MOL    H3538617   1.264   0.568   3.584 -0.7193  0.4551  2.1657
  102MOL    H3638618   1.331   0.600   3.742 -0.0978  0.6233 -0.2768
  102MOL    H3738619   1.397   0.778   3.594 -1.5809 -1.3855 -1.4208
  102MOL    H3838620   1.492   0.676   3.483  0.9045  1.4921 -0.0400
  102MOL    H3938621   1.535   0.690   3.656  0.0011 -1.5324  0.8251
  102MOL    C4038622   1.556   0.054   3.593 -0.1105 -0.2296 -0.3502
  102MOL    C4138623   1.683   7.778   3.664 -0.2791 -0.2806 -0.0938
  102MOL    C4238624   1.806   7.782   3.572 -0.6851 -0.8287  0.2892
  102MOL    C4338625   1.779   7.687   3.456 -0.1427  0.1945  0.1686
  102MOL    C4438626   1.910   7.632   3.388  0.2401 -0.4994  0.0513
  102MOL    C4538627   1.992   7.741   3.315 -1.0528 -0.5087  0.0101
  102MOL    O4638628   1.665   7.660   3.725 -0.0505  0.2737 -0.4839
  102MOL    H4738629   1.586   0.104   3.501  1.0574  2.2056  1.2838
  102MOL    H4838630   1.477   7.772   3.561 -1.2416  0.4184  1.0652
  102MOL    H4938631   1.708   0.062   3.745 -3.1520  0.6530  0.0460
  102MOL    H5038632   1.824   0.092   3.523 -0.3374 -0.0579  1.8745
  102MOL    H5138633   1.889   7.742   3.631  0.0978  0.4701  0.0807
  102MOL    H5238634   1.709   7.723   3.381 -1.6500 -1.0983  0.9329
  102MOL    H5338635   1.724   7.600   3.492  0.9590  0.1900  1.8861
  102MOL    H5438636   1.970   7.574   3.458 -1.0609 -0.7482  0.9791
  102MOL    H5538637   1.870   7.561   3.315  1.5077  0.4774 -1.6240
  102MOL    H5638638   1.933   0.004   3.237 -0.9803 -2.1193 -1.0844
  102MOL    H5738639   2.040   0.028   3.380  3.2846 -3.2505  0.0489
  102MOL    H5838640   2.077   7.687   3.273 -2.5997 -0.9057 -2.7686
  102MOL    C5938641   1.560   7.652   3.832 -0.1267  0.9760 -0.0948
  102MOL    C6038642   1.620   7.557   3.938 -0.3368  0.9691  0.0067
  102MOL    C6138643   1.522   7.519   4.050 -0.1030 -0.0243  0.3926
  102MOL    C6238644   1.586   7.432   4.166 -0.9047  0.0100 -0.1317
  102MOL    C6338645   1.497   7.427   4.297  0.0295  0.3910 -0.2306
  102MOL    C6438646   1.580   7.407   4.426 -0.3354  0.3167  0.2744
  102MOL    O6538647   1.637   7.425   3.883  0.4326  0.2555 -0.0085
  102MOL    H6638648   1.468   7.606   3.797  0.9364 -1.6350  0.4576
  102MOL    H6738649   1.540   7.749   3.878  0.4362  1.1452 -0.2046
  102MOL    H6838650   1.713   7.596   3.977 -0.1396  1.8799 -1.3219
  102MOL    H6938651   1.439   7.463   4.009  0.7115 -0.0064 -1.3248
  102MOL    H7038652   1.471   7.604   4.096 -0.3303 -0.0442  0.1778
  102MOL    H7138653   1.681   7.482   4.187 -1.3455  1.0193 -0.5100
  102MOL    H7238654   1.613   7.329   4.143  2.8260  1.1990 -1.3076
  102MOL    H7338655   1.425   7.346   4.282 -1.0006  1.0891  0.8480
  102MOL    H7438656   1.438   7.519   4.301  0.0602  0.3282  1.9042
  102MOL    H7538657   1.618   7.503   4.462  2.6979 -1.8956  3.2204
  102MOL    H7638658   1.525   7.364   4.509  2.9925 -2.9738  0.8760
  102MOL    H7738659   1.669   7.346   4.411  0.8521  2.2953 -1.0468
  102MOL    C7838660   1.770   7.400   3.833  0.0823 -0.2166  0.2207
  102MOL    C7938661   1.778   7.271   3.746  0.6795 -0.7256 -0.9438
  102MOL    C8038662   1.677   7.260   3.631  0.2335 -0.0387 -1.0824
  102MOL    C8138663   1.708   7.142   3.534  0.2293  0.4235 -0.5650
  102MOL    C8238664   1.605   7.144   3.421  0.0805 -0.5607 -0.1882
  102MOL    C8338665   1.602   7.022   3.331 -0.1928 -0.1419 -0.1432
  102MOL    O8438666   1.762   7.163   3.839  0.8218  0.0045  0.2112
  102MOL    H8538667   1.838   7.395   3.918  2.0172 -0.2693 -1.2974
  102MOL    H8638668   1.802   7.486   3.773 -1.4464 -0.4066 -0.9054
  102MOL    H8738669   1.879   7.271   3.704  0.8085 -1.6932 -0.6465
  102MOL    H8838670   1.576   7.252   3.673  1.0133  0.6487  0.9565
  102MOL    H8938671   1.666   7.350   3.570 -0.1573  0.1269 -0.7758
  102MOL    H9038672   1.699   7.049   3.590  0.6071 -0.6136 -2.2090
  102MOL    H9138673   1.812   7.155   3.503  0.3821 -1.9605 -1.1377
  102MOL    H9238674   1.499   7.145   3.446  0.3162  1.5854  0.9136
  102MOL    H9338675   1.619   7.232   3.357 -2.5924 -1.3367 -1.8964
  102MOL    H9438676   1.697   7.010   3.278  1.1152 -1.7211  2.4566
  102MOL    H9538677   1.528   7.030   3.252  0.2738  0.3772 -0.5299
  102MOL    H9638678   1.589   6.934   3.394  0.9096 -0.2349 -0.0214
  102MOL    C9738679   1.883   7.095   3.872  0.1410  0.0698 -0.1613
  102MOL    C9838680   1.874   6.975   3.978 -0.5140  0.3623  0.1471
  102MOL    C9938681   1.953   6.846   3.932  1.0001 -0.2337 -0.6325
  102MOL   C10038682   1.934   6.731   4.032 -0.6367 -0.2021 -0.5992
  102MOL   C10138683   1.828   6.626   3.992  0.1226  0.2758  0.2278
  102MOL   C10238684   1.860   6.523   3.882 -0.2258  0.5122  0.9141
  102MOL   O10338685   1.926   7.020   4.101 -0.9205 -0.1089 -0.3121
  102MOL   H10438686   1.952   7.166   3.917 -0.3351  0.3374  0.1507
  102MOL   H10538687   1.923   7.064   3.776  1.2590 -1.9116  0.9098
  102MOL   H10638688   1.769   6.951   3.995 -0.1892 -0.8064  0.5272
  102MOL   H10738689   2.060   6.866   3.920  1.2423 -0.9888  0.2846
  102MOL   H10838690   1.911   6.821   3.834 -0.7114  1.3299 -0.3161
  102MOL   H10938691   1.918   6.770   4.132  0.3002 -2.9584  0.6712
  102MOL   H11038692   2.033   6.685   4.037 -1.4039 -1.6089  3.3335
  102MOL   H11138693   1.732   6.669   3.965  0.3989  1.6862  1.3773
  102MOL   H11238694   1.814   6.566   4.082 -0.2795  1.5737  1.0457
  102MOL   H11338695   1.773   6.459   3.865  0.7732 -1.3861  2.6557
  102MOL   H11438696   1.882   6.566   3.785  0.8311  0.2807  1.0493
  102MOL   H11538697   1.951   6.468   3.907 -0.8988 -1.9452 -1.7484
  102MOL   C11638698   1.844   7.117   4.171 -0.0938 -0.3321  0.1336
  102MOL   C11738699   1.950   7.167   4.281 -0.0234  0.2152  0.3690
  102MOL   C11838700   1.940   7.074   4.406 -1.1364  0.5562 -0.3144
  102MOL   C11938701   2.050   7.089   4.512  0.0930  0.3204  0.1563
  102MOL   C12038702   2.079   6.961   4.596  0.0581  0.4144  1.3915
  102MOL   C12138703   2.188   6.960   4.710  0.0656  0.4606 -0.2887
  102MOL   O12238704   1.930   7.294   4.325  0.1332 -0.2710  0.0224
  102MOL   H12338705   1.797   7.191   4.106  0.5599  0.3127  0.3842
  102MOL   H12438706   1.749   7.085   4.213  0.7912  0.3336  2.7774
  102MOL   H12538707   2.052   7.165   4.244 -0.6362 -2.0092 -1.2864
  102MOL   H12638708   1.845   7.090   4.456 -0.6917  1.0365  0.3827
  102MOL   H12738709   1.936   6.970   4.371  3.0024  0.5249 -0.9825
  102MOL   H12838710   2.014   7.165   4.582  3.2100  0.3733  1.7817
  102MOL   H12938711   2.140   7.124   4.461  0.6133  0.5683  1.2266
  102MOL   H13038712   1.991   6.907   4.632 -0.0675  0.1520  0.6960
  102MOL   H13138713   2.125   6.893   4.524  0.8013  1.7967  0.5428
  102MOL   H13238714   2.143   7.018   4.791 -0.0263 -0.4463  0.3197
  102MOL   H13338715   2.207   6.860   4.748  0.1260 -0.0790 -1.7503
  102MOL   H13438716   2.281   7.009   4.679  0.9561 -0.2155  1.2216
  102MOL   C13538717   1.948   7.398   4.224  0.9012  0.4460 -0.5255
  102MOL   C13638718   1.960   7.540   4.295 -0.0685  0.4794  0.4602
  102MOL   C13738719   1.928   7.655   4.194 -0.7499  0.2035  0.1216
  102MOL   C13838720   1.952   0.004   4.262  0.6693  0.7889  0.1725
  102MOL   C13938721   1.899   0.124   4.184  0.9169  0.2556  0.3989
  102MOL   C14038722   1.943   0.257   4.248  0.3138 -0.4041 -0.5222
  102MOL   O14138723   2.089   7.564   4.341 -0.2866  0.3494  0.2669
  102MOL   H14238724   2.039   7.382   4.166  0.7703 -2.2093 -0.0542
  102MOL   H14338725   1.868   7.395   4.151  1.5656 -1.2820 -1.2004
  102MOL   H14438726   1.896   7.544   4.383 -0.8010  0.6477 -0.0743
  102MOL   H14538727   1.982   7.645   4.100 -0.3574 -1.4599  0.5032
  102MOL   H14638728   1.822   7.645   4.169 -0.6358 -1.0392  0.1100
  102MOL   H14738729   2.060   0.016   4.267  0.7501  0.5812 -1.0304
  102MOL   H14838730   1.900   0.006   4.358  1.1430 -0.4739  0.4643
  102MOL   H14938731   1.791   0.139   4.181  1.1041  1.9502  1.4538
  102MOL   H15038732   1.927   0.120   4.078 -0.1249  2.3317  0.0119
  102MOL   H15138733   1.932   0.330   4.167  1.4163  2.5075  1.8532
  102MOL   H15238734   1.884   0.286   4.335  0.2395  0.1060 -0.7420
  102MOL   H15338735   2.050   0.258   4.267  0.2087 -0.6533  0.1026
  102MOL   C15438736   2.127   7.486   4.458 -0.4010  0.2446 -0.4728
  102MOL   C15538737   2.254   7.533   4.528 -0.3572 -0.4863  0.5745
  102MOL   C15638738   2.277   7.480   4.678 -0.7021  0.6852 -0.1889
  102MOL   C15738739   2.413   7.513   4.745  0.0687  0.0227 -0.5222
  102MOL   C15838740   2.416   7.474   4.900  0.2169  0.1845  0.0887
  102MOL   C15938741   2.395   7.324   4.915 -0.4049  0.1809 -0.1919
  102MOL   O16038742   2.364   7.489   4.452  0.0224 -0.0614 -0.0963
  102MOL   H16138743   2.133   7.379   4.440 -0.0505  0.2877 -0.6159
  102MOL   H16238744   2.045   7.493   4.530 -1.2189 -1.5123 -1.2235
  102MOL   H16338745   2.252   7.640   4.546 -0.5995 -0.6566  1.5946
  102MOL   H16438746   2.251   7.375   4.694  0.1225  1.0070  3.5265
  102MOL   H16538747   2.200   7.540   4.725  0.0772  1.3997  0.1944
  102MOL   H16638748   2.455   7.614   4.743  0.6016 -0.0946  2.1280
  102MOL   H16738749   2.496   7.453   4.710  1.3392 -0.8893  3.7910
  102MOL   H16838750   2.515   7.499   4.939 -0.3328  0.0086  1.6495
  102MOL   H16938751   2.350   7.542   4.954 -0.7673  0.5286 -1.5044
  102MOL   H17038752   2.421   7.304   5.019 -1.8738 -0.9312 -0.0263
  102MOL   H17138753   2.468   7.281   4.846  0.8016  2.5599 -0.4817
  102MOL   H17238754   2.295   7.287   4.892  0.4094 -2.1597 -0.0761
  102MOL   C17338755   2.431   7.578   4.366 -0.0189  0.9358  0.0418
  102MOL   C17438756   2.504   7.500   4.260  0.5209  0.3385 -0.7302
  102MOL   C17538757   2.533   7.594   4.145  0.7342  1.0680  0.1640
  102MOL   C17638758   2.600   7.535   4.023  0.0336 -0.5629 -0.6418
  102MOL   C17738759   2.644   7.644   3.924  0.0448  0.0062 -0.4103
  102MOL   C17838760   2.751   7.586   3.818  0.1240  0.4262 -0.0830
  102MOL   O17938761   2.633   7.448   4.297  0.1395  0.3077  0.2808
  102MOL   H18038762   2.502   7.647   4.413  0.5027  0.4732 -0.0580
  102MOL   H18138763   2.355   7.644   4.325  0.0013 -0.0157 -1.5368
  102MOL   H18238764   2.448   7.411   4.231 -0.1374  0.4533  0.1618
  102MOL   H18338765   2.437   7.634   4.111 -0.2008 -1.9370 -0.8789
  102MOL   H18438766   2.593   7.675   4.187  1.1485  1.1081 -0.4938
  102MOL   H18538767   2.694   7.500   4.066 -0.6413  0.6210  1.9425
  102MOL   H18638768   2.550   7.453   3.973 -0.1164 -0.0457 -1.3447
  102MOL   H18738769   2.551   7.659   3.869 -0.1087  1.8247  0.3123
  102MOL   H18838770   2.680   7.740   3.962 -0.7002  0.9232 -1.9383
  102MOL   H18938771   2.822   7.518   3.864 -0.1781 -0.2543 -0.6209
  102MOL   H19038772   2.791   7.667   3.756 -1.4061  0.0910 -1.5626
  102MOL   H19138773   2.696   7.521   3.749 -0.1728  0.0495  0.5038
  102MOL   C19238774   2.621   7.349   4.401  0.4500  0.3158 -1.3319
  102MOL   C19338775   2.752   7.265   4.391  0.3955  0.8374 -0.9305
  102MOL   C19438776   2.727   7.117   4.434  0.4201  0.1428  0.6982
  102MOL   C19538777   2.651   7.096   4.567 -0.6375  0.9638  0.1800
  102MOL   C19638778   2.694   6.974   4.644  0.7087 -0.1380 -0.2839
  102MOL   C19738779   2.620   6.971   4.777 -0.3730 -0.7029  0.4323
  102MOL   O19838780   2.839   7.324   4.480  0.4095  0.1570  0.4255
  102MOL   H19938781   2.615   7.392   4.501  1.7591 -2.7566  0.1015
  102MOL   H20038782   2.528   7.292   4.395  0.2821  0.4457 -0.0513
  102MOL   H20138783   2.781   7.262   4.286 -1.6245 -1.1354 -1.4895
  102MOL   H20238784   2.659   7.083   4.356 -2.6276  1.8399  2.5461
  102MOL   H20338785   2.822   7.063   4.434 -0.5857 -1.6774 -0.1871
  102MOL   H20438786   2.547   7.091   4.537 -0.6571  0.4534  0.3316
  102MOL   H20538787   2.672   7.175   4.638  1.2467 -1.5949  2.5803
  102MOL   H20638788   2.671   6.892   4.576  2.6322  1.6066 -3.1641
  102MOL   H20738789   2.802   6.970   4.661  0.4886 -0.2693  1.1074
  102MOL   H20838790   2.664   7.050   4.839  1.2983 -1.1815 -0.1188
  102MOL   H20938791   2.511   6.971   4.768 -0.2853 -0.0746 -0.6841
  102MOL   H21038792   2.636   6.875   4.827 -0.9645 -2.3680 -2.4532
  102MOL   C21138793   2.906   7.443   4.436  0.1009  0.0730 -0.1821
  102MOL   C21238794   2.855   7.564   4.517 -0.5560  0.1909 -0.9146
  102MOL   C21338795   2.852   7.695   4.429 -0.2943  0.2428 -0.9067
  102MOL   C21438796   2.800   0.032   4.508 -0.3895 -0.1368  0.2453
  102MOL   C21538797   2.767   0.147   4.417  0.4219 -0.6489  0.2353
  102MOL   C21638798   2.721   0.269   4.502  0.1765 -0.5531 -0.2830
  102MOL   O21738799   2.946   7.603   4.626 -0.4329 -0.1163  0.2542
  102MOL   H21838800   2.911   7.452   4.328  1.3485  1.8313 -0.0011
  102MOL   H21938801   3.010   7.427   4.466  1.0147  2.5317 -1.8886
  102MOL   H22038802   2.756   7.541   4.557 -1.0593  0.3134 -2.0701
  102MOL   H22138803   2.947   7.725   4.385 -0.0910 -0.6199 -1.0569
  102MOL   H22238804   2.775   7.683   4.353 -1.4264  2.1018 -0.0933
  102MOL   H22338805   2.712   0.000   4.564 -0.5628 -1.4334 -0.7452
  102MOL   H22438806   2.877   0.063   4.579 -0.2540  0.2959 -0.0903
  102MOL   H22538807   2.838   0.186   4.345 -2.2933 -0.8790 -2.7095
  102MOL   H22638808   2.687   0.114   4.350  0.5203  0.9192 -0.6697
  102MOL   H22738809   2.677   0.346   4.439  0.3661 -0.9449 -0.9067
  102MOL   H22838810   2.799   0.304   4.569 -2.1397  1.5691  1.3879
  102MOL   H22938811   2.637   0.237   4.564  0.1540  0.3252  0.1338
  102MOL   C23038812   2.935   7.516   4.734 -0.6211  0.1812 -0.7638
  102MOL   C23138813   3.008   7.575   4.858 -0.2560  0.2904  0.4225
  102MOL   C23238814   3.075   7.483   4.951 -0.7630 -0.1055  0.2235
  102MOL   C23338815   3.202   7.422   4.894  0.6901  0.2675 -0.4467
  102MOL   C23438816   3.256   7.300   4.970 -0.4596 -0.2597  0.7842
  102MOL   C23538817   3.372   7.238   4.894 -0.3387  0.0921 -0.0819
  102MOL   O23638818   2.912   7.645   4.941  0.1665  0.1406 -0.1888
  102MOL   H23738819   2.833   7.504   4.768 -0.5119  0.5109 -0.3218
  102MOL   H23838820   2.965   7.415   4.704 -0.9274 -0.6608  1.6308
  102MOL   H23938821   3.085   7.648   4.831 -1.3679  0.7166 -1.6819
  102MOL   H24038822   3.000   7.407   4.973 -0.7813  0.2690  1.4917
  102MOL   H24138823   3.093   7.549   5.037  0.6177 -1.4208  0.9595
  102MOL   H24238824   3.281   7.497   4.895  1.3278 -0.3828 -1.0117
  102MOL   H24338825   3.192   7.388   4.791  0.9460  0.4259 -0.5234
  102MOL   H24438826   3.289   7.334   5.068  0.3503  0.5525  0.2380
  102MOL   H24538827   3.165   7.241   4.977 -0.8399  0.4071  1.5817
  102MOL   H24638828   3.425   7.154   4.939  1.3162  1.4275  0.5518
  102MOL   H24738829   3.447   7.318   4.895 -0.3046  0.0896 -1.9176
  102MOL   H24838830   3.351   7.208   4.792  0.7491 -0.5073 -0.1350
  102MOL   C24938831   2.898   7.779   4.913 -0.9929  0.2622  0.4797
  102MOL   C25038832   2.768   0.061   4.954  0.5379 -0.2120 -0.7211
  102MOL   C25138833   2.753   0.201   4.899  0.1553  0.4512 -0.3218
  102MOL   C25238834   2.615   0.249   4.947 -0.7038 -0.0275  0.1841
  102MOL   C25338835   2.574   0.389   4.894  0.0563  0.6799  0.2501
  102MOL   C25438836   2.455   0.439   4.974 -0.2016 -0.5036 -0.0527
  102MOL   O25538837   2.778   0.084   5.098 -0.1988  0.1914 -0.0305
  102MOL   H25638838   2.979   0.053   4.954 -1.8520  2.1477 -0.5356
  102MOL   H25738839   2.900   0.013   4.806 -0.5402 -0.9807  0.2528
  102MOL   H25838840   2.686   7.781   4.924  0.7472  0.3461 -2.6133
  102MOL   H25938841   2.833   0.269   4.927  0.1608  0.6523 -0.8301
  102MOL   H26038842   2.760   0.202   4.791  0.4819 -0.8513 -0.3205
  102MOL   H26138843   2.538   0.180   4.911 -1.2605  0.4532  0.4338
  102MOL   H26238844   2.607   0.251   5.056  1.2203 -0.6171  0.3486
  102MOL   H26338845   2.652   0.465   4.894 -1.8707  2.6875 -0.3874
  102MOL   H26438846   2.542   0.369   4.792 -1.0741 -1.8492  1.0465
  102MOL   H26538847   2.384   0.493   4.911  1.6657  0.5791 -1.2739
  102MOL   H26638848   2.493   0.498   5.057 -0.6557 -0.0334 -0.1719
  102MOL   H26738849   2.397   0.353   5.007 -0.5272 -0.4951 -0.5983
  102MOL   C26838850   2.743   7.759   5.180 -0.3294  0.0903 -0.3901
  102MOL   C26938851   2.760   0.009   5.328  0.2243  0.6138 -0.6228
  102MOL   C27038852   2.864   0.121   5.362 -0.2495  0.0180 -0.9279
  102MOL   C27138853   2.871   0.152   5.518 -0.3536 -0.8188  0.1365
  102MOL   C27238854   2.975   0.260   5.552  0.3741  0.4471  0.2186
  102MOL   C27338855   2.938   0.326   5.690  0.5913 -0.1836 -0.4492
  102MOL   O27438856   2.798   7.684   5.397 -0.2570 -0.3367 -0.2159
  102MOL   H27538857   2.807   7.674   5.156  0.3002 -0.2742  2.3636
  102MOL   H27638858   2.638   7.733   5.166 -0.6593  1.1978 -0.0602
  102MOL   H27738859   2.668   0.050   5.369  0.9602  1.2293  0.4506
  102MOL   H27838860   2.961   0.096   5.320  0.6211  2.0854 -0.2509
  102MOL   H27938861   2.837   0.219   5.323  0.0359  0.7872  0.7157
  102MOL   H28038862   2.774   0.159   5.566 -0.3779 -1.1533  0.1352
  102MOL   H28138863   2.904   0.058   5.563 -0.6019 -0.3248  1.3604
  102MOL   H28238864   3.074   0.215   5.553 -0.8131 -2.2715  3.5761
  102MOL   H28338865   2.969   0.333   5.471  2.3835 -0.7078 -1.0157
  102MOL   H28438866   3.012   0.397   5.727 -0.9817  1.8104 -0.9564
  102MOL   H28538867   2.847   0.386   5.679  1.0824  0.4041 -1.3887
  102MOL   H28638868   2.923   0.256   5.772 -1.1261 -2.6642 -2.7980
  102MOL   C28738869   2.698   7.593   5.437 -0.0138  0.0525 -0.1900
  102MOL   C28838870   2.764   7.455   5.479 -0.1388 -0.0732 -0.3131
  102MOL   C28938871   2.715   7.334   5.394  0.4039  0.8792  0.0750
  102MOL   C29038872   2.740   7.345   5.243 -0.8879 -0.7812 -0.0280
  102MOL   C29138873   2.702   7.224   5.156 -0.0996  0.5112 -0.0632
  102MOL   C29238874   2.786   7.098   5.188  0.7397  0.1525 -0.2322
  102MOL   O29338875   2.741   7.420   5.616  0.2719 -0.0075 -0.5807
  102MOL   H29438876   2.620   7.570   5.365  1.3390 -1.0593 -1.3177
  102MOL   H29538877   2.640   7.650   5.510 -1.5692  0.7865 -1.9486
  102MOL   H29638878   2.871   7.461   5.458 -0.1038 -1.8876 -0.8024
  102MOL   H29738879   2.775   7.254   5.438 -1.5265 -1.1737 -0.9203
  102MOL   H29838880   2.609   7.322   5.415  0.8090  0.3776  1.9727
  102MOL   H29938881   2.691   7.435   5.205 -0.8392 -0.5648  0.4227
  102MOL   H30038882   2.844   7.375   5.235 -1.4116  0.6934 -1.6494
  102MOL   H30138883   2.713   7.253   5.051  2.1359 -0.2327 -0.0585
  102MOL   H30238884   2.598   7.211   5.188 -0.2135  0.8743 -0.2719
  102MOL   H30338885   2.752   7.027   5.113 -0.5074 -0.0504  0.4930
  102MOL   H30438886   2.890   7.115   5.161  0.7400 -0.7942 -0.8358
  102MOL   H30538887   2.769   7.059   5.289 -0.0166 -0.9797 -0.7923
  102MOL   C30638888   2.842   7.465   5.707  0.2560  0.1353 -0.0252
  102MOL   C30738889   2.799   7.411   5.848 -0.3128  0.1997  0.1206
  102MOL   C30838890   2.853   7.494   5.965  0.2241  0.5891 -0.0164
  102MOL   C30938891   2.833   7.431   6.103 -0.1411 -0.4670  0.0040
  102MOL   C31038892   2.868   7.534   6.211 -0.2019 -0.1940 -0.4306
  102MOL   C31138893   2.816   7.500   6.348 -0.4880  0.5829 -0.0059
  102MOL   O31238894   2.847   7.281   5.860  0.9834  0.3920  0.7879
  102MOL   H31338895   2.946   7.444   5.684  0.9607  0.6666  2.5322
  102MOL   H31438896   2.836   7.574   5.711 -1.5063 -0.0132  2.0033
  102MOL   H31538897   2.690   7.405   5.855 -0.2486 -3.3571 -0.8423
  102MOL   H31638898   2.803   7.591   5.964  0.7474  0.8568 -1.2582
  102MOL   H31738899   2.958   7.511   5.940  0.3583 -1.0902 -0.6319
  102MOL   H31838900   2.727   7.411   6.114 -0.2034  0.0540  0.4002
  102MOL   H31938901   2.886   7.337   6.113  0.8731 -0.0712 -1.3906
  102MOL   H32038902   2.817   7.627   6.191 -1.8672 -0.8808  0.5443
  102MOL   H32138903   2.975   7.553   6.200 -0.1491  1.2300  2.2231
  102MOL   H32238904   2.879   7.420   6.387 -2.1822 -0.7984 -0.0379
  102MOL   H32338905   2.821   7.585   6.416 -2.0404  0.2333  0.5588
  102MOL   H32438906   2.717   7.457   6.335 -0.3275 -0.1213  1.0581
  102MOL   C32538907   2.801   7.186   5.766  0.6362 -0.8952 -0.5177
  102MOL   C32638908   2.810   7.035   5.810  0.2538 -0.1942 -0.9888
  102MOL   C32738909   2.867   6.935   5.716 -0.1886 -0.2714 -0.2635
  102MOL   C32838910   2.838   6.789   5.739 -0.2733  0.8068 -0.2608
  102MOL   C32938911   2.913   6.707   5.844  0.0532 -0.7938 -0.3012
  102MOL   C33038912   2.846   6.572   5.887  0.0493  0.0127 -0.4227
  102MOL   O33138913   2.684   6.985   5.858  0.2625 -0.0476  0.2515
  102MOL   H33238914   2.861   7.198   5.676  1.9219  0.4091  0.5002
  102MOL   H33338915   2.695   7.204   5.747  0.7764  0.4229 -0.0787
  102MOL   H33438916   2.874   7.037   5.898 -2.3404  2.6981  0.9503
  102MOL   H33538917   2.836   6.972   5.618  0.7819  0.6467 -0.2345
  102MOL   H33638918   2.974   6.953   5.709 -0.5382  2.1888  0.5058
  102MOL   H33738919   2.732   6.777   5.765  0.4028 -0.9715  1.9037
  102MOL   H33838920   2.864   6.733   5.649  0.2642 -2.0436  1.6096
  102MOL   H33938921   3.011   6.689   5.801 -0.7935  1.3367 -3.2686
  102MOL   H34038922   2.928   6.764   5.936  0.5886 -0.2136 -0.7409
  102MOL   H34138923   2.737   6.579   5.886 -0.0014 -0.7847 -0.2514
  102MOL   H34238924   2.880   6.491   5.823  2.0598  1.5000 -1.2836
  102MOL   H34338925   2.872   6.544   5.989  2.1170  2.8843 -0.0765
  102MOL   C34438926   2.644   7.049   5.978 -0.6199  0.4846  0.8241
  102MOL   C34538927   2.506   7.003   6.047  0.5991  0.1603 -0.0461
  102MOL   C34638928   2.498   7.003   6.205 -0.3648  0.7362  0.1556
  102MOL   C34738929   2.507   7.138   6.255  0.0074  0.4051  0.5068
  102MOL   C34838930   2.518   7.157   6.409  0.1597 -0.0598 -0.7319
  102MOL   C34938931   2.396   7.117   6.487 -0.6012 -0.3877 -0.4272
  102MOL   O35038932   2.389   7.055   5.994 -0.2511 -0.0093 -0.1942
  102MOL   H35138933   2.642   7.158   5.973  0.7708  0.5557  1.5932
  102MOL   H35238934   2.717   7.026   6.056 -0.6108 -0.4424  0.5474
  102MOL   H35338935   2.497   6.901   6.011  1.5071  0.7117 -1.9482
  102MOL   H35438936   2.576   6.942   6.251 -0.4488 -0.9727 -1.8990
  102MOL   H35538937   2.405   6.953   6.233  0.7038 -1.3991 -0.0042
  102MOL   H35638938   2.422   7.199   6.225  1.2142  1.4111 -0.9435
  102MOL   H35738939   2.595   7.186   6.214  1.3153 -0.5290  2.1507
  102MOL   H35838940   2.536   7.261   6.435 -0.9150  0.1545 -0.8014
  102MOL   H35938941   2.600   7.100   6.452  0.5991  0.1556 -1.2809
  102MOL   H36038942   2.313   7.146   6.422  1.1714 -1.7255 -3.3865
  102MOL   H36138943   2.379   7.167   6.582 -0.1190  0.2986 -0.6868
  102MOL   H36238944   2.390   7.009   6.489 -2.0933 -0.2809  2.4947
  102MOL   C36338945   2.367   7.022   5.855 -0.6229  0.5139  0.1130
  102MOL   C36438946   2.218   7.043   5.835 -0.4644 -0.5867  0.3434
  102MOL   C36538947   2.162   7.015   5.691  0.3584 -0.2013 -0.1660
  102MOL   C36638948   2.014   7.062   5.668  0.3397  0.1182  0.6586
  102MOL   C36738949   1.950   6.999   5.544  0.2874 -0.1838 -0.0710
  102MOL   C36838950   1.814   7.051   5.515  0.2033 -0.1355 -0.6520
  102MOL   O36938951   2.156   6.961   5.924  0.2658  0.0089 -0.3977
  102MOL   H37038952   2.388   6.920   5.823 -0.0244  1.4503 -2.5292
  102MOL   H37138953   2.424   7.089   5.791  1.7934 -2.5601 -1.0961
  102MOL   H37238954   2.202   7.147   5.862 -0.1499  0.2461 -2.4931
  102MOL   H37338955   2.217   7.075   5.619  0.1757  0.0328 -0.1131
  102MOL   H37438956   2.194   6.920   5.647 -1.4615 -1.1695  0.5476
  102MOL   H37538957   1.956   7.025   5.752  1.0932 -0.5739  0.8862
  102MOL   H37638958   2.012   7.171   5.667  0.4358  0.1446  2.1935
  102MOL   H37738959   2.012   7.034   5.462  0.0345  0.9079  0.1945
  102MOL   H37838960   1.960   6.890   5.545  1.4065 -0.1087 -0.9725
  102MOL   H37938961   1.811   7.155   5.545 -0.9489 -0.2137 -0.4841
  102MOL   H38038962   1.798   7.033   5.408 -0.6950  1.1637 -0.7381
  102MOL   H38138963   1.736   6.997   5.569  2.1394 -1.9248  0.4449
  102MOL   H38238964   2.216   6.957   5.996 -1.3299  1.7050  1.0911
  103MOL     C138965   1.231   1.303   2.009  0.5476 -0.8451  0.8534
  103MOL     C238966   1.217   1.247   2.156  0.3160 -0.1496  0.1411
  103MOL     C338967   1.316   1.321   2.249 -0.6329 -0.0971 -0.2454
  103MOL     C438968   1.466   1.302   2.214 -0.0310 -0.1403  0.3892
  103MOL     C538969   1.567   1.347   2.329  0.3003 -0.5187  1.2546
  103MOL     C638970   1.708   1.317   2.292  0.1027  0.2947 -0.2956
  103MOL     O738971   1.083   1.268   2.192 -0.7080 -0.2703  0.4142
  103MOL     H838972   1.329   1.274   1.969 -0.3577 -0.7959 -1.4936
  103MOL     H938973   1.230   1.412   2.014 -1.0961 -0.8215  0.3641
  103MOL    H1038974   1.239   1.140   2.153  1.3910  0.1150 -1.7727
  103MOL    H1138975   1.282   1.423   2.238 -0.4687 -0.0422 -0.2442
  103MOL    H1238976   1.303   1.292   2.353 -0.7730  1.7896  0.2647
  103MOL    H1338977   1.493   1.202   2.183  2.0014  0.7174 -0.6898
  103MOL    H1438978   1.487   1.345   2.117 -1.1885  1.4384  0.8155
  103MOL    H1538979   1.567   1.456   2.331 -0.6464 -0.5000  0.4446
  103MOL    H1638980   1.536   1.312   2.427 -1.4695  0.3278  1.0273
  103MOL    H1738981   1.726   1.371   2.199  1.4548  1.9712  0.8896
  103MOL    H1838982   1.781   1.356   2.363  0.6706 -1.3267  0.0449
  103MOL    H1938983   1.728   1.211   2.279 -0.7273  0.0883  0.1048
  103MOL    H2038984   1.152   1.264   1.944  0.0690  1.8913 -0.2616
  103MOL    C2138985   1.042   1.184   2.305  0.7516  0.1869 -0.1236
  103MOL    C2238986   0.896   1.214   2.340  0.0597 -0.3590  0.2086
  103MOL    C2338987   0.812   1.103   2.403 -0.1572  0.0744  0.4583
  103MOL    C2438988   0.658   1.129   2.415 -0.3597 -0.0858 -0.6842
  103MOL    C2538989   0.586   1.006   2.457  0.1220 -0.9644  0.1572
  103MOL    C2638990   0.643   0.939   2.581  0.6430  0.3751  0.6360
  103MOL    O2738991   0.874   1.328   2.419  0.5026 -0.1543  0.5099
  103MOL    H2838992   1.031   1.083   2.265 -1.6300  0.6343 -0.7039
  103MOL    H2938993   1.097   1.193   2.398 -1.6084 -2.0318  1.5697
  103MOL    H3038994   0.851   1.239   2.244  4.6469 -1.3289 -2.3580
  103MOL    H3138995   0.853   1.094   2.504 -1.0318  0.5796  0.8602
  103MOL    H3238996   0.822   1.009   2.350  0.7627  0.1981  0.3916
  103MOL    H3338997   0.618   1.171   2.323  0.3524 -0.0620 -0.9864
  103MOL    H3438998   0.641   1.207   2.489  2.7789  0.7483 -0.7439
  103MOL    H3538999   0.484   1.035   2.480  0.0476 -1.0944 -0.0069
  103MOL    H3639000   0.568   0.937   2.374 -0.2363  0.4446 -0.9653
  103MOL    H3739001   0.727   0.875   2.552  0.2383 -0.0222  0.3385
  103MOL    H3839002   0.567   0.888   2.640 -0.1076 -1.0120 -1.4699
  103MOL    H3939003   0.678   1.017   2.648  2.6067 -0.2844  0.4425
  103MOL    C4039004   0.925   1.449   2.375 -0.1783  0.6511 -0.0137
  103MOL    C4139005   0.898   1.552   2.482  0.0498 -0.0313  1.4667
  103MOL    C4239006   0.906   1.693   2.424  0.0810 -0.4465 -0.0250
  103MOL    C4339007   0.791   1.733   2.332 -0.4314 -0.1364 -0.1660
  103MOL    C4439008   0.819   1.861   2.251 -0.0802 -0.5196 -0.2290
  103MOL    C4539009   0.696   1.896   2.154 -0.7325 -0.1629 -0.4384
  103MOL    O4639010   0.994   1.527   2.577  0.2684  1.0305  0.3101
  103MOL    H4739011   0.904   1.471   2.270  0.3945 -0.9075 -0.4693
  103MOL    H4839012   1.034   1.441   2.366  0.1947  2.0627  2.8782
  103MOL    H4939013   0.799   1.529   2.521 -1.2591  0.7493 -1.3340
  103MOL    H5039014   0.912   1.771   2.500  1.2531  0.6160 -1.1841
  103MOL    H5139015   1.001   1.712   2.373 -0.2577 -1.1748 -0.9411
  103MOL    H5239016   0.697   1.752   2.383  0.3655 -1.3129  1.8197
  103MOL    H5339017   0.774   1.657   2.256 -0.2473 -1.2741  0.9218
  103MOL    H5439018   0.843   1.946   2.316  0.2153 -0.8311  0.0689
  103MOL    H5539019   0.913   1.846   2.198 -0.0302  2.9081 -1.2547
  103MOL    H5639020   0.613   1.933   2.216  0.3770 -2.4349  2.5533
  103MOL    H5739021   0.717   1.982   2.092 -1.6760  1.0447  0.8667
  103MOL    H5839022   0.660   1.807   2.102  0.5842 -0.0334 -1.5845
  103MOL    C5939023   0.968   1.569   2.712  0.6518 -0.1022  0.5680
  103MOL    C6039024   1.077   1.510   2.800  0.2431  0.0107  0.8091
  103MOL    C6139025   1.092   1.594   2.934 -0.4329  0.7966  0.0270
  103MOL    C6239026   0.971   1.592   3.033 -0.2717 -0.1823  0.0370
  103MOL    C6339027   1.019   1.627   3.179  0.5450  0.0907 -0.2715
  103MOL    C6439028   1.078   1.510   3.263 -0.4802  0.3747 -0.3539
  103MOL    O6539029   1.063   1.371   2.840 -0.1442  0.3814 -0.6032
  103MOL    H6639030   0.869   1.531   2.737  0.2282  2.1313  2.3813
  103MOL    H6739031   0.960   1.677   2.717  1.5869  0.1861 -2.6596
  103MOL    H6839032   1.173   1.522   2.750 -0.7245 -0.4091 -1.2147
  103MOL    H6939033   1.103   1.698   2.901  0.8310  0.9569  0.9598
  103MOL    H7039034   1.184   1.567   2.984 -1.5700  0.9225  2.2573
  103MOL    H7139035   0.923   1.495   3.048 -1.6076  0.3325 -0.8359
  103MOL    H7239036   0.894   1.659   2.996 -0.8509  0.0470  1.6257
  103MOL    H7339037   0.933   1.668   3.233 -0.3434 -1.7357 -0.2542
  103MOL    H7439038   1.087   1.713   3.175  1.5123 -0.7247 -1.7665
  103MOL    H7539039   1.104   1.551   3.360 -0.0766  3.5428 -1.7204
  103MOL    H7639040   1.012   1.424   3.270  0.2767 -0.0733  1.3728
  103MOL    H7739041   1.168   1.472   3.214  0.3972  0.2190  1.3562
  103MOL    C7839042   1.080   1.280   2.731  0.5248  0.3004 -0.0976
  103MOL    C7939043   1.117   1.147   2.785 -0.3110 -0.0096  0.0807
  103MOL    C8039044   1.275   1.129   2.772 -0.1217 -0.2399  0.1513
  103MOL    C8139045   1.326   1.085   2.633  0.1193  0.0352  0.0516
  103MOL    C8239046   1.478   1.061   2.653 -0.3230 -0.0256  0.0456
  103MOL    C8339047   1.550   0.996   2.536  0.0904 -0.7407 -0.3668
  103MOL    O8439048   1.051   1.036   2.727 -0.5588 -0.1085  0.6270
  103MOL    H8539049   1.156   1.314   2.660  3.5610 -0.0659  2.8276
  103MOL    H8639050   0.982   1.269   2.685  0.0303  2.2621  0.4205
  103MOL    H8739051   1.092   1.150   2.891  2.3895 -0.1739  0.7639
  103MOL    H8839052   1.323   1.226   2.785  0.9948 -0.9672  1.5539
  103MOL    H8939053   1.303   1.058   2.849  3.1729  0.0771 -0.6790
  103MOL    H9039054   1.301   1.160   2.558 -1.4730  0.8962  1.4003
  103MOL    H9139055   1.277   0.995   2.596 -0.8663  1.3023 -1.8061
  103MOL    H9239056   1.529   1.155   2.676 -0.0959 -0.7531  2.7288
  103MOL    H9339057   1.503   0.992   2.734  0.6505 -0.2038 -0.3982
  103MOL    H9439058   1.501   0.904   2.505 -2.0559  0.2914 -0.0862
  103MOL    H9539059   1.651   0.961   2.560  0.0456  0.4969  1.7628
  103MOL    H9639060   1.569   1.073   2.461  1.9274 -1.5700 -0.7817
  103MOL    C9739061   1.055   0.915   2.802 -0.1168  0.2395  0.6352
  103MOL    C9839062   1.004   0.793   2.728 -0.2693 -0.3726  0.4513
  103MOL    C9939063   1.081   0.768   2.602 -0.4613  0.2579  0.8476
  103MOL   C10039064   1.016   0.659   2.514  0.2904 -0.0915 -0.3270
  103MOL   C10139065   1.090   0.646   2.377  0.1377 -0.5220  0.3915
  103MOL   C10239066   1.031   0.528   2.297 -0.1104  0.1197 -0.5395
  103MOL   O10339067   1.008   0.676   2.810 -0.5366  0.0059  0.5146
  103MOL   H10439068   0.996   0.936   2.891 -1.0064 -1.0529  0.3584
  103MOL   H10539069   1.156   0.902   2.842  0.4096 -2.1881 -1.3750
  103MOL   H10639070   0.902   0.821   2.699  0.1918 -0.6234 -1.4638
  103MOL   H10739071   1.186   0.754   2.629 -0.1964  1.8609  0.7215
  103MOL   H10839072   1.088   0.858   2.541 -2.5230 -0.9359 -1.2192
  103MOL   H10939073   0.910   0.682   2.503  0.2309 -0.0942  0.2429
  103MOL   H11039074   1.028   0.562   2.561 -2.1402  0.2715  1.0985
  103MOL   H11139075   1.194   0.618   2.394 -0.1800 -2.0377 -0.1022
  103MOL   H11239076   1.087   0.740   2.322 -0.8362 -0.3711  0.6851
  103MOL   H11339077   1.073   0.508   2.199 -0.3284  3.1399 -1.3042
  103MOL   H11439078   1.022   0.428   2.340  0.6474  0.6484  0.8807
  103MOL   H11539079   0.925   0.548   2.279 -0.8608  0.0845  3.4543
  103MOL   C11639080   0.885   0.647   2.878 -0.8420 -0.7938  0.9132
  103MOL   C11739081   0.906   0.521   2.964  0.3718 -0.0684 -0.1096
  103MOL   C11839082   0.795   0.412   2.967 -0.2638  0.3275 -0.0502
  103MOL   C11939083   0.823   0.278   3.040  0.4393 -0.8076  0.0537
  103MOL   C12039084   0.711   0.183   3.013  0.3105  0.8195 -0.1878
  103MOL   C12139085   0.751   0.052   3.077  0.0180 -0.3063  0.8369
  103MOL   O12239086   0.926   0.565   3.099 -0.2493 -0.2747  0.2666
  103MOL   H12339087   0.858   0.730   2.943  0.0458  1.9735 -2.1595
  103MOL   H12439088   0.800   0.634   2.812 -1.1810 -2.3970  1.6283
  103MOL   H12539089   0.991   0.461   2.931  0.2695 -0.1401 -0.2413
  103MOL   H12639090   0.703   0.457   3.003 -1.4615 -1.5738 -0.7199
  103MOL   H12739091   0.771   0.396   2.862 -0.5961 -0.2600  0.1131
  103MOL   H12839092   0.836   0.287   3.148  1.9768  0.5314 -0.2226
  103MOL   H12939093   0.920   0.243   3.005  0.4987 -1.3492  0.7498
  103MOL   H13039094   0.615   0.225   3.043  1.0905  1.8505  0.8936
  103MOL   H13139095   0.697   0.166   2.906 -1.0179 -2.1955  0.4000
  103MOL   H13239096   0.714   7.753   3.020 -0.1596  0.6333 -0.4424
  103MOL   H13339097   0.858   0.034   3.075 -0.0229 -0.3483 -0.9233
  103MOL   H13439098   0.709   0.042   3.178 -1.1871  1.3905  0.5270
  103MOL   C13539099   1.053   0.613   3.137  0.2136  0.2880 -0.2915
  103MOL   C13639100   1.037   0.651   3.284 -0.6358  0.3054 -0.0730
  103MOL   C13739101   1.156   0.736   3.340 -0.0277  0.1759 -0.0011
  103MOL   C13839102   1.154   0.885   3.291  0.0912  0.2090 -0.1254
  103MOL   C13939103   1.255   0.971   3.363 -0.8272  0.1095  0.0299
  103MOL   C14039104   1.274   1.112   3.303 -0.3323  0.6241  0.0229
  103MOL   O14139105   1.037   0.533   3.360  0.2162 -0.0214  0.7115
  103MOL   H14239106   1.127   0.534   3.128 -0.5518 -0.0926 -4.0665
  103MOL   H14339107   1.079   0.699   3.076  3.2332  0.4586  1.1445
  103MOL   H14439108   0.949   0.713   3.305 -1.0963 -1.1031  2.4610
  103MOL   H14539109   1.141   0.732   3.448  1.9301  3.2089  0.4325
  103MOL   H14639110   1.245   0.684   3.306  1.5363  2.3888  0.6255
  103MOL   H14739111   1.056   0.925   3.317  0.1263  0.9955 -1.1594
  103MOL   H14839112   1.156   0.901   3.183  0.4058  2.3555  0.1652
  103MOL   H14939113   1.355   0.930   3.378 -0.6375  0.7588  0.5639
  103MOL   H15039114   1.214   0.985   3.463 -1.4722  2.3318 -0.5186
  103MOL   H15139115   1.354   1.172   3.345 -0.1591  0.7271 -0.4439
  103MOL   H15239116   1.280   1.104   3.194  1.6796  0.6662  0.1139
  103MOL   H15339117   1.186   1.173   3.321 -0.4134  0.7417 -0.7531
  103MOL   C15439118   0.911   0.484   3.395  1.0245 -0.0992 -0.4349
  103MOL   C15539119   0.952   0.372   3.490 -0.2210  0.1199  0.3128
  103MOL   C15639120   0.855   0.354   3.605  0.2691 -0.3261 -0.7243
  103MOL   C15739121   0.909   0.268   3.710  0.1754 -0.2259 -0.9864
  103MOL   C15839122   0.798   0.234   3.827 -0.2426  0.1808  0.3786
  103MOL   C15939123   0.758   0.352   3.903  0.1561  0.1651 -0.2589
  103MOL   O16039124   0.963   0.248   3.424  0.4046  0.8001 -0.1887
  103MOL   H16139125   0.858   0.446   3.307 -0.0896 -2.0935  1.0410
  103MOL   H16239126   0.842   0.555   3.440  2.0976 -0.0261  1.1215
  103MOL   H16339127   1.044   0.406   3.538 -0.4045 -0.6074  1.1947
  103MOL   H16439128   0.758   0.321   3.568  0.3383  0.9985 -2.1562
  103MOL   H16539129   0.837   0.450   3.655 -1.0438 -0.7659 -0.3319
  103MOL   H16639130   0.999   0.306   3.758  0.4381  0.3634 -1.9317
  103MOL   H16739131   0.937   0.171   3.668 -1.4416 -1.7220  1.2521
  103MOL   H16839132   0.704   0.198   3.785 -0.9606  0.0125  2.0734
  103MOL   H16939133   0.847   0.164   3.894 -0.2762 -0.8646 -0.6661
  103MOL   H17039134   0.671   0.324   3.964  0.5912  0.4089  0.4838
  103MOL   H17139135   0.735   0.437   3.839  0.7765  1.1856  0.8455
  103MOL   H17239136   0.847   0.384   3.957 -1.1823  0.3901  1.8819
  103MOL   C17339137   1.088   0.239   3.360  0.2920 -0.3619 -0.4939
  103MOL   C17439138   1.101   0.098   3.295 -0.4039 -0.6493 -0.2832
  103MOL   C17539139   1.243   0.083   3.248  0.0016 -0.1352 -0.1806
  103MOL   C17639140   1.295   0.164   3.126 -0.4914 -0.5304 -0.2546
  103MOL   C17739141   1.240   0.122   2.985  0.0410 -1.0439 -0.0621
  103MOL   C17839142   1.324   0.177   2.869  0.1361  0.3843 -0.1553
  103MOL   O17939143   1.073   0.002   3.394  0.5065  0.6209 -0.2677
  103MOL   H18039144   1.159   0.239   3.443  0.4267 -1.7525 -0.5955
  103MOL   H18139145   1.104   0.317   3.287 -0.9756  0.6275  0.2752
  103MOL   H18239146   1.041   0.099   3.203 -1.0272  1.5350  0.1087
  103MOL   H18339147   1.305   0.099   3.336  0.7414 -0.2723 -0.6703
  103MOL   H18439148   1.255   7.764   3.220 -3.2506  0.0139 -2.3832
  103MOL   H18539149   1.279   0.271   3.140 -2.6668 -0.6140 -1.7827
  103MOL   H18639150   1.400   0.138   3.115 -0.1258  0.9174 -0.1983
  103MOL   H18739151   1.231   0.014   2.985 -0.5617 -0.9952  1.0131
  103MOL   H18839152   1.141   0.163   2.965 -0.2701 -2.3142 -1.1518
  103MOL   H18939153   1.277   0.177   2.771 -0.0871  2.3658 -0.0850
  103MOL   H19039154   1.419   0.124   2.858 -0.5607 -1.4412  2.2434
  103MOL   H19139155   1.344   0.280   2.900 -0.0882  0.0953  0.9430
  103MOL   C19239156   0.958   7.709   3.370 -0.3356  0.5985 -0.1246
  103MOL   C19339157   0.941   7.593   3.467 -0.1129  0.6279 -0.1728
  103MOL   C19439158   0.998   7.456   3.420 -0.0741  0.1436  0.3237
  103MOL   C19539159   1.154   7.445   3.399 -0.1341  0.1622 -0.6077
  103MOL   C19639160   1.228   7.399   3.524  0.1000  0.2217  0.3066
  103MOL   C19739161   1.376   7.446   3.527 -0.0370 -0.7545 -0.5602
  103MOL   O19839162   0.800   7.575   3.500 -0.0993 -0.5458 -0.0683
  103MOL   H19939163   0.873   7.777   3.364  0.5553  1.6192 -1.4012
  103MOL   H20039164   0.974   7.662   3.273  0.2840 -0.2779  0.3860
  103MOL   H20139165   0.975   7.609   3.569 -1.4418  0.5336  0.2967
  103MOL   H20239166   0.972   7.376   3.490  0.8558 -0.3850  0.0751
  103MOL   H20339167   0.943   7.432   3.329  2.3800  1.2953 -1.5219
  103MOL   H20439168   1.197   7.540   3.366  2.5800 -0.9847 -0.5160
  103MOL   H20539169   1.183   7.384   3.313 -0.4988  1.4368 -1.6524
  103MOL   H20639170   1.169   7.423   3.612  2.2120  0.9544  1.5801
  103MOL   H20739171   1.229   7.290   3.527 -2.5658  0.2014  1.0912
  103MOL   H20839172   1.380   7.555   3.518 -1.4552 -0.7857 -1.6883
  103MOL   H20939173   1.431   7.423   3.619  0.5084  1.0109 -0.4226
  103MOL   H21039174   1.418   7.394   3.441  0.2286  0.4947 -1.2019
  103MOL   C21139175   0.750   7.682   3.589  0.0333 -0.2824 -0.0222
  103MOL   C21239176   0.599   7.704   3.564  0.1124  0.6096 -0.1147
  103MOL   C21339177   0.525   7.568   3.563  0.2332  0.5056 -0.0629
  103MOL   C21439178   0.375   7.570   3.550 -0.0247  0.0905  0.5317
  103MOL   C21539179   0.305   7.646   3.663  0.1036 -0.5970 -0.0137
  103MOL   C21639180   0.146   7.640   3.663 -0.5224 -0.4415  0.0047
  103MOL   O21739181   0.584   7.772   3.446  0.2415 -0.1188 -0.1601
  103MOL   H21839182   0.821   7.764   3.600 -1.4554  0.9029  0.9537
  103MOL   H21939183   0.756   7.630   3.685 -0.1580 -0.1248  0.0765
  103MOL   H22039184   0.567   7.765   3.649 -0.9748  0.5986 -0.5050
  103MOL   H22139185   0.572   7.529   3.472 -0.6299 -1.0002  0.1155
  103MOL   H22239186   0.567   7.509   3.644  1.5560  2.7667  0.9245
  103MOL   H22339187   0.332   7.618   3.463 -1.4547  0.3637  1.3614
  103MOL   H22439188   0.324   7.474   3.537 -0.8239  0.4325  1.0630
  103MOL   H22539189   0.346   7.598   3.751  1.4813 -1.0430 -0.8807
  103MOL   H22639190   0.331   7.751   3.644 -0.4570 -0.2757  0.9998
  103MOL   H22739191   0.098   7.543   3.650 -0.2997 -0.1687 -3.1376
  103MOL   H22839192   0.107   7.697   3.578 -1.1140  0.5845  0.9400
  103MOL   H22939193   0.091   7.688   3.745  0.3078 -0.7974  0.7796
  103MOL   C23039194   0.604   0.127   3.461 -0.3424 -0.3316  0.1055
  103MOL   C23139195   0.520   0.209   3.359  1.0231 -0.0128 -0.9647
  103MOL   C23239196   0.556   0.361   3.355  0.3868  0.0037 -0.5775
  103MOL   C23339197   0.483   0.447   3.240 -0.1336 -0.5214  0.2906
  103MOL   C23439198   0.537   0.589   3.210 -0.0572 -0.3393 -0.0840
  103MOL   C23539199   0.559   0.686   3.329  0.0834  0.0933  0.0562
  103MOL   O23639200   0.377   0.198   3.398  0.2378  0.1431 -0.1817
  103MOL   H23739201   0.572   0.164   3.559  0.0761  0.3049  0.0063
  103MOL   H23839202   0.709   0.155   3.451 -0.0167 -1.3572  0.5969
  103MOL   H23939203   0.536   0.172   3.258 -1.6614  0.6306 -1.6612
  103MOL   H24039204   0.665   0.363   3.347  0.4165 -3.2074 -1.5191
  103MOL   H24139205   0.539   0.403   3.455  2.1946  0.5563 -0.4809
  103MOL   H24239206   0.377   0.449   3.264 -0.8569 -0.8312 -2.6839
  103MOL   H24339207   0.476   0.399   3.143 -2.0116 -0.3280  0.3087
  103MOL   H24439208   0.634   0.578   3.162 -0.0821 -0.0461 -0.2005
  103MOL   H24539209   0.483   0.624   3.122  3.9172  1.3095 -1.9603
  103MOL   H24639210   0.465   0.720   3.372  1.4819  2.7876  1.0752
  103MOL   H24739211   0.594   0.782   3.293  0.7212  0.2049  0.9782
  103MOL   H24839212   0.617   0.648   3.413  3.5490  1.3021 -1.6865
  103MOL   C24939213   0.296   0.126   3.315 -0.3481 -0.5922 -0.1353
  103MOL   C25039214   0.155   0.119   3.370  1.1145  0.3846 -0.9713
  103MOL   C25139215   0.084   0.007   3.299  0.2546 -0.7322 -0.2303
  103MOL   C25239216   0.040   0.046   3.152 -0.5435 -0.2193 -0.1214
  103MOL   C25339217   7.766   7.728   3.065  0.1428  0.2986 -0.2733
  103MOL   C25439218   7.726   7.780   2.925  0.1285 -0.2830 -0.1493
  103MOL   O25539219   0.080   0.240   3.349 -0.1975 -0.0192  0.1824
  103MOL   H25639220   0.300   0.162   3.212 -0.0080  0.3410  0.1913
  103MOL   H25739221   0.335   0.025   3.309  3.5321  0.7541  0.8016
  103MOL   H25839222   0.160   0.103   3.478  1.0162  2.5916 -0.6045
  103MOL   H25939223   0.137   7.699   3.314 -0.4144 -1.1124 -0.2549
  103MOL   H26039224   7.778   7.779   3.356  0.6046 -3.4585 -0.2573
  103MOL   H26139225   7.754   0.128   3.162  0.7690  0.7474  1.7330
  103MOL   H26239226   0.132   0.069   3.099 -0.5069 -0.9403 -0.3654
  103MOL   H26339227   0.060   7.653   3.057  0.5038  0.6157  0.3153
  103MOL   H26439228   7.689   7.666   3.112  0.5800 -0.2042 -0.2093
  103MOL   H26539229   7.632   0.049   2.933 -0.4672 -1.1859 -0.8088
  103MOL   H26639230   7.713   7.692   2.861 -0.1359 -0.1740 -0.2498
  103MOL   H26739231   0.020   0.057   2.884 -0.4234 -0.3898 -1.4146
  103MOL   C26839232   0.090   0.345   3.451 -0.0885  1.0492  0.4017
  103MOL   C26939233   0.077   0.483   3.386  0.2523  0.5537 -0.8684
  103MOL   C27039234   0.131   0.591   3.481 -0.6551  0.0363 -0.0749
  103MOL   C27139235   0.150   0.721   3.404 -0.1435  0.1975  0.1032
  103MOL   C27239236   0.185   0.839   3.496  0.1178 -0.3945 -0.1366
  103MOL   C27339237   0.189   0.978   3.425 -0.5190  0.2050  1.0804
  103MOL   O27439238   7.734   0.527   3.364  0.6123 -0.3734  0.2416
  103MOL   H27539239   0.189   0.336   3.496 -1.7843 -1.0584  3.8638
  103MOL   H27639240   0.012   0.325   3.524  1.3014 -0.5012  1.4996
  103MOL   H27739241   0.132   0.477   3.292  2.7263 -0.3314  0.5871
  103MOL   H27839242   0.066   0.604   3.568  0.4357  1.4897  0.5462
  103MOL   H27939243   0.228   0.556   3.515  0.4019  1.6386 -1.3850
  103MOL   H28039244   0.226   0.718   3.325  0.0285  0.0514  0.2743
  103MOL   H28139245   0.055   0.747   3.357 -0.7799 -1.1644  0.6293
  103MOL   H28239246   0.109   0.853   3.573  0.1972 -0.4235 -0.0528
  103MOL   H28339247   0.279   0.822   3.549 -2.3474 -1.0657  4.2996
  103MOL   H28439248   0.177   1.046   3.509  0.3049 -1.2590  2.4094
  103MOL   H28539249   0.287   0.994   3.380 -0.5331  0.0036  0.9767
  103MOL   H28639250   0.105   0.993   3.358 -0.6678 -2.1375  0.6984
  103MOL   C28739251   7.676   0.466   3.246 -0.3143 -0.7998  0.2777
  103MOL   C28839252   7.590   0.570   3.164  0.3549 -0.0305 -0.3031
  103MOL   C28939253   7.670   0.701   3.130 -0.3213 -0.1662  0.3334
  103MOL   C29039254   7.645   0.756   2.985 -0.0533 -0.3243 -0.3515
  103MOL   C29139255   7.734   0.874   2.950 -0.6112  0.4429  0.8507
  103MOL   C29239256   7.686   0.936   2.829  0.0395  0.2468  0.0221
  103MOL   O29339257   7.471   0.605   3.229 -0.0684  0.9151  0.0479
  103MOL   H29439258   7.625   0.377   3.284 -0.0454 -0.8887  0.4370
  103MOL   H29539259   7.750   0.420   3.180 -0.2160  1.3613 -1.1563
  103MOL   H29639260   7.580   0.524   3.065  1.1926  0.9174 -0.8455
  103MOL   H29739261   7.659   0.768   3.215  4.6639  1.0457  0.1873
  103MOL   H29839262   7.777   0.680   3.135  0.5720  3.7407 -0.6809
  103MOL   H29939263   7.653   0.668   2.921 -0.1726 -2.6490  2.7317
  103MOL   H30039264   7.541   0.787   2.977  0.1429  0.7218  0.9469
  103MOL   H30139265   0.056   0.859   2.958 -0.5830  0.0672 -0.1583
  103MOL   H30239266   7.715   0.951   3.025 -0.8095  1.5331 -0.3119
  103MOL   H30339267   7.577   0.934   2.840  0.3377 -0.8902  3.4381
  103MOL   H30439268   7.710   1.041   2.809  0.4058  0.0558 -0.5625
  103MOL   H30539269   7.718   0.886   2.737  0.6948 -0.3496  0.5713
  103MOL   C30639270   7.352   0.538   3.184  0.2024  0.8854  0.0594
  103MOL   C30739271   7.222   0.617   3.217  0.2494  1.1952 -0.5804
  103MOL   C30839272   7.089   0.531   3.205 -0.5344  0.5042  0.4077
  103MOL   C30939273   6.957   0.616   3.224 -0.1044 -1.0389  0.2405
  103MOL   C31039274   6.832   0.526   3.213  0.1257 -0.2059  0.1095
  103MOL   C31139275   6.805   0.514   3.065  0.0953  0.0614 -0.1944
  103MOL   O31239276   7.222   0.714   3.112 -0.1494  0.8394 -0.5430
  103MOL   H31339277   7.356   0.521   3.077 -2.2163  0.3406  0.0397
  103MOL   H31439278   7.343   0.446   3.241 -1.8165  1.3612  0.5586
  103MOL   H31539279   7.222   0.676   3.309 -0.7683  0.9934 -0.4414
  103MOL   H31639280   7.097   0.454   3.282 -1.7899 -1.6526 -1.6006
  103MOL   H31739281   7.086   0.465   3.119 -2.4615  0.8341  0.2018
  103MOL   H31839282   6.956   0.651   3.327  1.0947 -0.9402  0.2188
  103MOL   H31939283   6.953   0.702   3.158 -2.2987 -1.3213 -0.0278
  103MOL   H32039284   6.746   0.568   3.265  0.0686 -2.7970  2.2027
  103MOL   H32139285   6.852   0.428   3.258  1.0686 -0.4657 -0.8577
  103MOL   H32239286   6.888   0.486   3.000 -0.7956 -0.4458 -1.1226
  103MOL   H32339287   6.740   0.427   3.057  1.1815 -0.4774 -3.9505
  103MOL   H32439288   6.749   0.597   3.023  0.4871 -0.2794 -1.3979
  103MOL   C32539289   7.256   0.846   3.155  0.3076  0.1150  0.0567
  103MOL   C32639290   7.264   0.941   3.036 -0.4518 -0.0450  0.1727
  103MOL   C32739291   7.350   1.068   3.068  0.4848 -0.1612  0.6946
  103MOL   C32839292   7.345   1.175   2.955  0.2074  0.0329 -0.3823
  103MOL   C32939293   7.466   1.274   2.952 -0.0503 -0.9369 -0.0813
  103MOL   C33039294   7.468   1.367   3.069 -0.1035  0.0789 -0.5111
  103MOL   O33139295   7.137   0.996   3.002  0.0301  0.7432 -0.2121
  103MOL   H33239296   7.350   0.846   3.209 -1.0995  4.6415  2.8446
  103MOL   H33339297   7.188   0.885   3.231  0.8007  1.5224 -0.2104
  103MOL   H33439298   7.301   0.887   2.949 -0.7700  0.8740 -0.5429
  103MOL   H33539299   7.318   1.115   3.161  0.2793  1.5077 -0.1980
  103MOL   H33639300   7.453   1.038   3.086  2.2056  3.7159 -2.0894
  103MOL   H33739301   7.358   1.122   2.860  0.2785 -1.2874  0.3569
  103MOL   H33839302   7.251   1.231   2.953 -0.8350 -1.6843 -2.6724
  103MOL   H33939303   7.559   1.216   2.951  2.1012  2.2988  1.7961
  103MOL   H34039304   7.462   1.324   2.856 -0.4778 -0.6198  0.0991
  103MOL   H34139305   7.378   1.430   3.067 -0.9472 -1.1355 -2.1580
  103MOL   H34239306   7.468   1.308   3.161 -0.6471  1.7949  0.6148
  103MOL   H34339307   7.552   1.435   3.083  0.2474 -0.1539 -1.4752
  103MOL   C34439308   7.069   0.957   2.889  0.3438 -0.0982  0.2191
  103MOL   C34539309   6.936   1.040   2.885 -0.5601  0.6669  0.2752
  103MOL   C34639310   6.896   1.032   2.734 -0.1787 -0.5744 -0.2963
  103MOL   C34739311   6.963   1.150   2.659 -0.6155  0.2355 -0.4937
  103MOL   C34839312   6.918   1.166   2.516 -0.0035 -0.2394  0.6250
  103MOL   C34939313   6.776   1.223   2.503 -0.8683  0.2448 -0.5418
  103MOL   O35039314   6.828   0.982   2.949  0.6060 -0.3592  0.1810
  103MOL   H35139315   7.057   0.850   2.872  1.1162 -0.0777 -0.4874
  103MOL   H35239316   7.135   1.004   2.816  0.5363  0.8941  1.0111
  103MOL   H35339317   6.947   1.146   2.905  2.3270  1.1803 -3.4627
  103MOL   H35439318   6.788   1.040   2.739 -0.1740 -1.4645  1.3545
  103MOL   H35539319   6.917   0.935   2.688 -0.3696  0.6628 -3.1201
  103MOL   H35639320   7.071   1.148   2.673 -0.5599  2.0977 -0.5051
  103MOL   H35739321   6.936   1.249   2.697  1.9697  1.4446 -1.7002
  103MOL   H35839322   6.917   1.067   2.468  0.7938 -0.7102  1.5615
  103MOL   H35939323   6.994   1.217   2.457  0.1807  0.5468  1.5375
  103MOL   H36039324   6.755   1.228   2.396  0.3391  0.0470 -0.7941
  103MOL   H36139325   6.779   1.322   2.549  0.7886  1.8750 -3.9815
  103MOL   H36239326   6.700   1.164   2.554 -1.0397  0.9375  0.0076
  103MOL   C36339327   6.814   1.036   3.076  0.5623 -0.2187  0.0607
  103MOL   C36439328   6.733   0.941   3.164  0.3324 -0.1579  0.6052
  103MOL   C36539329   6.706   0.999   3.305 -0.7339  0.3936  0.3340
  103MOL   C36639330   6.662   0.890   3.402 -0.4268 -0.8118 -0.0953
  103MOL   C36739331   6.643   0.955   3.539 -0.2171 -0.2138  0.4988
  103MOL   C36839332   6.613   0.848   3.641 -0.8960  0.6126 -0.2337
  103MOL   O36939333   6.605   0.919   3.103 -0.4110  0.0202 -0.1798
  103MOL   H37039334   6.772   1.136   3.069 -2.7233 -1.4387  1.7365
  103MOL   H37139335   6.906   1.064   3.128  0.6802 -0.6328  0.0765
  103MOL   H37239336   6.770   0.841   3.184  0.5099 -0.0118  1.0260
  103MOL   H37339337   6.803   1.025   3.347 -0.0384 -0.7452 -0.5495
  103MOL   H37439338   6.636   1.083   3.294  2.1554  2.8266 -0.1986
  103MOL   H37539339   6.583   0.823   3.369 -1.1705 -0.3853  0.8078
  103MOL   H37639340   6.752   0.829   3.417  0.8433  1.0058 -0.1832
  103MOL   H37739341   6.725   1.020   3.570  0.4073 -0.7464 -0.0109
  103MOL   H37839342   6.555   1.018   3.531 -0.3076 -0.2563  1.1735
  103MOL   H37939343   6.535   0.773   3.626 -0.8382  0.1198  1.7502
  103MOL   H38039344   6.701   0.785   3.652  0.4185  2.2388 -1.1405
  103MOL   H38139345   6.603   0.902   3.735  2.0276  0.5289  0.1586
  103MOL   H38239346   6.605   0.906   3.010 -0.4737 -3.4533  0.2376
  104MOL     C139347   3.666   4.839   5.184  1.0814  0.1434 -0.0182
  104MOL     C239348   3.612   4.818   5.039 -0.2644  0.6748  0.5439
  104MOL     C339349   3.688   4.705   4.974  0.3073 -0.7571 -0.5290
  104MOL     C439350   3.836   4.730   4.950 -0.3652  0.0629 -0.5302
  104MOL     C539351   3.891   4.643   4.837  0.0466 -0.2225 -0.3687
  104MOL     C639352   3.920   4.499   4.877 -0.0430 -0.4207  0.6932
  104MOL     O739353   3.478   4.771   5.042  0.1782 -0.0141 -0.9895
  104MOL     H839354   3.668   4.743   5.234  1.4591 -0.1602 -0.6082
  104MOL     H939355   3.595   4.904   5.235 -1.6072 -0.9382 -2.2025
  104MOL    H1039356   3.634   4.909   4.983  0.8852 -0.3474 -0.7034
  104MOL    H1139357   3.682   4.607   5.021 -0.3540 -0.3103  0.3469
  104MOL    H1239358   3.636   4.692   4.879  0.6506 -1.3635 -0.6344
  104MOL    H1339359   3.851   4.837   4.930  2.0765 -0.5942 -2.4959
  104MOL    H1439360   3.890   4.711   5.043  2.5630  0.8148 -2.0020
  104MOL    H1539361   3.831   4.649   4.746 -2.3826  0.2399  1.1815
  104MOL    H1639362   3.977   4.693   4.794 -0.9737  0.6642 -1.4262
  104MOL    H1739363   3.978   4.491   4.969  4.0386 -0.1983 -1.7276
  104MOL    H1839364   3.828   4.441   4.884  0.2744 -0.8251  1.7204
  104MOL    H1939365   3.991   4.452   4.808 -1.5576  0.3589 -1.4427
  104MOL    H2039366   3.765   4.883   5.187  0.9908  0.4467 -1.1850
  104MOL    C2139367   3.380   4.872   5.030  0.1720 -0.0087 -0.6353
  104MOL    C2239368   3.236   4.808   5.048 -0.4347  0.1931 -0.2666
  104MOL    C2339369   3.193   4.782   5.194 -0.5781 -0.2571 -0.5365
  104MOL    C2439370   3.056   4.708   5.186  0.8392  0.2312 -0.8050
  104MOL    C2539371   3.009   4.683   5.334 -0.3823  0.4226 -0.7746
  104MOL    C2639372   2.862   4.640   5.328 -0.5419 -0.2617  0.0750
  104MOL    O2739373   3.149   4.906   4.996 -0.2351  0.4827  0.6147
  104MOL    H2839374   3.389   4.949   5.106 -2.6357 -0.6544  0.4157
  104MOL    H2939375   3.386   4.907   4.927 -3.7018  0.5899 -0.7429
  104MOL    H3039376   3.232   4.711   4.998  0.2239  0.4272 -0.7769
  104MOL    H3139377   3.178   4.877   5.245 -0.1535 -1.5173  1.9763
  104MOL    H3239378   3.269   4.725   5.248 -1.3687 -0.8226 -0.0189
  104MOL    H3339379   3.057   4.615   5.129 -1.4187 -0.2555 -0.0935
  104MOL    H3439380   2.982   4.782   5.156  0.0789  0.0560  0.6196
  104MOL    H3539381   3.066   4.602   5.379  2.0740  1.8082 -1.3059
  104MOL    H3639382   3.017   4.772   5.396  1.4890  0.1129 -0.5579
  104MOL    H3739383   2.835   4.568   5.252 -0.5119  0.2558 -0.4300
  104MOL    H3839384   2.792   4.718   5.296 -0.7894 -0.5134  0.0014
  104MOL    H3939385   2.836   4.605   5.428  0.0876  2.6418  1.3279
  104MOL    C4039386   3.082   4.866   4.881  1.0959 -0.0564 -0.3005
  104MOL    C4139387   3.035   4.983   4.795  0.0413 -0.4739  0.8651
  104MOL    C4239388   3.146   5.062   4.720 -0.3282 -0.5092  0.1337
  104MOL    C4339389   3.116   5.174   4.625 -0.5642 -0.2438 -0.0371
  104MOL    C4439390   3.248   5.239   4.570  0.1779  0.4561  0.0413
  104MOL    C4539391   3.328   5.331   4.658 -0.0186  0.2904  0.0680
  104MOL    O4639392   2.962   5.094   4.857  0.0721  0.4581 -0.8265
  104MOL    H4739393   2.996   4.808   4.913  1.8801 -2.2003 -1.8511
  104MOL    H4839394   3.141   4.792   4.825  1.5176  1.5546 -2.0196
  104MOL    H4939395   2.968   4.943   4.719 -0.8360 -0.7728  1.7972
  104MOL    H5039396   3.200   5.108   4.803 -1.0881 -2.4561  1.7369
  104MOL    H5139397   3.209   4.990   4.667  2.5810  3.0898 -1.5512
  104MOL    H5239398   3.059   5.250   4.678  0.8874 -0.8558  2.5370
  104MOL    H5339399   3.052   5.141   4.544 -0.1347 -0.1559 -0.4122
  104MOL    H5439400   3.310   5.167   4.517  1.2028 -0.0926  1.9195
  104MOL    H5539401   3.207   5.309   4.497 -1.2183 -0.5817 -0.1838
  104MOL    H5639402   3.264   5.416   4.682  1.0017  1.0832 -0.0025
  104MOL    H5739403   3.364   5.278   4.746  3.1740 -0.5818 -1.6873
  104MOL    H5839404   3.409   5.388   4.613  1.6352 -1.5909  0.6049
  104MOL    C5939405   2.829   5.055   4.894 -0.1983 -0.7856 -0.2259
  104MOL    C6039406   2.751   5.185   4.950  0.2690  0.2926 -0.3836
  104MOL    C6139407   2.691   5.270   4.834  0.4602 -0.2764  0.4260
  104MOL    C6239408   2.633   5.409   4.879  0.6408 -0.3171 -0.4228
  104MOL    C6339409   2.585   5.498   4.765  0.0188 -0.0532  0.2064
  104MOL    C6439410   2.573   5.646   4.810  0.1798 -0.1782 -0.6157
  104MOL    O6539411   2.645   5.156   5.043 -0.3297 -0.0499 -0.2892
  104MOL    H6639412   2.846   4.973   4.963 -0.7592  0.1246  1.0124
  104MOL    H6739413   2.779   5.008   4.809 -0.5026 -2.8929  1.0830
  104MOL    H6839414   2.828   5.244   5.001  0.4545  0.2953 -0.6704
  104MOL    H6939415   2.609   5.217   4.785 -0.1927 -0.1652  1.3805
  104MOL    H7039416   2.764   5.286   4.755  1.2875  0.9340  1.4028
  104MOL    H7139417   2.714   5.466   4.924 -0.4809  1.7652 -0.9605
  104MOL    H7239418   2.551   5.390   4.948 -0.0847  0.9724 -0.9024
  104MOL    H7339419   2.494   5.457   4.722 -1.5180  0.3345  2.9568
  104MOL    H7439420   2.654   5.484   4.681 -0.1232 -1.3344  0.3055
  104MOL    H7539421   2.520   5.709   4.738 -2.7550 -1.6038  0.2149
  104MOL    H7639422   2.534   5.661   4.911  1.1088 -2.0786  0.0376
  104MOL    H7739423   2.674   5.684   4.824 -0.6858  0.9772  3.2065
  104MOL    C7839424   2.692   5.095   5.163  0.3598 -0.0752 -0.7013
  104MOL    C7939425   2.579   5.055   5.255  0.5752  0.3494  0.0509
  104MOL    C8039426   2.628   5.029   5.399 -0.4555 -0.9838 -0.3227
  104MOL    C8139427   2.510   5.046   5.496 -0.1236  0.4141  0.2133
  104MOL    C8239428   2.561   5.029   5.634  0.4827 -0.0191 -0.3850
  104MOL    C8339429   2.448   5.044   5.733  0.4545  0.2802 -0.1357
  104MOL    O8439430   2.516   4.936   5.221 -0.4888  0.2188  0.6946
  104MOL    H8539431   2.750   5.166   5.222 -1.0075  0.2064  0.3113
  104MOL    H8639432   2.756   5.009   5.140 -0.9099 -1.0893 -0.5166
  104MOL    H8739433   2.507   5.137   5.253 -1.4473 -1.4017 -1.0852
  104MOL    H8839434   2.673   4.931   5.414 -0.3967 -0.8319  0.5738
  104MOL    H8939435   2.694   5.112   5.429 -1.0967 -0.3573 -0.6350
  104MOL    H9039436   2.434   4.972   5.471 -0.8889  1.5755 -1.0102
  104MOL    H9139437   2.459   5.142   5.490  1.1115  1.0273 -0.8908
  104MOL    H9239438   2.620   4.938   5.641 -0.9606 -1.1602 -2.7004
  104MOL    H9339439   2.636   5.103   5.664 -0.3976  0.3995  0.8288
  104MOL    H9439440   2.381   5.125   5.704  0.1204 -0.1141 -0.4554
  104MOL    H9539441   2.508   5.056   5.824 -0.0316 -0.0007  0.2241
  104MOL    H9639442   2.395   4.950   5.742 -0.3132  0.4912 -2.3347
  104MOL    C9739443   2.447   4.949   5.097 -0.5710 -0.4061  0.4841
  104MOL    C9839444   2.344   4.835   5.099 -0.4002 -0.1613 -0.2194
  104MOL    C9939445   2.394   4.687   5.138  0.1477  0.5979  0.1240
  104MOL   C10039446   2.525   4.646   5.062 -0.4753 -0.9368 -0.6553
  104MOL   C10139447   2.537   4.488   5.055 -0.2198  0.4604  0.1271
  104MOL   C10239448   2.641   4.458   4.945  0.3949  0.2943 -0.1575
  104MOL   O10339449   2.216   4.868   5.166  0.0162  0.1503 -0.4892
  104MOL   H10439450   2.520   4.947   5.017 -0.4273 -0.0340  0.6031
  104MOL   H10539451   2.404   5.048   5.084  1.2454  0.3125 -0.1509
  104MOL   H10639452   2.315   4.819   4.995 -1.4491 -1.5500  0.2793
  104MOL   H10739453   2.321   4.619   5.095  1.2479 -0.5520  0.0294
  104MOL   H10839454   2.399   4.676   5.247 -1.5445 -0.3694  0.1169
  104MOL   H10939455   2.616   4.683   5.111 -1.4540  0.6824 -0.0032
  104MOL   H11039456   2.523   4.690   4.962 -2.6786 -0.4806 -0.4363
  104MOL   H11139457   2.444   4.443   5.022  0.1073 -0.2717  0.1976
  104MOL   H11239458   2.569   4.445   5.150 -1.3217 -0.6033  0.0213
  104MOL   H11339459   2.601   4.482   4.846  0.3487 -2.5776 -0.8725
  104MOL   H11439460   2.732   4.513   4.964 -0.1173  0.9642  0.3688
  104MOL   H11539461   2.674   4.354   4.951  0.5589  0.4261  1.3024
  104MOL   C11639462   2.224   4.915   5.302  0.1606  0.0034 -0.4493
  104MOL   C11739463   2.083   4.947   5.354 -0.0236 -0.0545  0.7352
  104MOL   C11839464   2.105   5.036   5.478 -0.4404 -0.2240  0.1628
  104MOL   C11939465   1.967   5.077   5.539 -0.3209 -0.1156 -0.3718
  104MOL   C12039466   1.982   5.169   5.658  0.0486  1.1380 -0.1048
  104MOL   C12139467   2.046   5.304   5.633  0.3402 -0.0127  0.1718
  104MOL   O12239468   2.016   4.836   5.402 -0.4141 -0.5636 -0.9267
  104MOL   H12339469   2.273   4.842   5.366 -1.0521 -1.7221 -1.4408
  104MOL   H12439470   2.290   5.002   5.293 -1.1720  1.4512  2.9315
  104MOL   H12539471   2.034   5.009   5.279 -2.2278 -2.1506  0.3791
  104MOL   H12639472   2.171   4.993   5.552 -1.4086 -1.9910  0.0277
  104MOL   H12739473   2.151   5.132   5.453 -2.3610  1.3541  2.3981
  104MOL   H12839474   1.932   4.984   5.583  2.3326 -1.6371 -1.4028
  104MOL   H12939475   1.901   5.124   5.466  0.4576  2.8487  0.7753
  104MOL   H13039476   1.889   5.169   5.714 -0.7851  0.9046 -1.4582
  104MOL   H13139477   2.046   5.122   5.733  0.3869  2.7300  0.6334
  104MOL   H13239478   2.123   5.307   5.556 -0.5069  3.0803 -0.6545
  104MOL   H13339479   1.978   5.381   5.597  0.9105 -0.5006 -2.0369
  104MOL   H13439480   2.077   5.348   5.728 -1.5351  0.0893  0.7717
  104MOL   C13539481   1.920   4.776   5.322  0.6890  0.3435 -0.5264
  104MOL   C13639482   1.889   4.636   5.373 -0.2093 -0.6478 -0.2245
  104MOL   C13739483   1.999   4.535   5.346 -0.7674 -1.1969 -0.5178
  104MOL   C13839484   1.988   4.399   5.410 -0.2461 -0.8642  0.6313
  104MOL   C13939485   2.085   4.293   5.359 -0.2409  0.1885 -0.4249
  104MOL   C14039486   2.058   4.162   5.438  0.3177  0.9933  0.0445
  104MOL   O14139487   1.764   4.593   5.322 -0.0974  0.5588 -0.0067
  104MOL   H14239488   1.833   4.840   5.342 -1.1526 -1.9238 -1.0111
  104MOL   H14339489   1.938   4.779   5.215  1.7040 -1.5719 -0.4360
  104MOL   H14439490   1.884   4.666   5.478  1.8027 -0.1791 -0.2531
  104MOL   H14539491   2.010   4.533   5.238 -0.1788  1.5801 -0.5540
  104MOL   H14639492   2.075   4.592   5.399 -1.3860 -0.8822  0.0534
  104MOL   H14739493   1.889   4.362   5.385  0.0488 -0.7800 -0.7525
  104MOL   H14839494   1.996   4.409   5.518 -0.0405 -0.9405  0.6227
  104MOL   H14939495   2.190   4.318   5.375  0.3304 -2.1508 -0.2816
  104MOL   H15039496   2.075   4.269   5.254 -0.3616 -2.1847  0.1066
  104MOL   H15139497   1.956   4.126   5.419  0.0576 -0.3266  3.5038
  104MOL   H15239498   2.121   4.079   5.406  0.5518  1.6995 -1.3586
  104MOL   H15339499   2.055   4.191   5.543 -0.5803  2.3806 -0.3507
  104MOL   C15439500   1.668   4.602   5.423 -0.9822  0.0853  0.1338
  104MOL   C15539501   1.536   4.537   5.381  0.2177  0.7151 -0.7567
  104MOL   C15639502   1.552   4.385   5.384  0.1723 -0.0645 -0.2528
  104MOL   C15739503   1.425   4.323   5.329  0.4892  0.4322  0.1448
  104MOL   C15839504   1.444   4.167   5.288 -0.2151 -0.3374 -1.2254
  104MOL   C15939505   1.437   4.086   5.418  0.4539  0.1296 -0.8038
  104MOL   O16039506   1.431   4.575   5.468 -0.0954 -0.4305  0.3439
  104MOL   H16139507   1.651   4.701   5.463 -0.2769  0.0357  0.5589
  104MOL   H16239508   1.695   4.547   5.513 -1.4495  1.5818  1.1979
  104MOL   H16339509   1.521   4.586   5.285  0.9729  2.6690  0.1032
  104MOL   H16439510   1.565   4.351   5.486  0.4284 -3.9892 -1.5133
  104MOL   H16539511   1.643   4.357   5.330 -1.1228 -2.8143 -1.1075
  104MOL   H16639512   1.405   4.366   5.230  1.2173 -0.4191 -0.3800
  104MOL   H16739513   1.341   4.336   5.397  1.2163  0.0918  1.1093
  104MOL   H16839514   1.365   4.132   5.222  0.5351 -0.9140 -1.8305
  104MOL   H16939515   1.537   4.146   5.234  0.5539 -1.0376  0.3646
  104MOL   H17039516   1.415   3.981   5.402  2.2851 -0.4837  0.5177
  104MOL   H17139517   1.370   4.135   5.489 -0.5038 -0.6301 -1.1566
  104MOL   H17239518   1.524   4.092   5.483 -0.4296 -1.2051  0.5601
  104MOL   C17339519   1.337   4.667   5.411 -1.0832  0.4364 -0.0672
  104MOL   C17439520   1.230   4.725   5.506 -0.4915  0.3020  0.3053
  104MOL   C17539521   1.174   4.857   5.452 -0.0395  0.1467 -0.2369
  104MOL   C17639522   1.095   4.925   5.566  0.5290  0.2445  0.0307
  104MOL   C17739523   0.975   5.013   5.521 -0.3339 -0.3488  0.0512
  104MOL   C17839524   0.890   5.052   5.642 -0.7752  0.5766 -0.3528
  104MOL   O17939525   1.122   4.629   5.531  0.9505 -0.3671 -0.4822
  104MOL   H18039526   1.284   4.615   5.331  0.2610  1.3643 -1.5905
  104MOL   H18139527   1.384   4.747   5.354 -1.8097  2.5270  2.2198
  104MOL   H18239528   1.287   4.758   5.593  0.8085 -1.3250  0.0982
  104MOL   H18339529   1.250   4.926   5.414  0.2569 -1.2332 -2.1994
  104MOL   H18439530   1.113   4.834   5.365 -0.8159  0.2295  0.2797
  104MOL   H18539531   1.050   4.846   5.626  0.0780  1.3588  1.1922
  104MOL   H18639532   1.164   4.985   5.625 -1.2714  1.4836  0.9323
  104MOL   H18739533   1.017   5.097   5.464 -0.6562 -1.2101 -1.4849
  104MOL   H18839534   0.911   4.958   5.453 -2.7071 -0.5580  2.3908
  104MOL   H18939535   0.866   4.970   5.709  0.5335  0.9365  0.6070
  104MOL   H19039536   0.796   5.094   5.607 -0.6644  0.7648 -0.4284
  104MOL   H19139537   0.942   5.134   5.693 -0.6278 -1.1872  2.4650
  104MOL   C19239538   1.152   4.543   5.640 -0.0260  0.5304  0.4740
  104MOL   C19339539   1.038   4.455   5.681  0.6911  0.2584  0.4834
  104MOL   C19439540   1.013   4.451   5.831 -0.4280  1.6846  0.0555
  104MOL   C19539541   0.883   4.376   5.859  0.4265 -0.3753 -0.3511
  104MOL   C19639542   0.803   4.437   5.967 -0.7635  0.6419 -0.1797
  104MOL   C19739543   0.877   4.452   6.106 -0.4921 -0.0549 -0.2126
  104MOL   O19839544   1.074   4.328   5.639 -0.4925 -0.9430  0.2468
  104MOL   H19939545   1.243   4.491   5.612  0.9357  1.8246  1.1923
  104MOL   H20039546   1.180   4.599   5.729 -0.2712  1.7324 -0.2003
  104MOL   H20139547   0.944   4.485   5.635  0.5381 -1.1667 -0.1645
  104MOL   H20239548   1.091   4.397   5.886 -1.0507  1.6888  0.9502
  104MOL   H20339549   1.011   4.551   5.873 -0.3813  1.5876  0.2948
  104MOL   H20439550   0.918   4.281   5.900 -0.9812 -1.7757 -2.2820
  104MOL   H20539551   0.829   4.348   5.768  0.3892  0.1228 -0.4811
  104MOL   H20639552   0.768   4.532   5.927 -0.3962  0.6713 -0.4358
  104MOL   H20739553   0.711   4.379   5.969  0.8443 -2.0153 -0.2646
  104MOL   H20839554   0.941   4.540   6.105 -1.6023  0.7838  0.7289
  104MOL   H20939555   0.803   4.480   6.181  0.4916  1.1452  0.3292
  104MOL   H21039556   0.942   4.372   6.142  3.2758  3.2516  0.6523
  104MOL   C21139557   1.026   4.297   5.513  0.7203  0.0815  0.0785
  104MOL   C21239558   1.040   4.141   5.496  0.7342 -0.0131  0.4578
  104MOL   C21339559   1.043   4.104   5.345  0.1799 -0.5546  0.3482
  104MOL   C21439560   1.085   3.957   5.320  0.1242  0.6371  0.0788
  104MOL   C21539561   1.058   3.915   5.169  0.3222 -0.1479  0.4045
  104MOL   C21639562   1.128   4.006   5.066  0.0491  0.1898 -0.0217
  104MOL   O21739563   0.922   4.082   5.549 -0.0974  0.2415 -0.4623
  104MOL   H21839564   1.086   4.345   5.436 -2.5662  1.2347 -1.8542
  104MOL   H21939565   0.922   4.324   5.498  0.3695 -1.1754  0.2422
  104MOL   H22039566   1.134   4.113   5.542  1.4402 -0.8882 -1.4622
  104MOL   H22139567   0.945   4.124   5.302  0.1979 -0.6507  0.2639
  104MOL   H22239568   1.108   4.174   5.292 -1.4118  0.9111  0.2911
  104MOL   H22339569   1.189   3.936   5.345  0.0617 -0.1058 -0.2804
  104MOL   H22439570   1.023   3.894   5.384 -1.8934  0.0283 -2.4240
  104MOL   H22539571   1.072   3.807   5.163  1.9266  0.1112 -1.4597
  104MOL   H22639572   0.950   3.913   5.155  0.4205 -0.7538 -0.3178
  104MOL   H22739573   1.094   4.109   5.073 -2.7258 -0.6246 -1.1309
  104MOL   H22839574   1.111   3.971   4.965  0.4829 -1.9727  0.6305
  104MOL   H22939575   1.237   4.007   5.075 -0.1132  0.7091  2.4616
  104MOL   C23039576   0.953   3.992   5.652 -0.1728  0.5335  0.1493
  104MOL   C23139577   0.832   3.935   5.726 -0.3535 -0.1297 -0.4657
  104MOL   C23239578   0.720   3.876   5.632 -0.7397 -0.2251  0.1103
  104MOL   C23339579   0.596   3.809   5.697 -0.2170  0.3012 -0.4681
  104MOL   C23439580   0.516   3.744   5.584  0.0364 -0.7014 -0.0193
  104MOL   C23539581   0.389   3.660   5.627  0.0686 -0.3566  0.0151
  104MOL   O23639582   0.778   4.016   5.831 -0.1746  0.1942  0.5132
  104MOL   H23739583   1.011   3.908   5.615 -0.6417 -0.6882  2.0754
  104MOL   H23839584   1.026   4.044   5.714  0.7910  1.1337 -1.4766
  104MOL   H23939585   0.878   3.845   5.766  2.2847  1.3113 -0.1766
  104MOL   H24039586   0.767   3.807   5.562  2.1989  2.4047 -0.6382
  104MOL   H24139587   0.702   3.950   5.554 -0.9252 -0.5048 -0.1132
  104MOL   H24239588   0.545   3.894   5.742 -0.6187 -1.0373  1.6785
  104MOL   H24339589   0.623   3.737   5.775 -2.2113  1.5268  1.4191
  104MOL   H24439590   0.489   3.816   5.506 -1.1142 -0.2386  0.7905
  104MOL   H24539591   0.571   3.676   5.519  0.8187 -2.0980  2.0854
  104MOL   H24639592   0.429   3.582   5.692 -0.1650 -1.1471 -0.7823
  104MOL   H24739593   0.327   3.617   5.548 -0.6368 -1.3312  1.0731
  104MOL   H24839594   0.330   3.734   5.681 -1.2545 -0.8684 -0.6920
  104MOL   C24939595   0.794   3.960   5.959  0.6712  0.1134  0.2388
  104MOL   C25039596   0.751   4.065   6.063  0.3566 -0.5303  0.0644
  104MOL   C25139597   0.811   4.044   6.203 -0.0158 -0.0998  0.5249
  104MOL   C25239598   0.767   4.141   6.316 -0.0025  0.3122  0.3527
  104MOL   C25339599   0.877   4.139   6.424  0.3555  0.1722  0.2643
  104MOL   C25439600   0.844   4.219   6.545 -0.0044 -0.1647  0.4228
  104MOL   O25539601   0.608   4.051   6.077 -0.1200  0.1855 -0.1736
  104MOL   H25639602   0.735   3.868   5.963 -1.8617  1.7482  1.9299
  104MOL   H25739603   0.891   3.919   5.988  0.2826 -1.2710 -0.3767
  104MOL   H25839604   0.788   4.161   6.028  0.3642  0.6319  3.1399
  104MOL   H25939605   0.784   3.943   6.233  0.5984 -1.1253 -2.2321
  104MOL   H26039606   0.916   4.061   6.178 -0.6780  3.7026  0.0052
  104MOL   H26139607   0.748   4.243   6.285 -2.3732 -0.1479  0.2501
  104MOL   H26239608   0.673   4.099   6.352 -0.0380  1.5049  1.7090
  104MOL   H26339609   0.889   4.034   6.451  0.9831  0.3588  0.7257
  104MOL   H26439610   0.975   4.177   6.398  0.4533  1.1001  1.9041
  104MOL   H26539611   0.850   4.327   6.531  0.7177 -0.4550 -1.6385
  104MOL   H26639612   0.906   4.206   6.633 -2.3616  2.2327  2.5140
  104MOL   H26739613   0.742   4.194   6.575  0.0792 -3.4661 -1.7984
  104MOL   C26839614   0.536   4.118   5.975  0.2790 -0.2140 -0.3536
  104MOL   C26939615   0.382   4.104   6.003 -0.5454 -0.2774  0.3328
  104MOL   C27039616   0.339   3.968   5.961 -0.6694  0.3334 -0.1723
  104MOL   C27139617   0.194   3.939   6.015 -0.4947  0.0938  0.2437
  104MOL   C27239618   0.130   3.811   5.952  0.4357 -0.8354  0.2617
  104MOL   C27339619   7.773   3.780   5.979  0.2282  0.5623  0.0266
  104MOL   O27439620   0.301   4.206   5.937  0.3670  0.3625  0.7497
  104MOL   H27539621   0.553   4.075   5.877  1.5946 -1.8062  0.5502
  104MOL   H27639622   0.568   4.222   5.973  1.1793 -0.4922 -0.7346
  104MOL   H27739623   0.357   4.099   6.108 -1.3713  0.4342  0.1675
  104MOL   H27839624   0.346   3.949   5.854  1.9102 -0.8943  0.1687
  104MOL   H27939625   0.403   3.892   6.007 -0.4549  1.4329  1.3597
  104MOL   H28039626   0.213   3.925   6.121 -3.8593 -0.4952  0.8479
  104MOL   H28139627   0.132   4.026   5.993  0.1326  0.9584  1.8225
  104MOL   H28239628   0.144   3.818   5.844 -0.9334  1.2114  0.1853
  104MOL   H28339629   0.188   3.724   5.983  0.6476 -0.4628  0.9262
  104MOL   H28439630   7.731   3.693   5.929  2.0029 -0.6060  0.5205
  104MOL   H28539631   7.765   3.773   6.088 -1.2290 -1.8791 -0.2059
  104MOL   H28639632   7.699   3.853   5.945 -0.3559 -0.1486 -0.2373
  104MOL   C28739633   0.304   4.331   6.003  0.1255 -0.3679 -0.5521
  104MOL   C28839634   0.196   4.411   5.948  0.0330 -0.3121  0.5809
  104MOL   C28939635   0.184   4.555   6.008 -0.3100 -0.3036 -0.4041
  104MOL   C29039636   0.077   4.654   5.957 -0.7530  0.6004 -0.2363
  104MOL   C29139637   0.082   4.790   6.026  0.0738  0.2302  0.1565
  104MOL   C29239638   0.166   4.899   5.950 -0.0276 -0.2158  0.0429
  104MOL   O29339639   0.082   4.341   5.985  0.4322  0.2759  0.2169
  104MOL   H29439640   0.399   4.382   5.992 -0.3084  0.9993  1.7019
  104MOL   H29539641   0.285   4.318   6.109 -0.7730 -0.3380 -0.7054
  104MOL   H29639642   0.210   4.419   5.840  0.7508  1.3100  0.7828
  104MOL   H29739643   0.181   4.556   6.117  2.4431  1.5643 -0.2894
  104MOL   H29839644   0.275   4.611   5.986 -0.1881 -0.2446  0.2345
  104MOL   H29939645   0.076   4.667   5.849  0.3943 -0.4685 -0.3843
  104MOL   H30039646   7.764   4.614   5.978 -0.1028  0.5286  2.8601
  104MOL   H30139647   0.126   4.786   6.125 -0.8685  0.8855  0.6054
  104MOL   H30239648   7.767   4.830   6.041  0.6438  1.0073  2.0574
  104MOL   H30339649   0.272   4.877   5.967  0.2873  0.2210 -1.2921
  104MOL   H30439650   0.141   4.909   5.845  0.5419  2.0328  0.1026
  104MOL   H30539651   0.155   5.004   5.979  0.8195  0.5850 -2.4638
  104MOL   C30639652   0.010   4.283   5.878  0.2775  0.0249 -0.7571
  104MOL   C30739653   7.667   4.215   5.925  0.5073 -0.6975 -0.2080
  104MOL   C30839654   7.591   4.160   5.806 -0.0839  0.2343 -0.4032
  104MOL   C30939655   7.454   4.107   5.862  0.2721 -0.1297  0.1031
  104MOL   C31039656   7.387   4.012   5.759  0.6647 -0.2052  1.3141
  104MOL   C31139657   7.251   3.948   5.807 -0.0956 -0.5162  0.5567
  104MOL   O31239658   7.584   4.320   5.976  0.1333  0.1452  0.2750
  104MOL   H31339659   7.783   4.355   5.797 -1.4708  0.2581 -0.2912
  104MOL   H31439660   0.074   4.202   5.843  0.8633  0.6381 -1.1068
  104MOL   H31539661   7.691   4.144   6.004 -2.1336 -1.7801 -0.3260
  104MOL   H31639662   7.652   4.086   5.754 -0.4594 -0.4009  0.0557
  104MOL   H31739663   7.572   4.243   5.738  2.1902  0.7195 -0.4921
  104MOL   H31839664   7.469   4.050   5.953 -2.3561 -2.6464 -0.9568
  104MOL   H31939665   7.393   4.193   5.889  1.6763  0.0310  2.8811
  104MOL   H32039666   7.456   3.930   5.737 -0.4537 -0.4943 -1.3106
  104MOL   H32139667   7.365   4.077   5.674  3.3139 -1.4437 -0.4033
  104MOL   H32239668   7.170   4.013   5.840 -2.1285 -1.6828 -1.9488
  104MOL   H32339669   7.216   3.886   5.724  1.4328 -0.3015 -0.2710
  104MOL   H32439670   7.279   3.880   5.887  3.0175  1.1213  0.9472
  104MOL   C32539671   7.590   4.334   6.115  0.1753  0.1875  0.0305
  104MOL   C32639672   7.522   4.457   6.183 -0.2584 -0.7352 -0.0885
  104MOL   C32739673   7.612   4.506   6.294 -0.3280 -0.3583  0.6415
  104MOL   C32839674   7.548   4.628   6.365 -0.3157  0.0774  0.1716
  104MOL   C32939675   7.622   4.685   6.489  0.4344 -0.0425 -0.1924
  104MOL   C33039676   7.769   4.703   6.459  1.0211 -0.4101 -0.5066
  104MOL   O33139677   7.385   4.437   6.217 -0.2407  0.3891  0.0617
  104MOL   H33239678   7.696   4.337   6.143 -0.1308  2.9721  1.0130
  104MOL   H33339679   7.554   4.241   6.160  1.0040  0.8880  2.2199
  104MOL   H33439680   7.521   4.540   6.112  0.8228 -0.3219  0.3638
  104MOL   H33539681   7.634   4.421   6.359  1.2982  0.4545  1.1699
  104MOL   H33639682   7.703   4.546   6.250 -0.4846  2.3437  2.6516
  104MOL   H33739683   7.534   4.704   6.287 -2.0490 -0.4378 -0.0245
  104MOL   H33839684   7.454   4.596   6.409 -0.3768 -1.7751 -1.2410
  104MOL   H33939685   7.574   4.777   6.523  0.2567 -0.3643  0.4319
  104MOL   H34039686   7.609   4.622   6.577 -1.3255  2.6230  1.5339
  104MOL   H34139687   0.029   4.605   6.447 -0.2074 -0.8851 -1.3601
  104MOL   H34239688   7.781   4.757   6.365 -0.2466  0.1390 -0.3656
  104MOL   H34339689   0.024   4.772   6.533  3.3812 -0.6282 -1.5529
  104MOL   C34439690   7.290   4.420   6.110  0.3549  0.5679  0.1108
  104MOL   C34539691   7.173   4.344   6.186 -0.1361 -0.0358  0.0236
  104MOL   C34639692   7.086   4.272   6.089 -0.2558 -0.2796 -0.5090
  104MOL   C34739693   7.023   4.352   5.976 -0.0270 -0.2019  0.0263
  104MOL   C34839694   6.938   4.262   5.886  0.4434  0.4613  0.3425
  104MOL   C34939695   6.834   4.337   5.793  0.2752  0.2050  0.1582
  104MOL   O35039696   7.215   4.239   6.264 -0.7046 -0.0947  0.5101
  104MOL   H35139697   7.333   4.359   6.030  0.1488  0.0276  0.4076
  104MOL   H35239698   7.249   4.514   6.075  0.0097  0.7135  0.9106
  104MOL   H35339699   7.100   4.407   6.237 -1.1093 -0.8530 -0.3371
  104MOL   H35439700   7.009   4.220   6.146 -0.9911 -0.9334 -2.0481
  104MOL   H35539701   7.141   4.189   6.044 -1.6557 -1.3387 -0.3263
  104MOL   H35639702   7.102   4.389   5.911  0.4288 -1.7065 -0.3163
  104MOL   H35739703   6.959   4.435   6.004  0.0044  0.6669 -2.4215
  104MOL   H35839704   6.869   4.204   5.947 -1.8105  2.2493 -0.3999
  104MOL   H35939705   6.991   4.181   5.837 -0.2184  0.0372  0.3120
  104MOL   H36039706   6.885   4.417   5.738 -2.6504  2.3029  0.3763
  104MOL   H36139707   6.758   4.381   5.857  1.4346  0.1685  1.5978
  104MOL   H36239708   6.786   4.286   5.710  2.5634  0.1248 -1.1651
  104MOL   C36339709   7.229   4.260   6.407  0.6565 -0.4141 -0.8983
  104MOL   C36439710   7.359   4.195   6.449 -0.0414  0.9002  0.0439
  104MOL   C36539711   7.381   4.213   6.601 -0.0405  0.2059  0.2743
  104MOL   C36639712   7.457   4.343   6.629 -0.2101 -0.3179 -0.7306
  104MOL   C36739713   7.469   4.394   6.777 -0.4569 -0.2484  0.1221
  104MOL   C36839714   7.336   4.432   6.843 -0.3351  0.3936  0.4015
  104MOL   O36939715   7.328   4.051   6.429  0.4343  0.0062  0.4619
  104MOL   H37039716   7.143   4.222   6.463  1.1224  0.1694  0.2490
  104MOL   H37139717   7.240   4.366   6.429 -0.3968 -0.4703 -0.0316
  104MOL   H37239718   7.445   4.234   6.396  0.0172 -0.2867 -0.7616
  104MOL   H37339719   7.282   4.227   6.644  0.7050  2.9297  1.1972
  104MOL   H37439720   7.426   4.122   6.641  0.0333 -0.5285 -1.4465
  104MOL   H37539721   7.554   4.331   6.583 -0.4032 -1.5333 -0.8453
  104MOL   H37639722   7.414   4.419   6.565 -0.7852  0.1003  0.1386
  104MOL   H37739723   7.525   4.313   6.823 -2.0251 -0.9172  0.8793
  104MOL   H37839724   7.537   4.478   6.766 -0.7705 -0.0604 -0.4222
  104MOL   H37939725   7.352   4.503   6.924  1.6319 -1.4158  1.6777
  104MOL   H38039726   7.271   4.481   6.771 -0.8309 -0.4021  0.3064
  104MOL   H38139727   7.280   4.350   6.888  0.1123  0.3086  0.8136
  104MOL   H38239728   7.288   4.043   6.343 -0.6938 -0.5985  1.0235
  105MOL     C139729   3.712   3.234   5.470  0.5150  0.0554 -0.2927
  105MOL     C239730   3.733   3.204   5.323  0.3966  0.3460 -0.0998
  105MOL     C339731   3.600   3.246   5.247 -0.6302  0.1014 -0.4262
  105MOL     C439732   3.590   3.223   5.097 -0.3078  0.2347 -0.2588
  105MOL     C539733   3.499   3.322   5.014 -0.0039  0.2456  0.1001
  105MOL     C639734   3.353   3.301   5.037 -0.2707  0.4530 -0.2836
  105MOL     O739735   3.847   3.273   5.280 -0.2462  0.5030  0.3137
  105MOL     H839736   3.614   3.207   5.508  0.3998 -1.6799 -1.8035
  105MOL     H939737   3.721   3.342   5.482 -0.4706 -0.0087  1.2068
  105MOL    H1039738   3.737   3.096   5.304 -0.6115  0.5231 -1.3710
  105MOL    H1139739   3.515   3.201   5.298 -0.5297 -0.9494 -1.1743
  105MOL    H1239740   3.580   3.353   5.260 -0.1848  0.2596 -1.0371
  105MOL    H1339741   3.689   3.246   5.060  0.4064  1.4426  2.2814
  105MOL    H1439742   3.587   3.116   5.078  1.9098  0.2442 -0.7878
  105MOL    H1539743   3.540   3.422   5.029  1.7495 -0.7108  1.8827
  105MOL    H1639744   3.512   3.306   4.907 -0.4064 -0.1584  0.1078
  105MOL    H1739745   3.317   3.202   5.009 -0.9495  0.3383  0.9889
  105MOL    H1839746   3.337   3.303   5.144  0.6879  0.8081 -0.1427
  105MOL    H1939747   3.279   3.374   5.005 -2.5907 -0.7227  2.2090
  105MOL    H2039748   3.779   3.205   5.552  0.4385  0.9836  0.1126
  105MOL    C2139749   3.945   3.206   5.199  0.0660  0.0596  0.0052
  105MOL    C2239750   4.083   3.274   5.212  1.3280  0.1251  0.6716
  105MOL    C2339751   4.205   3.177   5.222 -0.5441  0.1827 -0.4541
  105MOL    C2439752   4.221   3.095   5.096 -0.9008 -0.3990  0.2715
  105MOL    C2539753   4.361   3.033   5.098 -0.5106 -0.3365  0.2568
  105MOL    C2639754   4.381   2.922   5.208  0.2826  0.2806 -0.1875
  105MOL    O2739755   4.092   3.354   5.101  0.3489  0.0898 -0.3644
  105MOL    H2839756   3.964   3.104   5.233  2.2785 -0.4065 -2.4630
  105MOL    H2939757   3.897   3.206   5.101 -0.7964 -2.7694  0.3741
  105MOL    H3039758   4.076   3.345   5.294 -1.3058  0.6616  0.0095
  105MOL    H3139759   4.193   3.112   5.309 -1.9894  0.3528 -0.5220
  105MOL    H3239760   4.296   3.232   5.246 -0.3701  0.3988 -1.5669
  105MOL    H3339761   4.210   3.160   5.009  0.2559 -1.5375 -0.7496
  105MOL    H3439762   4.140   3.022   5.095  0.3952 -1.9576  3.0371
  105MOL    H3539763   4.363   2.975   5.005 -1.4494 -1.7830  1.1126
  105MOL    H3639764   4.444   3.103   5.095 -0.7422 -0.0684 -0.0126
  105MOL    H3739765   4.288   2.866   5.213  1.0129 -0.9084  0.0171
  105MOL    H3839766   4.418   2.955   5.305 -0.2303  0.2014  0.0358
  105MOL    H3939767   4.452   2.849   5.171  2.0512  1.6480  0.4584
  105MOL    C4039768   4.193   3.459   5.102 -0.4715 -0.3208  0.3884
  105MOL    C4139769   4.161   3.555   4.986  0.2337  0.2614  0.3761
  105MOL    C4239770   4.284   3.624   4.936 -0.0615 -0.1060  0.9109
  105MOL    C4339771   4.271   3.717   4.812 -0.1754  0.1512 -0.0868
  105MOL    C4439772   4.402   3.773   4.756  0.7173  0.1945 -0.8561
  105MOL    C4539773   4.379   3.869   4.638  0.0714 -0.3399 -0.0610
  105MOL    O4639774   4.067   3.655   5.024 -1.1094  0.0916  0.2451
  105MOL    H4739775   4.295   3.421   5.099  0.0891  1.1445  0.9154
  105MOL    H4839776   4.172   3.508   5.197  2.1106  0.7200  0.4420
  105MOL    H4939777   4.131   3.493   4.902  2.5210  0.6646 -0.7808
  105MOL    H5039778   4.331   3.687   5.012  0.8159  0.4241 -0.0514
  105MOL    H5139779   4.350   3.543   4.905 -1.0173 -0.7075  0.4369
  105MOL    H5239780   4.205   3.799   4.839 -0.6459  0.4400 -2.0826
  105MOL    H5339781   4.215   3.665   4.734  0.2458 -0.4620  0.0204
  105MOL    H5439782   4.455   3.831   4.831 -0.5504  0.3054 -0.0175
  105MOL    H5539783   4.463   3.685   4.736  1.5722  0.7511 -0.7207
  105MOL    H5639784   4.474   3.900   4.594 -1.5396  0.4647 -3.1185
  105MOL    H5739785   4.319   3.832   4.555 -1.5037 -0.9024  1.2988
  105MOL    H5839786   4.330   3.958   4.679  1.4230  0.0090  0.8034
  105MOL    C5939787   3.936   3.606   5.043 -0.1085 -0.2196  0.4538
  105MOL    C6039788   3.828   3.711   5.078  0.4586 -0.1396 -0.0680
  105MOL    C6139789   3.694   3.656   5.076 -0.4024  0.3089  0.5492
  105MOL    C6239790   3.590   3.769   5.077 -0.2379  0.3286  0.1224
  105MOL    C6339791   3.449   3.720   5.094  1.0905 -0.1311  0.4726
  105MOL    C6439792   3.349   3.833   5.128 -1.3660 -0.3903 -0.0450
  105MOL    O6539793   3.851   3.761   5.207 -0.2735  0.3490  0.6753
  105MOL    H6639794   3.935   3.532   5.123  0.4302  0.2693  0.9279
  105MOL    H6739795   3.905   3.554   4.953  1.7325 -2.1123  0.8841
  105MOL    H6839796   3.837   3.789   5.003  0.0670 -0.1222 -0.0976
  105MOL    H6939797   3.675   3.596   5.165 -1.4054  0.7824  0.6636
  105MOL    H7039798   3.687   3.597   4.985  0.3737 -0.7550  1.1774
  105MOL    H7139799   3.601   3.838   4.994  1.3008  0.3336  0.3087
  105MOL    H7239800   3.618   3.832   5.162  0.7434 -2.9296  2.3461
  105MOL    H7339801   3.452   3.648   5.176  0.5745 -0.2800  0.3681
  105MOL    H7439802   3.425   3.656   5.008  1.6151 -1.3561  1.2209
  105MOL    H7539803   3.257   3.788   5.167  0.2799 -2.5009  1.5482
  105MOL    H7639804   3.379   3.900   5.209  1.6685 -2.6321  0.7621
  105MOL    H7739805   3.324   3.871   5.029  0.0702 -1.3362 -0.7945
  105MOL    C7839806   3.947   3.867   5.209  0.1118  0.4611 -0.3253
  105MOL    C7939807   3.948   3.901   5.360  0.5052 -0.2239  0.5172
  105MOL    C8039808   3.981   4.046   5.390  0.4079 -0.2856 -0.0767
  105MOL    C8139809   4.091   4.102   5.299  0.2225 -0.2609  0.0665
  105MOL    C8239810   4.147   4.246   5.352  0.2844 -0.1991 -0.6602
  105MOL    C8339811   4.192   4.338   5.241 -0.5025 -0.1993  0.4487
  105MOL    O8439812   4.047   3.821   5.422  0.6551 -0.1830  0.3067
  105MOL    H8539813   3.918   3.944   5.137 -0.2845  1.3162  0.7358
  105MOL    H8639814   4.049   3.839   5.183 -0.1713 -1.0855  0.2040
  105MOL    H8739815   3.848   3.902   5.404 -0.9802 -1.1862 -2.6895
  105MOL    H8839816   3.892   4.108   5.388 -0.7742 -1.8986  0.7519
  105MOL    H8939817   3.993   4.048   5.498  1.1529  0.9892 -0.1750
  105MOL    H9039818   4.033   4.117   5.208  1.2644  0.8839 -0.4331
  105MOL    H9139819   4.175   4.034   5.290 -0.7231 -1.2465 -1.4355
  105MOL    H9239820   4.077   4.296   5.419 -0.1345 -0.3887 -0.9593
  105MOL    H9339821   4.236   4.234   5.415 -0.3296 -0.2394  0.2018
  105MOL    H9439822   4.120   4.355   5.161  1.1221  0.5805 -0.8648
  105MOL    H9539823   4.280   4.298   5.190 -0.1910 -0.1237  0.9245
  105MOL    H9639824   4.218   4.434   5.285  2.4532  1.3694 -4.3436
  105MOL    C9739825   4.012   3.690   5.450 -0.1456  0.0827  0.1912
  105MOL    C9839826   4.094   3.634   5.571 -0.0378 -0.7098 -0.1422
  105MOL    C9939827   4.030   3.500   5.610  0.4603 -0.8945 -0.0708
  105MOL   C10039828   4.088   3.434   5.738 -0.6132 -0.2857 -0.1968
  105MOL   C10139829   3.985   3.348   5.805 -0.2873  0.0729 -0.5325
  105MOL   C10239830   4.039   3.282   5.937  0.5440 -0.4454  0.1730
  105MOL   O10339831   4.231   3.610   5.542 -0.3816  0.3232 -0.0127
  105MOL   H10439832   4.012   3.630   5.359  0.4358 -0.1611  0.3544
  105MOL   H10539833   3.907   3.695   5.482 -0.1544  2.2228 -0.0762
  105MOL   H10639834   4.084   3.687   5.666  1.2829  1.3762 -1.1376
  105MOL   H10739835   4.031   3.424   5.533 -1.6900  0.0050 -1.0170
  105MOL   H10839836   3.926   3.521   5.636  0.5962  2.9674 -2.2806
  105MOL   H10939837   4.129   3.504   5.809  3.8929 -1.8057 -1.1407
  105MOL   H11039838   4.171   3.371   5.706  1.4614  1.4463  1.6251
  105MOL   H11139839   3.955   3.267   5.738 -1.4116 -2.0440  2.4638
  105MOL   H11239840   3.897   3.410   5.821 -0.1042  0.7373 -2.0148
  105MOL   H11339841   4.136   3.233   5.927  2.1784  2.0790  2.7418
  105MOL   H11439842   4.048   3.370   6.001  0.6705 -1.1695  1.1566
  105MOL   H11539843   3.967   3.211   5.976 -0.2192  1.0729  1.5806
  105MOL   C11639844   4.328   3.713   5.543 -0.2609  0.0547  0.3444
  105MOL   C11739845   4.426   3.701   5.423 -0.5336  0.2299  0.1149
  105MOL   C11839846   4.483   3.571   5.410 -0.9668  0.6035 -0.9457
  105MOL   C11939847   4.591   3.534   5.516  0.1639  0.0773 -0.5283
  105MOL   C12039848   4.649   3.396   5.489  0.1263  0.1721 -0.0591
  105MOL   C12139849   4.746   3.345   5.590 -0.2547 -0.0339 -0.5166
  105MOL   O12239850   4.529   3.798   5.434 -0.5220 -0.5567  0.0970
  105MOL   H12339851   4.265   3.802   5.534  0.0734  0.4891  2.0726
  105MOL   H12439852   4.367   3.707   5.644  0.9548  2.5295  0.0744
  105MOL   H12539853   4.366   3.710   5.333  1.1595 -0.6636 -1.1345
  105MOL   H12639854   4.408   3.494   5.397 -1.2987  0.5522  1.1642
  105MOL   H12739855   4.537   3.576   5.315  0.0477 -0.7875 -0.4586
  105MOL   H12839856   4.552   3.538   5.618  0.5440 -1.2027 -0.3208
  105MOL   H12939857   4.681   3.596   5.510  0.0256  0.1811 -1.6270
  105MOL   H13039858   4.561   3.333   5.485  0.2253  0.0048  0.3409
  105MOL   H13139859   4.702   3.399   5.394 -0.5797 -1.3003 -0.5064
  105MOL   H13239860   4.770   3.249   5.545 -2.5046  0.2335 -2.3909
  105MOL   H13339861   4.836   3.406   5.578  0.6304 -1.3748 -0.7727
  105MOL   H13439862   4.715   3.336   5.694 -1.3147  1.3010 -0.7060
  105MOL   C13539863   4.487   3.927   5.380  0.5584  0.0238 -0.8835
  105MOL   C13639864   4.600   4.037   5.380  0.5600  0.2136  0.2117
  105MOL   C13739865   4.557   4.168   5.320  0.2309 -0.2666  0.2681
  105MOL   C13839866   4.669   4.273   5.299  0.4950 -0.1927  0.3073
  105MOL   C13939867   4.626   4.410   5.249  0.7808  0.2026 -0.0621
  105MOL   C14039868   4.702   4.544   5.293 -0.0643 -0.6409 -0.1126
  105MOL   O14139869   4.691   3.994   5.290  0.6795  0.6230  0.1597
  105MOL   H14239870   4.443   3.919   5.281 -1.2564  2.7481 -0.3323
  105MOL   H14339871   4.403   3.955   5.443  0.6163 -0.4855 -0.5775
  105MOL   H14439872   4.644   4.044   5.480 -0.9456 -0.8609  0.9637
  105MOL   H14539873   4.503   4.157   5.226  2.3090 -1.4024 -0.8298
  105MOL   H14639874   4.484   4.209   5.390 -1.6519 -2.1347 -0.5619
  105MOL   H14739875   4.745   4.238   5.229  0.0793 -1.5288  0.5167
  105MOL   H14839876   4.711   4.297   5.396 -1.8601  1.0477  1.0581
  105MOL   H14939877   4.521   4.427   5.273  0.3978 -0.1776 -1.4406
  105MOL   H15039878   4.637   4.405   5.141 -1.7707  0.7626 -0.3943
  105MOL   H15139879   4.700   4.611   5.207 -0.5443  2.1867  2.0204
  105MOL   H15239880   4.658   4.602   5.375 -0.6859 -2.3030  0.7459
  105MOL   H15339881   4.808   4.534   5.315  0.1670  1.4791 -0.1279
  105MOL   C15439882   4.780   3.887   5.333  0.3919  0.5088 -0.1338
  105MOL   C15539883   4.916   3.909   5.269 -0.1432  0.0262  1.0148
  105MOL   C15639884   4.928   3.861   5.119  0.2817  0.2918 -0.7107
  105MOL   C15739885   5.079   3.870   5.059  0.1932 -0.9704 -1.2871
  105MOL   C15839886   5.085   3.871   4.911 -0.3406 -0.0603 -0.0034
  105MOL   C15939887   5.222   3.910   4.867  0.3664 -0.6305  0.4550
  105MOL   O16039888   4.960   4.044   5.258 -0.1642  0.4618  0.0085
  105MOL   H16139889   4.739   3.792   5.300 -1.7763  1.9671 -1.7999
  105MOL   H16239890   4.787   3.879   5.441  0.2410  1.0136 -0.0848
  105MOL   H16339891   4.987   3.852   5.329  1.0777 -1.4246 -1.6900
  105MOL   H16439892   4.874   3.935   5.060 -0.3284 -1.2359 -2.1163
  105MOL   H16539893   4.876   3.767   5.103 -2.8165  1.9027 -0.4481
  105MOL   H16639894   5.132   3.788   5.108 -3.0330 -1.0501  2.3083
  105MOL   H16739895   5.132   3.957   5.098 -0.4955 -0.5201 -1.3352
  105MOL   H16839896   5.047   3.776   4.875  0.1385  0.4344 -1.8800
  105MOL   H16939897   5.016   3.947   4.874 -1.6231 -1.1278  0.1638
  105MOL   H17039898   5.225   3.907   4.758  0.5750  0.0226  0.4406
  105MOL   H17139899   5.287   3.822   4.873  1.1344 -0.2319 -1.7703
  105MOL   H17239900   5.277   3.999   4.899  1.4617 -0.9522 -0.5112
  105MOL   C17339901   4.999   4.100   5.386 -0.0552 -0.2249 -0.2058
  105MOL   C17439902   5.100   4.214   5.372 -0.0780  0.6930 -0.2889
  105MOL   C17539903   5.069   4.336   5.458  0.7962 -0.2087 -0.2070
  105MOL   C17639904   5.138   4.470   5.425 -0.3330 -0.5745 -0.6403
  105MOL   C17739905   5.101   4.586   5.518  0.1280  0.8488 -0.5430
  105MOL   C17839906   5.154   4.731   5.487  0.7780  0.2457 -0.0575
  105MOL   O17939907   5.227   4.173   5.422  0.2609  0.1236 -0.6335
  105MOL   H18039908   5.040   4.027   5.456  0.8727 -0.0932 -0.6035
  105MOL   H18139909   4.904   4.129   5.431  0.7829  1.5722  0.4028
  105MOL   H18239910   5.113   4.248   5.269 -0.8667 -0.0729 -0.6514
  105MOL   H18339911   4.961   4.344   5.447  0.9322  0.6200 -1.0130
  105MOL   H18439912   5.101   4.317   5.561  1.0060  1.3881  0.0240
  105MOL   H18539913   5.245   4.458   5.442 -0.8043 -1.8692  1.4877
  105MOL   H18639914   5.125   4.502   5.321  0.7031  0.5878 -0.4283
  105MOL   H18739915   4.993   4.593   5.528  0.2901 -0.3118  2.9178
  105MOL   H18839916   5.134   4.572   5.621  1.4429  2.1782 -0.7518
  105MOL   H18939917   5.099   4.810   5.537  1.3854  1.5083 -1.3712
  105MOL   H19039918   5.155   4.753   5.380  1.9471 -0.3704 -0.1851
  105MOL   H19139919   5.257   4.747   5.516  0.9650 -0.6204 -0.2013
  105MOL   C19239920   5.292   4.094   5.333 -0.6959 -0.2116 -0.0325
  105MOL   C19339921   5.398   4.019   5.416 -0.2278  0.2031  0.0811
  105MOL   C19439922   5.521   4.105   5.455  0.1773 -0.3409  0.2214
  105MOL   C19539923   5.629   4.032   5.525  0.4801  0.0479 -0.0356
  105MOL   C19639924   5.739   4.121   5.583 -0.0774  0.3580  0.3655
  105MOL   C19739925   5.813   4.031   5.686 -0.3605  0.6733  0.1877
  105MOL   O19839926   5.454   3.911   5.338 -0.0288  0.0988  0.0063
  105MOL   H19939927   5.229   4.025   5.277 -0.0703  0.0673 -1.0929
  105MOL   H20039928   5.337   4.151   5.252 -0.2044  0.4333  0.6872
  105MOL   H20139929   5.347   3.989   5.508  0.6815 -2.6868 -0.2964
  105MOL   H20239930   5.559   4.148   5.362 -2.5523  0.8787 -0.3629
  105MOL   H20339931   5.492   4.194   5.509 -0.0146 -0.0612 -0.3333
  105MOL   H20439932   5.670   3.966   5.448  0.8631  0.1138  0.1076
  105MOL   H20539933   5.590   3.967   5.603 -0.0609  0.8031  0.3291
  105MOL   H20639934   5.800   4.158   5.501 -2.2813  2.0824 -0.5627
  105MOL   H20739935   5.701   4.210   5.632  1.9770  1.4060  0.0934
  105MOL   H20839936   5.842   3.948   5.622  0.1946  0.7822  0.2997
  105MOL   H20939937   5.901   4.078   5.729 -0.4638 -1.2978  2.6533
  105MOL   H21039938   5.751   3.996   5.769  1.0214 -1.0133  0.5422
  105MOL   C21139939   5.378   3.801   5.316 -0.8234  0.8472 -0.9082
  105MOL   C21239940   5.467   3.689   5.255 -0.3995 -0.7681  0.0102
  105MOL   C21339941   5.583   3.653   5.348 -0.0811 -0.3110 -0.3859
  105MOL   C21439942   5.660   3.533   5.303  0.0895 -0.3870  0.1585
  105MOL   C21539943   5.716   3.449   5.421  0.1401 -0.0857 -0.0675
  105MOL   C21639944   5.785   3.324   5.371 -0.1574 -0.1655 -1.1140
  105MOL   O21739945   5.518   3.729   5.124  0.0883  0.4539 -0.0625
  105MOL   H21839946   5.290   3.825   5.256 -0.1665  0.8025 -1.9011
  105MOL   H21939947   5.348   3.760   5.412  2.7507  0.4076  0.0815
  105MOL   H22039948   5.398   3.605   5.243 -0.5695 -0.6925  0.4684
  105MOL   H22139949   5.653   3.736   5.342  0.7428 -0.9711 -0.0083
  105MOL   H22239950   5.541   3.653   5.449 -1.2440  1.1284 -0.8593
  105MOL   H22339951   5.592   3.466   5.252  1.6443 -1.4972 -0.4803
  105MOL   H22439952   5.737   3.562   5.231 -0.2064  0.0872  0.0328
  105MOL   H22539953   5.791   3.503   5.478 -0.4040  1.6560 -0.9486
  105MOL   H22639954   5.639   3.432   5.496  0.1304 -1.9684 -0.4924
  105MOL   H22739955   5.863   3.354   5.301  0.7055  0.0103 -0.0884
  105MOL   H22839956   5.714   3.260   5.319 -0.5470  0.3531 -1.2235
  105MOL   H22939957   5.841   3.269   5.446  2.2363 -0.1606 -2.8498
  105MOL   C23039958   5.490   3.634   5.022 -0.5178  0.4306 -0.3658
  105MOL   C23139959   5.585   3.651   4.905  0.2467 -0.1504 -0.7482
  105MOL   C23239960   5.530   3.588   4.769 -0.1004  0.1657 -0.2910
  105MOL   C23339961   5.560   3.657   4.637 -0.3956 -0.0162 -0.0188
  105MOL   C23439962   5.589   3.562   4.522 -0.2316 -0.4855 -0.0303
  105MOL   C23539963   5.623   3.644   4.403  0.6626  0.3657  0.7389
  105MOL   O23639964   5.707   3.592   4.940  0.1194 -0.7219  0.3103
  105MOL   H23739965   5.482   3.532   5.059 -2.8463  1.4527  2.0597
  105MOL   H23839966   5.390   3.660   4.988 -2.1061 -3.3716  1.0472
  105MOL   H23939967   5.593   3.759   4.899  1.5000 -0.0895  1.4491
  105MOL   H24039968   5.421   3.587   4.779  0.0216 -1.6749  1.2295
  105MOL   H24139969   5.571   3.487   4.766  1.4194  0.8169 -1.8213
  105MOL   H24239970   5.643   3.724   4.659 -0.9527  0.5297  0.4396
  105MOL   H24339971   5.484   3.732   4.611  2.9780  3.7330  0.4954
  105MOL   H24439972   5.675   3.498   4.539  1.0987  1.0985 -0.6503
  105MOL   H24539973   5.505   3.495   4.502  0.8227 -1.3526 -1.6431
  105MOL   H24639974   5.564   3.734   4.385 -3.6681 -1.9475  2.5755
  105MOL   H24739975   5.623   3.587   4.310  0.3421  0.2333  0.8190
  105MOL   H24839976   5.729   3.667   4.402  1.1909 -1.9414  1.1471
  105MOL   C24939977   5.814   3.623   4.850  0.7938 -0.8302 -0.1590
  105MOL   C25039978   5.939   3.544   4.895 -0.2399  0.6731  0.0367
  105MOL   C25139979   6.062   3.551   4.803 -0.0267  0.5144  0.1019
  105MOL   C25239980   6.137   3.683   4.798  0.6851 -0.0587 -0.3306
  105MOL   C25339981   6.213   3.725   4.926  0.0261  0.0283 -0.7158
  105MOL   C25439982   6.271   3.867   4.918 -0.3447 -0.1240  0.1718
  105MOL   O25539983   5.908   3.406   4.896  0.1706  0.1847  0.3330
  105MOL   H25639984   5.797   3.585   4.749  5.4269 -0.9544 -1.0071
  105MOL   H25739985   5.827   3.731   4.849  0.3708 -0.7779 -1.1365
  105MOL   H25839986   5.980   3.573   4.992  1.1654  0.2857 -0.4271
  105MOL   H25939987   6.134   3.477   4.838  0.5503  1.2655  0.5389
  105MOL   H26039988   6.028   3.509   4.709 -0.9194 -0.3443  0.7991
  105MOL   H26139989   6.207   3.684   4.715  0.7159 -0.2086 -0.3058
  105MOL   H26239990   6.060   3.759   4.784  1.3245  1.1835  2.4457
  105MOL   H26339991   6.148   3.734   5.013  0.4149  2.2503 -0.6223
  105MOL   H26439992   6.283   3.643   4.942 -0.1652  0.1135  0.6583
  105MOL   H26539993   6.331   3.891   5.005 -0.5578 -1.5307  0.7287
  105MOL   H26639994   6.192   3.941   4.910  0.5397  0.9803  1.5556
  105MOL   H26739995   6.342   3.862   4.835 -0.1658  0.3982  0.2966
  105MOL   C26839996   5.908   3.352   5.032 -0.4320 -0.0287  0.1940
  105MOL   C26939997   5.905   3.199   5.032 -0.1862 -0.3596  0.0933
  105MOL   C27039998   6.000   3.136   4.926  0.1191 -0.8759 -0.3819
  105MOL   C27139999   6.027   2.979   4.940  0.3682 -0.5882 -0.3102
  105MOL   C27240000   6.092   2.920   4.815 -0.0885 -0.5042 -0.1840
  105MOL   C27340001   6.136   2.773   4.829 -0.1090 -0.0669 -0.8908
  105MOL   O27440002   5.775   3.140   5.033  0.2580 -0.3385  0.1797
  105MOL   H27540003   5.816   3.387   5.079 -0.3276 -0.9400  1.1091
  105MOL   H27640004   5.996   3.380   5.091 -0.7035  0.9508  0.1386
  105MOL   H27740005   5.945   3.171   5.129  3.1298  0.2454 -1.0398
  105MOL   H27840006   5.966   3.160   4.825 -1.1964 -1.6399 -0.1268
  105MOL   H27940007   6.098   3.183   4.938  0.3908 -0.9258 -2.1762
  105MOL   H28040008   6.091   2.958   5.026  0.4800  1.1853  0.0475
  105MOL   H28140009   5.933   2.924   4.947  0.0993  0.0205  0.8928
  105MOL   H28240010   6.024   2.943   4.734  1.0140 -0.6396 -1.1563
  105MOL   H28340011   6.187   2.970   4.794  0.0921 -0.4140  0.8152
  105MOL   H28440012   6.205   2.756   4.911  2.0857  3.1768 -1.9646
  105MOL   H28540013   6.044   2.716   4.838 -0.5905  1.0646  1.6262
  105MOL   H28640014   6.201   2.736   4.750  1.5431 -1.5776  1.1386
  105MOL   C28740015   5.691   3.187   4.928  0.4481 -0.2825  0.4826
  105MOL   C28840016   5.585   3.084   4.898 -0.7532  0.1018 -1.0115
  105MOL   C28940017   5.663   2.969   4.847 -0.1115 -0.1111 -1.1543
  105MOL   C29040018   5.581   2.853   4.788 -0.1825 -0.3356  0.0927
  105MOL   C29140019   5.669   2.732   4.742 -0.3959  0.4551  0.2550
  105MOL   C29240020   5.580   2.629   4.674 -0.2708  0.1726  0.3711
  105MOL   O29340021   5.496   3.136   4.799 -0.3212 -0.4282  0.1261
  105MOL   H29440022   5.749   3.204   4.837 -0.4810  0.7316  0.0651
  105MOL   H29540023   5.647   3.281   4.961  0.5389  0.4610 -1.4448
  105MOL   H29640024   5.537   3.052   4.991 -1.3338  4.0013  0.1539
  105MOL   H29740025   5.735   3.005   4.774  0.4256 -0.3495 -0.7531
  105MOL   H29840026   5.718   2.932   4.934 -0.9755  0.0096 -0.5492
  105MOL   H29940027   5.510   2.835   4.868 -0.6809 -1.2032 -0.5406
  105MOL   H30040028   5.537   2.893   4.696 -0.0370  0.2272  0.2658
  105MOL   H30140029   5.724   2.687   4.824  0.1021  0.2870 -0.1662
  105MOL   H30240030   5.745   2.763   4.670 -2.3414 -0.5106 -2.3051
  105MOL   H30340031   5.628   2.542   4.629  0.1724  1.3938 -1.5770
  105MOL   H30440032   5.497   2.608   4.742 -0.7169 -1.4864 -0.6651
  105MOL   H30540033   5.555   2.681   4.582 -0.6915  2.0495  1.5111
  105MOL   C30640034   5.376   3.178   4.851 -0.0548  0.0988 -0.2476
  105MOL   C30740035   5.284   3.229   4.733  0.1574 -0.5798  0.2523
  105MOL   C30840036   5.169   3.319   4.788  0.0262 -0.0784  0.2919
  105MOL   C30940037   5.115   3.420   4.688 -0.5450  0.1579  0.0997
  105MOL   C31040038   5.012   3.514   4.753 -0.5348 -0.5744  0.6382
  105MOL   C31140039   4.967   3.623   4.657 -0.0523 -0.5828  0.5947
  105MOL   O31240040   5.202   3.123   4.682 -0.0358  0.1941 -0.0682
  105MOL   H31340041   5.314   3.103   4.899  2.1145 -1.2972  0.4445
  105MOL   H31440042   5.399   3.253   4.927  3.4990  0.3600 -1.4680
  105MOL   H31540043   5.345   3.280   4.659  1.0566 -1.0003  0.6948
  105MOL   H31640044   5.217   3.376   4.868  1.1193 -2.8140  1.6764
  105MOL   H31740045   5.092   3.261   4.838  1.1831 -1.0807  0.9550
  105MOL   H31840046   5.196   3.483   4.651 -1.1503  0.2796 -1.0686
  105MOL   H31940047   5.069   3.364   4.606  0.7421 -0.0853 -0.4593
  105MOL   H32040048   5.033   3.554   4.851  0.5719  3.1464 -1.0428
  105MOL   H32140049   4.918   3.460   4.765 -2.5502  2.4938 -0.7459
  105MOL   H32240050   5.043   3.696   4.629 -0.7409  0.6694  1.9352
  105MOL   H32340051   4.953   3.584   4.556  1.1954  0.1086  0.1480
  105MOL   H32440052   4.878   3.674   4.695 -0.6072 -1.7133  0.8467
  105MOL   C32540053   5.282   3.017   4.632  0.9837  0.6853 -0.8463
  105MOL   C32640054   5.181   2.920   4.570  0.3256  0.8907 -0.4043
  105MOL   C32740055   5.246   2.775   4.569  0.0620  0.1946 -0.0539
  105MOL   C32840056   5.155   2.682   4.488 -0.2788  0.0931 -0.2141
  105MOL   C32940057   5.191   2.535   4.527 -0.4922 -0.2193 -0.4767
  105MOL   C33040058   5.112   2.434   4.442  0.0134 -0.1190 -0.3121
  105MOL   O33140059   5.161   2.953   4.429 -0.5360  0.2882 -0.5746
  105MOL   H33240060   5.330   2.972   4.719  2.5423  0.5803 -1.7498
  105MOL   H33340061   5.365   3.055   4.574 -0.7704  1.3226 -3.0036
  105MOL   H33440062   5.089   2.912   4.627 -0.0314  1.3681 -0.9044
  105MOL   H33540063   5.340   2.790   4.516 -0.2504 -0.3178 -0.7669
  105MOL   H33640064   5.259   2.739   4.671  1.1395  0.1635 -0.2011
  105MOL   H33740065   5.051   2.698   4.517 -0.6895 -0.3792 -1.3896
  105MOL   H33840066   5.163   2.697   4.381  0.3181  1.5743  0.0335
  105MOL   H33940067   5.296   2.518   4.503  0.1723  3.1545 -0.1896
  105MOL   H34040068   5.196   2.511   4.633  1.0960  1.1816 -0.2170
  105MOL   H34140069   5.006   2.432   4.470  0.2532  0.9543  0.7363
  105MOL   H34240070   5.109   2.465   4.338  1.4661  2.4928  0.3771
  105MOL   H34340071   5.157   2.335   4.432 -0.8092 -0.4959 -0.3840
  105MOL   C34440072   5.039   3.018   4.400 -0.2607  0.3802 -0.3807
  105MOL   C34540073   5.021   3.074   4.253  1.0369 -0.2674  0.9278
  105MOL   C34640074   5.132   3.178   4.217 -0.7999 -0.1141  0.3760
  105MOL   C34740075   5.132   3.305   4.300  0.5378 -0.3270  0.1000
  105MOL   C34840076   5.227   3.420   4.240  0.2773 -0.2536  0.1025
  105MOL   C34940077   5.200   3.555   4.312 -0.4550  0.1696 -0.4603
  105MOL   O35040078   5.028   2.969   4.151 -0.1374  0.1581 -0.6509
  105MOL   H35140079   5.016   3.100   4.468  3.6910  0.4171  1.0579
  105MOL   H35240080   4.958   2.947   4.416  1.1244 -1.4971 -1.5196
  105MOL   H35340081   4.925   3.126   4.251  0.7910 -0.7522 -0.4001
  105MOL   H35440082   5.132   3.199   4.110  0.6250 -1.6180  0.0451
  105MOL   H35540083   5.224   3.126   4.242 -1.0763  0.9006  3.6835
  105MOL   H35640084   5.169   3.281   4.400  0.3769 -0.3733  0.1481
  105MOL   H35740085   5.034   3.348   4.318  1.3219  2.4265 -1.8159
  105MOL   H35840086   5.203   3.440   4.135 -0.5909 -3.0997 -0.2717
  105MOL   H35940087   5.334   3.398   4.242  0.1270 -1.6629 -3.5453
  105MOL   H36040088   5.102   3.600   4.294 -1.3246 -1.3028  0.4918
  105MOL   H36140089   5.266   3.633   4.273  0.8878  0.3953  2.1288
  105MOL   H36240090   5.223   3.560   4.419 -0.1441  2.8774 -0.6130
  105MOL   C36340091   4.925   2.879   4.148  0.4830 -0.6027  0.1140
  105MOL   C36440092   4.891   2.858   3.998 -0.1265 -0.9766  0.5966
  105MOL   C36540093   4.845   2.993   3.948  0.1395 -0.2323 -0.5585
  105MOL   C36640094   4.712   3.042   4.009  0.0545  0.7777 -0.2675
  105MOL   C36740095   4.595   2.946   4.012 -0.7538  0.1342 -0.0533
  105MOL   C36840096   4.478   2.993   4.101 -0.4831  0.1695 -0.1539
  105MOL   O36940097   5.010   2.819   3.941  0.1399 -1.0546  0.0484
  105MOL   H37040098   4.831   2.900   4.199  0.0864 -2.3273  0.1210
  105MOL   H37140099   4.962   2.786   4.192  0.1582 -0.1881  1.2872
  105MOL   H37240100   4.816   2.783   3.977 -1.6989  0.7243 -0.0087
  105MOL   H37340101   4.920   3.070   3.960  0.2285 -0.3426 -0.4075
  105MOL   H37440102   4.839   2.979   3.840 -2.2759 -1.6382 -0.3014
  105MOL   H37540103   4.739   3.087   4.104  0.4164  1.3517 -0.6416
  105MOL   H37640104   4.686   3.132   3.952 -0.4592  0.7726 -0.0474
  105MOL   H37740105   4.566   2.927   3.909  1.4958 -2.7174 -0.2109
  105MOL   H37840106   4.623   2.849   4.052 -4.5151 -1.0236 -0.0126
  105MOL   H37940107   4.509   3.003   4.205 -2.0528 -0.5183  0.3889
  105MOL   H38040108   4.440   3.087   4.061  0.7147 -0.1489 -2.1220
  105MOL   H38140109   4.392   2.926   4.093  0.0819 -0.3368 -2.5841
  105MOL   H38240110   5.079   2.873   3.977 -1.3496  0.5944  0.4922
  106MOL     C140111   3.001   5.093   1.792  0.1587  0.0974  0.0903
  106MOL     C240112   2.879   5.005   1.759 -0.4461  0.3506 -0.4453
  106MOL     C340113   2.751   5.070   1.696  1.1787  0.8513 -0.1551
  106MOL     C440114   2.786   5.145   1.562 -0.1983  0.2174  0.5552
  106MOL     C540115   2.656   5.206   1.503  0.8182 -0.3905 -0.0168
  106MOL     C640116   2.671   5.251   1.358 -0.1229  0.3649  0.3824
  106MOL     O740117   2.928   4.899   1.678  0.3336 -0.8932 -0.4657
  106MOL     H840118   3.058   5.109   1.701  0.8184 -0.7517  0.3509
  106MOL     H940119   3.066   5.039   1.861 -1.3919 -2.5532 -0.4853
  106MOL    H1040120   2.867   4.967   1.860 -0.6426  1.8530  0.1105
  106MOL    H1140121   2.684   4.985   1.682 -0.0185  1.4417  1.6812
  106MOL    H1240122   2.695   5.137   1.762  0.1135 -3.3702  3.5056
  106MOL    H1340123   2.852   5.229   1.584 -1.6650  1.6263 -0.2709
  106MOL    H1440124   2.832   5.073   1.495  2.0549  2.3473 -0.2699
  106MOL    H1540125   2.572   5.137   1.509  1.9130 -1.5949  1.9987
  106MOL    H1640126   2.628   5.298   1.557  1.5516  0.9284 -1.8478
  106MOL    H1740127   2.708   5.174   1.290  1.6785  1.7919 -0.2902
  106MOL    H1840128   2.571   5.279   1.326 -0.0960  1.2572  1.0665
  106MOL    H1940129   2.744   5.331   1.355 -1.1826  1.3047 -0.6856
  106MOL    H2040130   2.984   5.193   1.833 -0.2217 -0.1483  0.5303
  106MOL    C2140131   2.868   4.769   1.698  0.6363 -0.1568 -0.4995
  106MOL    C2240132   2.950   4.670   1.618  0.0813  0.2436  0.2205
  106MOL    C2340133   2.911   4.525   1.646  0.0049 -0.4885  0.0248
  106MOL    C2440134   3.001   4.417   1.586 -0.4316  0.3450 -0.1199
  106MOL    C2540135   2.975   4.276   1.630  0.4067  0.9654 -0.1117
  106MOL    C2640136   3.029   4.177   1.529  0.1727  0.5082 -0.4604
  106MOL    O2740137   2.914   4.690   1.479 -0.4561  0.3548 -0.2685
  106MOL    H2840138   2.861   4.729   1.799 -1.8459 -0.8232 -0.8999
  106MOL    H2940139   2.762   4.769   1.673  0.0826  0.5181  1.7618
  106MOL    H3040140   3.054   4.696   1.641 -0.0737  1.7819 -0.7565
  106MOL    H3140141   2.807   4.504   1.624  0.0653 -1.1689  0.3923
  106MOL    H3240142   2.928   4.506   1.752 -0.3389 -0.0725  0.1560
  106MOL    H3340143   3.107   4.430   1.608  0.0706 -3.1762 -0.0677
  106MOL    H3440144   2.991   4.422   1.477 -2.3979  1.0022  0.0739
  106MOL    H3540145   3.010   4.263   1.732  0.2759  3.5970  0.2995
  106MOL    H3640146   2.867   4.262   1.620  0.5545 -0.1943 -0.1251
  106MOL    H3740147   2.986   4.077   1.538 -0.1057  0.8175  1.6839
  106MOL    H3840148   3.136   4.153   1.531  0.4732  1.5734 -2.3022
  106MOL    H3940149   3.000   4.206   1.428 -1.6430  1.0974  0.2209
  106MOL    C4040150   2.968   4.799   1.409 -0.1391  0.3937 -0.0208
  106MOL    C4140151   2.984   4.766   1.259  0.9955 -0.3139 -0.8533
  106MOL    C4240152   2.852   4.723   1.188  0.2692 -0.2882 -0.2329
  106MOL    C4340153   2.880   4.730   1.034 -0.1228 -0.0517  0.3491
  106MOL    C4440154   2.745   4.737   0.966 -0.0565  0.0028  0.2767
  106MOL    C4540155   2.735   4.728   0.816  0.2304 -0.3049 -0.2524
  106MOL    O4640156   3.085   4.672   1.231 -0.0163 -0.8206  0.7811
  106MOL    H4740157   3.061   4.832   1.454  2.6065 -3.1347 -2.8132
  106MOL    H4840158   2.897   4.880   1.424 -0.3005  0.8886 -3.1048
  106MOL    H4940159   3.012   4.856   1.204  1.9800 -0.1179 -0.0475
  106MOL    H5040160   2.844   4.618   1.216 -0.0884 -0.1947  0.0075
  106MOL    H5140161   2.765   4.779   1.221 -0.5410 -1.3981 -0.4507
  106MOL    H5240162   2.942   4.647   1.000  0.7084  0.3830  0.7960
  106MOL    H5340163   2.919   4.830   1.014  2.1412 -1.0815 -0.5624
  106MOL    H5440164   2.685   4.657   1.010  0.2931 -1.4073 -1.7006
  106MOL    H5540165   2.683   4.822   0.994  1.5492  0.8671  1.2239
  106MOL    H5640166   2.633   4.751   0.787  0.2305 -0.9575 -0.8040
  106MOL    H5740167   2.804   4.785   0.753 -1.9808  1.0267 -1.5063
  106MOL    H5840168   2.756   4.627   0.778  2.6888 -0.2678  0.8935
  106MOL    C5940169   3.215   4.736   1.229 -0.1895  0.0995  0.8000
  106MOL    C6040170   3.331   4.639   1.219  0.0696 -0.0485 -0.4934
  106MOL    C6140171   3.461   4.712   1.176  0.0543 -0.0614  0.6048
  106MOL    C6240172   3.455   4.793   1.039 -0.3499  0.3981  0.4246
  106MOL    C6340173   3.597   4.817   0.983  0.1160 -0.0134 -0.2779
  106MOL    C6440174   3.601   4.887   0.848 -0.0064  0.2984 -0.1963
  106MOL    O6540175   3.367   4.576   1.342  0.7627 -0.5820 -0.4966
  106MOL    H6640176   3.227   4.783   1.326  1.3948  3.6846 -1.0424
  106MOL    H6740177   3.213   4.818   1.157 -3.4680  2.0571  2.9774
  106MOL    H6840178   3.314   4.556   1.152  1.4007 -1.4503  0.8584
  106MOL    H6940179   3.533   4.631   1.177 -0.5271 -0.6053 -0.4119
  106MOL    H7040180   3.480   4.788   1.253 -0.3159 -0.6983  1.3292
  106MOL    H7140181   3.428   4.896   1.058 -2.0489  0.1815 -0.7690
  106MOL    H7240182   3.388   4.748   0.966  0.3908  0.7219 -0.4617
  106MOL    H7340183   3.639   4.717   0.979  2.2391  0.9057 -2.1223
  106MOL    H7440184   3.645   4.873   1.063  0.6185  0.0158 -0.5967
  106MOL    H7540185   3.578   4.819   0.766 -1.1627  0.9860 -0.4519
  106MOL    H7640186   3.540   4.977   0.842 -1.5383 -0.5790  1.7702
  106MOL    H7740187   3.706   4.914   0.833  0.4244 -2.4441 -2.6771
  106MOL    C7840188   3.292   4.452   1.380  0.0141 -0.1923  1.2972
  106MOL    C7940189   3.339   4.322   1.308 -0.3208 -0.2445  0.6587
  106MOL    C8040190   3.487   4.287   1.330 -1.3660  0.3967 -0.0772
  106MOL    C8140191   3.527   4.137   1.331 -0.6208 -0.1628  0.0367
  106MOL    C8240192   3.671   4.100   1.315  0.1434 -0.7448 -0.1128
  106MOL    C8340193   3.702   3.955   1.345  0.0334  0.0255  0.5823
  106MOL    O8440194   3.315   4.315   1.167 -0.1378  0.4993 -1.0814
  106MOL    H8540195   3.185   4.466   1.372  0.3152  0.6946 -1.7987
  106MOL    H8640196   3.307   4.429   1.486 -1.2908 -1.4848  1.2037
  106MOL    H8740197   3.277   4.247   1.356 -0.5501 -1.1313 -0.9680
  106MOL    H8840198   3.553   4.343   1.263  1.3159 -2.5957 -0.0925
  106MOL    H8940199   3.510   4.355   1.412  0.3026  1.2281 -1.1977
  106MOL    H9040200   3.467   4.080   1.260  0.4213 -2.7814  1.1752
  106MOL    H9140201   3.501   4.109   1.433 -0.8741 -1.1636 -0.2968
  106MOL    H9240202   3.699   4.102   1.209  0.8350 -2.1699  0.0356
  106MOL    H9340203   3.730   4.171   1.372 -0.3965 -1.3226  1.1731
  106MOL    H9440204   3.644   3.888   1.281  0.6193  0.5549 -0.5163
  106MOL    H9540205   3.671   3.930   1.447  0.5336 -1.5766  0.3662
  106MOL    H9640206   3.809   3.937   1.334 -0.4664 -1.9555 -1.5607
  106MOL    C9740207   3.187   4.293   1.123 -0.0766 -0.3504 -0.5564
  106MOL    C9840208   3.206   4.250   0.981 -0.2642  0.2686  0.1162
  106MOL    C9940209   3.068   4.194   0.932  0.7126 -0.6148 -0.0179
  106MOL   C10040210   3.085   4.129   0.795 -0.0338  0.4240  0.0438
  106MOL   C10140211   2.960   4.050   0.744 -0.4153 -0.6023  0.3335
  106MOL   C10240212   2.947   3.913   0.805  0.1829 -0.4023 -0.1103
  106MOL   O10340213   3.273   4.356   0.910 -0.5830  0.8056  0.0947
  106MOL   H10440214   3.127   4.383   1.139 -0.3287 -0.7022  0.5410
  106MOL   H10540215   3.154   4.205   1.178  1.2242 -0.7418 -0.3865
  106MOL   H10640216   3.277   4.168   0.986 -0.9797 -0.2522  2.7634
  106MOL   H10740217   2.999   4.277   0.918  1.5745 -0.1488 -1.6550
  106MOL   H10840218   3.032   4.123   1.006  0.5425  0.0964  0.5833
  106MOL   H10940219   3.178   4.072   0.801 -0.3413  0.0302  1.1671
  106MOL   H11040220   3.108   4.208   0.723  0.0372  0.3830  0.0203
  106MOL   H11140221   2.970   4.050   0.636  0.2993  1.1820  0.3850
  106MOL   H11240222   2.870   4.102   0.778 -1.3277 -1.4137 -0.7901
  106MOL   H11340223   3.027   3.855   0.759  0.0344  1.0464 -2.2970
  106MOL   H11440224   2.965   3.920   0.912 -1.2380 -0.0071  0.1102
  106MOL   H11540225   2.847   3.871   0.793  0.9615 -2.0686 -0.8683
  106MOL   C11640226   3.184   4.470   0.880  0.4324 -1.0177 -0.2167
  106MOL   C11740227   3.257   4.586   0.809 -0.1644  0.0839  0.1142
  106MOL   C11840228   3.180   4.730   0.799  0.5023 -0.0797 -0.3053
  106MOL   C11940229   3.240   4.833   0.708  0.3112 -0.2220 -0.5254
  106MOL   C12040230   3.177   4.978   0.719  0.2800 -0.3664 -0.7426
  106MOL   C12140231   3.175   5.051   0.590 -0.2108 -0.1840  0.4487
  106MOL   O12240232   3.257   4.553   0.665 -0.2495 -0.3373 -0.0508
  106MOL   H12340233   3.089   4.443   0.833  0.4733  0.3766 -1.1091
  106MOL   H12440234   3.149   4.520   0.970  2.2869 -1.1940  0.6208
  106MOL   H12540235   3.360   4.599   0.842 -0.0816 -2.1027  0.7589
  106MOL   H12640236   3.076   4.710   0.775  0.2558  0.3978  0.3463
  106MOL   H12740237   3.177   4.768   0.901 -1.3948  1.1727 -0.8106
  106MOL   H12840238   3.236   4.805   0.603  0.9140 -1.0632 -0.3294
  106MOL   H12940239   3.346   4.845   0.731  0.0456  1.5490 -0.1281
  106MOL   H13040240   3.078   4.983   0.766  2.0310 -2.5321  3.3992
  106MOL   H13140241   3.242   5.035   0.786  1.4093 -1.4590 -0.9006
  106MOL   H13240242   3.126   5.002   0.506  0.5871  1.8282 -1.2499
  106MOL   H13340243   3.123   5.145   0.612  2.1245  1.1502  0.5126
  106MOL   H13440244   3.269   5.090   0.551 -0.8903  0.8569 -0.2109
  106MOL   C13540245   3.316   4.433   0.635  0.1591 -0.1289 -0.6585
  106MOL   C13640246   3.348   4.436   0.489  0.2363 -0.3669  0.7828
  106MOL   C13740247   3.350   4.298   0.427  0.0642  0.3165  0.0659
  106MOL   C13840248   3.339   4.301   0.269  0.5086 -0.2261  0.0298
  106MOL   C13940249   3.198   4.325   0.219 -0.4836 -0.5217  0.5281
  106MOL   C14040250   3.205   4.339   0.067 -0.8577  0.0164  0.0025
  106MOL   O14140251   3.485   4.481   0.463 -0.2356  0.1413 -0.0106
  106MOL   H14240252   3.407   4.414   0.692 -1.4847 -0.7074  1.8623
  106MOL   H14340253   3.249   4.349   0.655 -0.9010  0.3717 -2.0497
  106MOL   H14440254   3.270   4.497   0.444  0.7301  0.0892  0.5362
  106MOL   H14540255   3.441   4.250   0.462  0.7527  1.0997 -0.6430
  106MOL   H14640256   3.274   4.232   0.469  1.0051 -1.5423 -1.0861
  106MOL   H14740257   3.382   4.210   0.228 -2.5553 -1.9137  0.3694
  106MOL   H14840258   3.406   4.382   0.240  0.4610  0.0784  0.7523
  106MOL   H14940259   3.153   4.418   0.255 -2.2768 -0.8430 -0.7950
  106MOL   H15040260   3.136   4.242   0.253 -1.5871 -0.2359 -0.7000
  106MOL   H15140261   3.259   4.431   0.044  3.0574 -1.8823  1.0428
  106MOL   H15240262   3.244   4.245   0.029 -1.2265  0.7629 -2.2701
  106MOL   H15340263   3.112   4.360   0.015 -0.8610 -0.0770 -0.0309
  106MOL   C15440264   3.516   4.622   0.474 -0.3270  0.9577  0.4163
  106MOL   C15540265   3.634   4.674   0.391 -0.9064 -0.5551 -0.1070
  106MOL   C15640266   3.638   4.591   0.258  0.6034  0.2603  0.1793
  106MOL   C15740267   3.753   4.636   0.167  0.1843  0.1681 -0.0615
  106MOL   C15840268   3.756   4.577   0.030  0.0850 -0.0005 -0.1278
  106MOL   C15940269   3.896   4.595   7.757  0.7851 -0.4356  0.1318
  106MOL   O16040270   3.618   4.813   0.368 -0.4683 -0.2650  0.4953
  106MOL   H16140271   3.533   4.655   0.577  0.5029 -0.8716  0.8863
  106MOL   H16240272   3.427   4.674   0.438  0.2221  0.8638 -1.0969
  106MOL   H16340273   3.724   4.665   0.452  0.0470  2.3740 -1.0332
  106MOL   H16440274   3.542   4.603   0.208 -0.0518  0.9143  1.5720
  106MOL   H16540275   3.646   4.484   0.276  1.1831  0.4460  1.0868
  106MOL   H16640276   3.843   4.604   0.219 -0.7526 -2.6331 -0.0960
  106MOL   H16740277   3.757   4.743   0.147 -0.3507  0.4727  1.4269
  106MOL   H16840278   3.736   4.471   0.042 -0.0800 -0.0148 -0.5327
  106MOL   H16940279   3.676   4.626   7.760  1.4364  0.4700 -1.7016
  106MOL   H17040280   3.917   4.701   7.766 -2.1044  0.1469  0.4519
  106MOL   H17140281   3.878   4.589   7.650 -1.4346  4.1847  0.1417
  106MOL   H17240282   3.971   4.524   0.008  0.6818 -0.4031  0.4099
  106MOL   C17340283   3.624   4.890   0.486  0.5451 -0.5047  0.8238
  106MOL   C17440284   3.697   5.022   0.455 -0.2365  0.4181 -0.4048
  106MOL   C17540285   3.663   5.132   0.558 -0.2087  0.0916 -0.1683
  106MOL   C17640286   3.741   5.266   0.526  0.2144 -0.0055  0.2866
  106MOL   C17740287   3.877   5.278   0.606 -0.6636 -0.0152  0.5584
  106MOL   C17840288   3.960   5.402   0.577 -0.2443 -0.0382 -0.7862
  106MOL   O17940289   3.834   4.994   0.483 -0.2445 -0.1687  0.1908
  106MOL   H18040290   3.678   4.841   0.566  1.3392 -0.5393  0.2731
  106MOL   H18140291   3.525   4.910   0.526  1.0005 -0.1810  1.8141
  106MOL   H18240292   3.689   5.058   0.352  0.6414 -0.6185 -0.8411
  106MOL   H18340293   3.556   5.149   0.555  0.1090  2.3000  0.5928
  106MOL   H18440294   3.690   5.096   0.657  1.3490  0.2302 -0.5255
  106MOL   H18540295   3.758   5.276   0.419 -0.9485  0.2690  0.1167
  106MOL   H18640296   3.674   5.347   0.557  0.6927 -0.6600  3.1721
  106MOL   H18740297   3.840   5.277   0.709 -0.8061  1.7857  0.5278
  106MOL   H18840298   3.935   5.187   0.589 -1.8770 -1.2047  2.5383
  106MOL   H18940299   3.895   5.490   0.581 -0.6228 -0.3675  0.5174
  106MOL   H19040300   4.004   5.393   0.478 -0.1457 -1.0320 -0.6515
  106MOL   H19140301   4.032   5.411   0.658 -0.1797 -0.1606 -0.8304
  106MOL   C19240302   3.922   4.978   0.373 -1.2467 -0.2470 -0.6566
  106MOL   C19340303   4.066   4.955   0.428  0.0047 -0.2474  0.2071
  106MOL   C19440304   4.078   4.853   0.544 -0.2994  0.4979 -0.3261
  106MOL   C19540305   4.062   4.708   0.503  0.4461  0.8051  0.3616
  106MOL   C19640306   4.032   4.609   0.620  0.0016 -0.4452 -0.0592
  106MOL   C19740307   4.162   4.560   0.680  0.1496  0.5682 -0.2999
  106MOL   O19840308   4.123   5.079   0.454 -0.0463  0.8118 -0.6764
  106MOL   H19940309   3.884   4.901   0.306 -1.6998 -1.2200  0.7132
  106MOL   H20040310   3.909   5.066   0.310 -0.0875  0.4290  0.0346
  106MOL   H20140311   4.122   4.915   0.343  0.3783 -0.3242  0.4855
  106MOL   H20240312   4.177   4.862   0.586 -0.4434 -0.4690  0.2354
  106MOL   H20340313   4.006   4.892   0.616  0.5680  0.8240  0.3658
  106MOL   H20440314   4.151   4.687   0.445  0.2060 -3.1077  1.2692
  106MOL   H20540315   3.972   4.707   0.442 -0.0143 -0.9957  1.0320
  106MOL   H20640316   3.971   4.662   0.693 -0.0527  0.9174 -1.0655
  106MOL   H20740317   3.967   4.527   0.591 -1.7821  1.3536 -1.2195
  106MOL   H20840318   4.221   4.498   0.612  1.1989 -0.7665  1.7645
  106MOL   H20940319   4.227   4.640   0.714 -0.1014  0.6050  0.0812
  106MOL   H21040320   4.138   4.505   0.771  1.0686  1.2328  0.3562
  106MOL   C21140321   4.260   5.101   0.475  0.3855 -0.3395  0.2547
  106MOL   C21240322   4.287   5.212   0.579  0.4286  0.1652  0.2491
  106MOL   C21340323   4.405   5.309   0.532 -0.2825  0.4227 -0.3632
  106MOL   C21440324   4.383   5.414   0.412  0.5812  0.1546 -0.5236
  106MOL   C21540325   4.500   5.476   0.357 -0.4020 -0.0639  0.2564
  106MOL   C21640326   4.480   5.611   0.291  0.1942  0.4765  0.0494
  106MOL   O21740327   4.325   5.149   0.700  0.5117  0.3239  0.4763
  106MOL   H21840328   4.305   5.126   0.379  2.5614  1.8350  1.7742
  106MOL   H21940329   4.309   5.005   0.490  0.1716 -0.1452  2.3430
  106MOL   H22040330   4.206   5.280   0.604 -1.9705 -2.7023  0.6302
  106MOL   H22140331   4.451   5.349   0.622 -1.0029 -0.1915  0.2922
  106MOL   H22240332   4.485   5.241   0.502 -1.2062 -1.2316  0.7994
  106MOL   H22340333   4.331   5.362   0.332  0.9093 -0.7534 -0.1517
  106MOL   H22440334   4.304   5.488   0.423 -1.5244 -1.8677 -1.5190
  106MOL   H22540335   4.576   5.495   0.433  0.2038 -1.4090 -0.0092
  106MOL   H22640336   4.550   5.412   0.285  0.9212  2.5502 -1.2472
  106MOL   H22740337   4.562   5.643   0.228  1.0526 -1.1195  0.3307
  106MOL   H22840338   4.455   5.694   0.357 -0.4122  3.1692 -3.4596
  106MOL   H22940339   4.396   5.594   0.224  2.0553  0.5630 -2.3627
  106MOL   C23040340   4.221   5.112   0.795 -0.0398  0.1530 -0.4095
  106MOL   C23140341   4.275   5.016   0.905  0.3610 -0.7529  0.7486
  106MOL   C23240342   4.363   4.903   0.858  0.0456  0.0844  0.0053
  106MOL   C23340343   4.437   4.831   0.964 -0.0963  0.1708 -0.0611
  106MOL   C23440344   4.496   4.703   0.924  0.6290 -0.5997 -0.0649
  106MOL   C23540345   4.551   4.628   1.039 -0.5333 -0.7421 -0.4798
  106MOL   O23640346   4.160   4.953   0.962  0.4161  0.3830 -0.6835
  106MOL   H23740347   4.186   5.202   0.846  1.4227 -0.2439  1.3540
  106MOL   H23840348   4.138   5.066   0.741 -1.0651  0.9857  0.4385
  106MOL   H23940349   4.321   5.078   0.982  0.1177 -0.1826  0.4405
  106MOL   H24040350   4.427   4.942   0.779 -2.8225  0.6973 -2.0944
  106MOL   H24140351   4.309   4.824   0.806  0.4709  1.8230 -3.2186
  106MOL   H24240352   4.360   4.796   1.032  0.6031  0.1851  0.7486
  106MOL   H24340353   4.500   4.897   1.023 -0.0219 -0.9602  1.1648
  106MOL   H24440354   4.433   4.631   0.871 -1.3906  0.3777  0.9825
  106MOL   H24540355   4.571   4.714   0.846  0.2064 -0.4403 -0.4501
  106MOL   H24640356   4.480   4.621   1.122 -0.8927  0.2755 -0.7024
  106MOL   H24740357   4.634   4.692   1.067 -0.3150  0.0312 -2.8254
  106MOL   H24840358   4.592   4.530   1.012 -0.7350 -1.2163  0.8926
  106MOL   C24940359   4.095   5.015   1.071 -0.2671  0.5282  0.1995
  106MOL   C25040360   3.969   4.936   1.125 -0.2148 -0.7756 -0.7207
  106MOL   C25140361   3.889   5.028   1.221 -0.6954  0.1668  0.6060
  106MOL   C25240362   3.961   5.083   1.345  0.5427 -0.5659  0.7972
  106MOL   C25340363   3.869   5.170   1.430  0.0112  0.3042 -0.2440
  106MOL   C25440364   3.935   5.218   1.557  0.5372 -0.3560  0.0782
  106MOL   O25540365   4.006   4.817   1.200 -0.3771 -1.0559 -0.1302
  106MOL   H25640366   4.163   5.037   1.154 -0.8552 -0.3402  0.9193
  106MOL   H25740367   4.058   5.115   1.045  0.0448  0.1629 -1.7233
  106MOL   H25840368   3.898   4.916   1.046 -2.2586 -0.9967  1.1374
  106MOL   H25940369   3.840   5.104   1.159  1.6176 -0.0361 -1.5582
  106MOL   H26040370   3.802   4.975   1.258  0.1337  0.1218  2.5524
  106MOL   H26140371   4.003   4.995   1.396  0.7412 -1.0047 -0.1253
  106MOL   H26240372   4.044   5.146   1.314 -1.0781  0.9688 -0.4793
  106MOL   H26340373   3.841   5.255   1.367 -3.4126 -0.0012  0.7706
  106MOL   H26440374   3.779   5.110   1.437 -0.0157  0.2157 -1.2584
  106MOL   H26540375   3.876   5.284   1.622  2.5218  3.0180 -1.4410
  106MOL   H26640376   4.036   5.257   1.551  0.1625  0.3905 -1.5902
  106MOL   H26740377   3.949   5.127   1.614 -1.8433 -0.7476  0.1117
  106MOL   C26840378   4.003   4.696   1.122 -0.1720  0.6523 -0.6279
  106MOL   C26940379   4.035   4.568   1.202  0.0108  1.1593  0.8410
  106MOL   C27040380   4.187   4.551   1.230 -0.1294  0.1485  0.0628
  106MOL   C27140381   4.232   4.448   1.332  0.4497 -0.0348 -0.4911
  106MOL   C27240382   4.381   4.406   1.334 -0.2745  0.0518  0.4375
  106MOL   C27340383   4.457   4.503   1.433 -0.4197 -0.0553 -1.2283
  106MOL   O27440384   3.993   4.449   1.135  0.5356 -0.2409 -0.2982
  106MOL   H27540385   4.061   4.693   1.030  2.2085  2.5566  0.7465
  106MOL   H27640386   3.898   4.701   1.092 -0.0872 -2.0529 -1.5157
  106MOL   H27740387   3.988   4.572   1.300 -1.6407 -0.9137  0.1705
  106MOL   H27840388   4.245   4.539   1.139 -0.7101 -1.5334 -0.1039
  106MOL   H27940389   4.215   4.647   1.272  0.3278 -0.5681  1.4513
  106MOL   H28040390   4.202   4.481   1.431  1.4887 -0.9646  0.1498
  106MOL   H28140391   4.179   4.356   1.310 -0.4685  0.3613  0.0525
  106MOL   H28240392   4.396   4.307   1.377 -1.6076 -0.5614 -0.4644
  106MOL   H28340393   4.438   4.413   1.242 -2.4432 -0.3070 -0.9641
  106MOL   H28440394   4.563   4.481   1.448 -0.6377 -0.5058 -0.2974
  106MOL   H28540395   4.455   4.603   1.390 -2.3246  0.5000  0.1033
  106MOL   H28640396   4.407   4.511   1.530 -0.8403 -0.5462 -1.4034
  106MOL   C28740397   3.860   4.412   1.132 -0.9529 -0.2909 -0.1743
  106MOL   C28840398   3.852   4.303   1.017 -0.2364  0.4467  0.0435
  106MOL   C28940399   3.710   4.284   0.965  0.3370  0.0600 -0.9246
  106MOL   C29040400   3.706   4.166   0.867 -0.4535 -0.3029  0.0650
  106MOL   C29140401   3.572   4.144   0.796 -0.5363 -0.5474  0.2133
  106MOL   C29240402   3.570   4.043   0.688 -0.2824  0.4261 -0.2873
  106MOL   O29340403   3.894   4.172   1.068 -0.4457 -0.1725  0.0776
  106MOL   H29440404   3.814   4.506   1.102 -0.3689  0.8528  2.4279
  106MOL   H29540405   3.824   4.373   1.227  0.5876  0.1311  0.6050
  106MOL   H29640406   3.918   4.326   0.933 -1.7309  2.1463 -0.7116
  106MOL   H29740407   3.633   4.250   1.033  0.6280  1.4097  0.1080
  106MOL   H29840408   3.679   4.376   0.915  0.5960  0.4575 -0.3605
  106MOL   H29940409   3.776   4.184   0.786 -0.0103  1.6493  0.8539
  106MOL   H30040410   3.736   4.073   0.916 -0.7138  0.4168  1.6156
  106MOL   H30140411   3.533   4.241   0.764  1.5873  0.0166 -0.7287
  106MOL   H30240412   3.503   4.107   0.872 -0.4568 -0.6290  0.2448
  106MOL   H30340413   3.478   4.036   0.630  0.5802  0.4932 -1.6944
  106MOL   H30440414   3.650   4.055   0.614  1.5862 -2.0197  1.2854
  106MOL   H30540415   3.592   3.954   0.746 -0.6304  0.3913 -0.2066
  106MOL   C30640416   4.036   4.154   1.081 -0.2813 -0.0218  0.7395
  106MOL   C30740417   4.062   4.020   1.147 -0.2600  0.7378  0.1057
  106MOL   C30840418   3.993   3.907   1.062 -0.4462 -0.5917 -0.2483
  106MOL   C30940419   4.046   3.765   1.087  0.0770 -0.0618  0.4110
  106MOL   C31040420   3.986   3.657   0.994 -0.0111 -0.4293 -0.6013
  106MOL   C31140421   4.009   3.510   1.044 -0.4839  0.3961  0.5321
  106MOL   O31240422   4.020   4.011   1.283 -0.0371 -0.0194 -0.0949
  106MOL   H31340423   4.069   4.143   0.978 -1.1844 -0.5263  0.4978
  106MOL   H31440424   4.085   4.236   1.134 -1.4499  1.0948  0.1237
  106MOL   H31540425   4.169   4.006   1.136 -0.4225 -0.5553  0.1161
  106MOL   H31640426   4.017   3.929   0.958  0.0272  0.2623  0.0408
  106MOL   H31740427   3.884   3.915   1.064 -0.6052 -2.1532 -1.3321
  106MOL   H31840428   4.155   3.759   1.080  0.1882  2.5332 -0.7323
  106MOL   H31940429   4.028   3.735   1.190  0.7165  0.0557  0.5612
  106MOL   H32040430   4.031   3.657   0.894 -2.6541  1.8366 -1.8619
  106MOL   H32140431   3.880   3.679   0.985 -0.2965 -0.5323  2.0838
  106MOL   H32240432   4.116   3.491   1.047 -1.2956 -4.5744  1.9122
  106MOL   H32340433   3.955   3.492   1.137 -0.6309  0.3852  0.4448
  106MOL   H32440434   3.968   3.442   0.970  1.4436 -0.4077  0.1830
  106MOL   C32540435   4.089   4.095   1.373  0.8847  0.2644 -0.8236
  106MOL   C32640436   4.086   4.046   1.514 -1.3766 -0.3176 -0.4525
  106MOL   C32740437   4.124   4.157   1.608 -0.9953 -0.3838  0.2605
  106MOL   C32840438   4.159   4.100   1.748 -0.0902 -0.0429  0.0962
  106MOL   C32940439   4.170   4.197   1.865 -0.3906  0.1118 -0.5132
  106MOL   C33040440   4.031   4.262   1.905  0.0113 -0.2211 -0.0984
  106MOL   O33140441   4.179   3.940   1.527  0.0701  0.0342  0.3062
  106MOL   H33240442   4.058   4.199   1.371  0.4610  0.1290 -1.4787
  106MOL   H33340443   4.195   4.100   1.348  1.1875  1.5266  0.6361
  106MOL   H33440444   3.987   4.018   1.549 -0.7369 -0.2338  1.4842
  106MOL   H33540445   4.222   4.194   1.575 -0.7388 -1.2828 -0.0065
  106MOL   H33640446   4.058   4.243   1.601  1.0616  1.1407 -1.1183
  106MOL   H33740447   4.085   4.024   1.773  2.9104 -2.6242  1.3994
  106MOL   H33840448   4.257   4.055   1.736  0.0269  1.0995 -3.9039
  106MOL   H33940449   4.223   4.150   1.948 -1.9652 -0.3338  0.2599
  106MOL   H34040450   4.229   4.281   1.828 -1.9268  0.3725 -2.4750
  106MOL   H34140451   4.054   4.304   2.003  0.1763 -1.4464  0.3970
  106MOL   H34240452   4.000   4.332   1.827  1.5371 -0.5580 -1.0249
  106MOL   H34340453   3.961   4.178   1.906 -0.9368  0.5623  0.0180
  106MOL   C34440454   4.130   3.815   1.478  0.0566 -0.1814  0.7916
  106MOL   C34540455   4.180   3.695   1.558 -0.1939  0.2329  0.0492
  106MOL   C34640456   4.112   3.562   1.515  0.6523 -0.0873  0.2893
  106MOL   C34740457   4.156   3.437   1.607  0.9906  0.8190  0.7144
  106MOL   C34840458   4.072   3.307   1.585  0.1107 -0.1531 -0.1497
  106MOL   C34940459   4.103   3.250   1.446  0.4948  0.7063 -0.3853
  106MOL   O35040460   4.320   3.688   1.529 -0.4968 -0.7572 -0.0684
  106MOL   H35140461   4.141   3.810   1.370 -0.1737  1.2116  0.6836
  106MOL   H35240462   4.022   3.811   1.489  0.1675 -1.6668  1.3896
  106MOL   H35340463   4.157   3.717   1.663 -1.8687 -1.4626  0.0559
  106MOL   H35440464   4.133   3.554   1.408  0.1522  0.0850  0.1796
  106MOL   H35540465   4.003   3.563   1.520  0.6864 -0.5942  1.2484
  106MOL   H35640466   4.168   3.450   1.715 -1.2433 -1.5581  1.2919
  106MOL   H35740467   4.256   3.409   1.572  0.2221  1.8904 -2.4828
  106MOL   H35840468   3.967   3.336   1.599 -0.0248  0.0162 -1.3920
  106MOL   H35940469   4.105   3.242   1.666  1.4623  0.2000 -0.4074
  106MOL   H36040470   4.207   3.218   1.437 -0.0936 -0.9390 -1.5296
  106MOL   H36140471   4.071   3.326   1.375  0.7845  1.4453  0.2560
  106MOL   H36240472   4.038   3.164   1.430 -1.0826  2.2643 -2.6567
  106MOL   C36340473   4.402   3.676   1.644  0.6806  1.3394 -0.5005
  106MOL   C36440474   4.518   3.768   1.616  0.2739  0.4707 -0.9411
  106MOL   C36540475   4.585   3.738   1.482  0.6946  0.7292 -1.0270
  106MOL   C36640476   4.686   3.837   1.449  0.3090 -0.0963  0.6771
  106MOL   C36740477   4.803   3.761   1.383 -0.2775 -0.1554  0.0587
  106MOL   C36840478   4.918   3.858   1.345  0.6181  0.2526 -0.1232
  106MOL   O36940479   4.459   3.893   1.623 -0.2655 -0.3471 -0.1941
  106MOL   H37040480   4.436   3.573   1.648 -1.4012  0.6418  0.0248
  106MOL   H37140481   4.353   3.699   1.739 -2.0176 -1.5279 -1.1008
  106MOL   H37240482   4.588   3.753   1.698 -1.2464  0.4575  0.3904
  106MOL   H37340483   4.635   3.642   1.495  2.0097  1.2194 -2.3719
  106MOL   H37440484   4.518   3.717   1.399  1.6030  2.5785 -2.2437
  106MOL   H37540485   4.630   3.899   1.380 -0.3759 -0.2496  1.0957
  106MOL   H37640486   4.720   3.913   1.520  0.1156 -0.5630  1.2797
  106MOL   H37740487   4.842   3.687   1.453  0.6699  0.6398  0.3724
  106MOL   H37840488   4.789   3.712   1.287  0.8422  3.0971 -1.8554
  106MOL   H37940489   4.891   3.924   1.263  0.2135  0.2157 -0.0209
  106MOL   H38040490   4.945   3.914   1.435 -1.7395 -2.0909  2.1380
  106MOL   H38140491   5.009   3.813   1.305  0.4308 -0.5153  0.3073
  106MOL   H38240492   4.370   3.888   1.589 -0.6641 -0.3834  0.8378
  107MOL     C140493   4.175   1.070   2.608 -1.0429 -0.5644 -0.0129
  107MOL     C240494   4.033   1.113   2.572  0.4497 -0.5810 -0.0794
  107MOL     C340495   4.004   1.190   2.443  0.4401  0.8356 -0.0693
  107MOL     C440496   4.021   1.348   2.452 -0.3898 -0.2766  0.3731
  107MOL     C540497   4.021   1.424   2.317 -0.0529  0.0311 -0.1939
  107MOL     C640498   4.077   1.569   2.328 -0.8049 -0.4336 -0.2161
  107MOL     O740499   3.976   0.986   2.564  0.1168 -0.1251  0.2259
  107MOL     H840500   4.175   1.011   2.700  0.7144  0.3447  0.5879
  107MOL     H940501   4.230   1.161   2.630  1.3549 -1.6418 -1.3292
  107MOL    H1040502   3.985   1.173   2.650  2.9512  0.8106  0.4594
  107MOL    H1140503   4.063   1.150   2.361  2.1972  0.9834  1.0939
  107MOL    H1240504   3.904   1.171   2.403  0.1259  1.7264  0.2836
  107MOL    H1340505   3.954   1.402   2.519 -0.5981 -0.4820  0.3286
  107MOL    H1440506   4.124   1.360   2.488 -0.4932  1.0908  0.2478
  107MOL    H1540507   4.084   1.375   2.243 -0.1757 -1.3331  0.5894
  107MOL    H1640508   3.922   1.411   2.273  0.1540  1.2403 -1.0185
  107MOL    H1740509   4.177   1.562   2.372 -1.3360 -1.8504  0.8113
  107MOL    H1840510   4.094   1.618   2.232 -0.0265  0.0039  0.1405
  107MOL    H1940511   4.020   1.635   2.393 -1.7412 -0.9524 -0.4966
  107MOL    H2040512   4.218   1.010   2.527  0.8502  0.0314  0.5223
  107MOL    C2140513   3.885   0.945   2.664 -0.1633 -0.0997  0.2439
  107MOL    C2240514   3.837   0.803   2.641  0.3733 -0.4114 -0.6139
  107MOL    C2340515   3.763   0.736   2.764 -1.0059 -0.3653  0.6394
  107MOL    C2440516   3.731   0.589   2.762  0.5433 -0.7814  0.1801
  107MOL    C2540517   3.638   0.540   2.872 -0.0509  0.3391 -0.2576
  107MOL    C2640518   3.704   0.545   3.008 -0.4279  0.1022  0.0505
  107MOL    O2740519   3.736   0.798   2.538  0.0514 -0.2917  0.1247
  107MOL    H2840520   3.937   0.961   2.758  0.9065 -1.1755 -0.1581
  107MOL    H2940521   3.794   1.003   2.649 -2.5183 -3.6975  0.2411
  107MOL    H3040522   3.922   0.738   2.620  1.6366  0.8233  0.6116
  107MOL    H3140523   3.672   0.796   2.775 -0.5877 -0.0087  2.1963
  107MOL    H3240524   3.814   0.758   2.857 -0.5389  0.5412  0.1846
  107MOL    H3340525   3.820   0.527   2.751  0.6697 -0.4302 -0.7796
  107MOL    H3440526   3.675   0.580   2.669  1.8737  2.2090 -0.9971
  107MOL    H3540527   3.556   0.612   2.863  0.5607  0.9436 -1.1116
  107MOL    H3640528   3.609   0.436   2.855 -1.8636  0.6435  0.8939
  107MOL    H3740529   3.740   0.642   3.041  1.6956 -0.8693  0.6370
  107MOL    H3840530   3.792   0.480   3.005 -0.0732  0.6186 -0.6236
  107MOL    H3940531   3.637   0.494   3.078 -2.8412  0.1243 -2.1515
  107MOL    C4040532   3.790   0.779   2.409 -0.3587  0.4337 -0.0954
  107MOL    C4140533   3.686   0.777   2.293 -0.1086  0.5198  0.1541
  107MOL    C4240534   3.748   0.688   2.185 -0.0594 -0.7007 -0.2218
  107MOL    C4340535   3.659   0.690   2.060  0.2479  0.5402 -0.3643
  107MOL    C4440536   3.718   0.765   1.942  0.3944 -0.1269  0.1409
  107MOL    C4540537   3.851   0.702   1.883 -0.0928  0.4867  0.3637
  107MOL    O4640538   3.662   0.905   2.233 -0.2982  0.0305  0.4967
  107MOL    H4740539   3.830   0.678   2.415  0.6688  0.7676 -1.1469
  107MOL    H4840540   3.870   0.846   2.377 -0.3015  0.0679 -0.7238
  107MOL    H4940541   3.589   0.734   2.317  0.7041 -1.1714  0.5212
  107MOL    H5040542   3.848   0.724   2.160 -0.7514  0.6821 -1.0784
  107MOL    H5140543   3.754   0.584   2.216 -0.6683 -0.7051 -0.1247
  107MOL    H5240544   3.563   0.733   2.086 -0.1419  0.1943 -1.2184
  107MOL    H5340545   3.637   0.590   2.022  0.0161  0.0843  0.9370
  107MOL    H5440546   3.643   0.771   1.863  1.4486 -0.4070 -0.8960
  107MOL    H5540547   3.740   0.864   1.982  0.6976 -0.3453  0.5209
  107MOL    H5640548   3.838   0.594   1.883 -1.5435  0.6463  0.9923
  107MOL    H5740549   3.878   0.737   1.783 -0.6940  1.8255  0.6449
  107MOL    H5840550   3.934   0.720   1.951  0.4872 -0.1473 -0.1713
  107MOL    C5940551   3.598   1.003   2.317  0.0794 -0.1801 -0.2284
  107MOL    C6040552   3.558   1.125   2.224  0.1333  0.6263  0.2700
  107MOL    C6140553   3.690   1.175   2.166 -0.4363  0.2474  0.2034
  107MOL    C6240554   3.690   1.321   2.127  0.4825  0.5504 -0.1436
  107MOL    C6340555   3.806   1.357   2.025  0.0031 -0.1738  0.1541
  107MOL    C6440556   3.813   1.511   1.994 -0.7651  0.3991 -0.7967
  107MOL    O6540557   3.444   1.106   2.131 -0.3181 -0.0222  0.2541
  107MOL    H6640558   3.664   1.026   2.400 -0.8985 -0.1362  0.5536
  107MOL    H6740559   3.513   0.977   2.380 -0.0456 -0.6408 -0.5834
  107MOL    H6840560   3.516   1.206   2.284 -0.6770  0.4436 -0.0491
  107MOL    H6940561   3.730   1.114   2.086 -0.8313 -0.0126  0.2024
  107MOL    H7040562   3.766   1.160   2.243  0.1696 -0.7850 -0.5924
  107MOL    H7140563   3.706   1.378   2.218  1.4869  0.6012 -0.3445
  107MOL    H7240564   3.597   1.334   2.071  0.3019  1.9691  0.4643
  107MOL    H7340565   3.796   1.308   1.928  1.9425 -1.1070  0.4055
  107MOL    H7440566   3.898   1.321   2.070 -1.0021 -1.7474  1.0245
  107MOL    H7540567   3.831   1.559   2.090 -1.3484 -2.4584  0.8157
  107MOL    H7640568   3.899   1.521   1.927 -0.5539 -0.4928 -0.6699
  107MOL    H7740569   3.725   1.551   1.945  0.7504  1.6746 -2.5667
  107MOL    C7840570   3.468   0.997   2.044  0.1506  0.4027 -0.1543
  107MOL    C7940571   3.395   1.014   1.914 -0.2524  0.3064 -0.1744
  107MOL    C8040572   3.424   1.152   1.844 -0.1144 -0.0187 -0.3022
  107MOL    C8140573   3.561   1.164   1.778  0.6673  0.0004  0.2501
  107MOL    C8240574   3.575   1.293   1.696 -0.4881 -0.5501 -0.0284
  107MOL    C8340575   3.706   1.301   1.619  0.3926  0.2388  0.0410
  107MOL    O8440576   3.253   1.003   1.949  0.2909 -0.5234  0.1293
  107MOL    H8540577   3.440   0.904   2.094  2.0829  0.2913  0.7644
  107MOL    H8640578   3.570   0.983   2.008  0.2897 -1.0577  0.7777
  107MOL    H8740579   3.415   0.932   1.846  1.0735 -0.0256  0.5856
  107MOL    H8840580   3.348   1.156   1.766  0.1325  1.3700 -0.4864
  107MOL    H8940581   3.409   1.235   1.913 -0.6944 -0.5549  0.2255
  107MOL    H9040582   3.579   1.084   1.707  0.4094 -1.3508  1.6749
  107MOL    H9140583   3.630   1.153   1.862  0.6214 -0.0780  0.2775
  107MOL    H9240584   3.489   1.300   1.629  0.7896 -1.1273 -1.7634
  107MOL    H9340585   3.557   1.381   1.758  2.4612 -0.5523  0.8864
  107MOL    H9440586   3.699   1.274   1.514  1.2854  0.8427 -0.1750
  107MOL    H9540587   3.782   1.256   1.683  0.1651  1.1142  0.9560
  107MOL    H9640588   3.746   1.402   1.609  0.4696  0.2761  0.7059
  107MOL    C9740589   3.167   0.934   1.860  0.2029  0.4790 -0.2782
  107MOL    C9840590   3.025   0.905   1.927 -0.2311  0.2588  0.2184
  107MOL    C9940591   2.925   0.906   1.813 -0.3674 -0.4959 -0.4748
  107MOL   C10040592   2.781   0.856   1.840 -0.0955  0.1653 -0.3003
  107MOL   C10140593   2.688   0.871   1.718  0.3021 -0.4357 -0.7656
  107MOL   C10240594   2.653   1.010   1.667  0.4279  0.0086 -0.7965
  107MOL   O10340595   3.032   0.768   1.978  0.4540  0.6059 -0.0375
  107MOL   H10440596   3.210   0.849   1.808  2.2470  1.1231  0.3081
  107MOL   H10540597   3.153   1.017   1.790 -1.3995  1.0209  0.6720
  107MOL   H10640598   2.998   0.981   2.001  1.7401 -0.1277  1.3528
  107MOL   H10740599   2.967   0.847   1.732 -0.6863 -0.3963 -0.7106
  107MOL   H10840600   2.923   1.009   1.777 -0.9894 -0.0346  0.8527
  107MOL   H10940601   2.736   0.898   1.930 -0.0918 -0.0115 -0.2158
  107MOL   H11040602   2.789   0.754   1.879  0.0330 -0.0200 -0.8156
  107MOL   H11140603   2.597   0.817   1.747 -0.9005  1.6943 -0.5133
  107MOL   H11240604   2.727   0.808   1.638  2.4959 -0.6928  0.4578
  107MOL   H11340605   2.595   0.988   1.577 -0.0686 -2.0924  0.0063
  107MOL   H11440606   2.587   1.061   1.737  0.1702 -0.5696 -0.6188
  107MOL   H11540607   2.739   1.065   1.629 -0.0492 -0.1604 -2.1608
  107MOL   C11640608   3.109   0.751   2.099 -0.4132  0.1961 -0.5213
  107MOL   C11740609   3.135   0.606   2.143  0.2090  0.2200  0.0630
  107MOL   C11840610   3.204   0.593   2.281 -0.0329 -0.1434 -0.0057
  107MOL   C11940611   3.223   0.447   2.313 -0.1501  0.4886 -0.2833
  107MOL   C12040612   3.292   0.417   2.445  0.0281  0.4464 -0.0522
  107MOL   C12140613   3.181   0.398   2.552  0.0294 -0.3650 -0.5125
  107MOL   O12240614   3.221   0.544   2.049  0.2659  0.2480  0.1624
  107MOL   H12340615   3.209   0.794   2.095 -0.7166  1.0160  0.6991
  107MOL   H12440616   3.042   0.798   2.170 -0.9922 -0.7350 -0.4357
  107MOL   H12540617   3.042   0.550   2.142  0.2312  0.1873 -0.5280
  107MOL   H12640618   3.294   0.653   2.294 -0.9967  1.2228  0.4521
  107MOL   H12740619   3.145   0.643   2.357 -0.4566 -2.0315  0.9480
  107MOL   H12840620   3.279   0.401   2.232 -0.0618  1.0893 -0.5704
  107MOL   H12940621   3.127   0.396   2.312  0.7010 -1.3189  3.0149
  107MOL   H13040622   3.353   0.328   2.427  1.5625  1.5542 -0.4063
  107MOL   H13140623   3.361   0.491   2.483 -1.9622  1.4259  1.7569
  107MOL   H13240624   3.144   0.497   2.578 -1.6779 -0.7995 -1.2546
  107MOL   H13340625   3.096   0.339   2.518 -1.8537  0.9729  1.7966
  107MOL   H13440626   3.223   0.354   2.642 -1.2399 -2.7852 -1.0800
  107MOL   C13540627   3.163   0.522   1.921 -0.2273  0.0419  0.0454
  107MOL   C13640628   3.263   0.439   1.831 -0.4895 -0.2953 -0.5385
  107MOL   C13740629   3.187   0.426   1.696  0.6152 -0.1771 -0.7904
  107MOL   C13840630   3.151   0.554   1.608  0.0521 -0.2060  0.1964
  107MOL   C13940631   3.069   0.537   1.481 -0.4113  0.5373 -0.1164
  107MOL   C14040632   3.146   0.492   1.352 -0.0813 -0.2459  0.4774
  107MOL   O14140633   3.284   0.303   1.866 -0.3645 -0.0736 -0.2461
  107MOL   H14240634   3.069   0.467   1.930  1.0046 -2.3399 -1.3251
  107MOL   H14340635   3.146   0.615   1.868  0.6008  1.1594  1.7093
  107MOL   H14440636   3.357   0.492   1.820 -0.9343  0.1377 -2.4993
  107MOL   H14540637   3.248   0.360   1.634 -0.1098 -0.5237 -1.1367
  107MOL   H14640638   3.096   0.369   1.714  0.2526  0.5119 -0.4253
  107MOL   H14740639   3.235   0.622   1.595  0.8123 -1.5002 -2.0075
  107MOL   H14840640   3.092   0.619   1.673 -3.5560 -0.7291 -2.3844
  107MOL   H14940641   3.022   0.633   1.461 -2.4318  0.0017  1.9488
  107MOL   H15040642   2.989   0.466   1.500  0.1337  0.2231  1.0347
  107MOL   H15140643   3.087   0.492   1.260 -0.3707 -0.5401  0.6592
  107MOL   H15240644   3.228   0.563   1.343 -3.1568  3.9311  3.2958
  107MOL   H15340645   3.197   0.396   1.361  1.4984  0.7791  2.9586
  107MOL   C15440646   3.391   0.286   1.948 -0.4059 -0.3271  0.2469
  107MOL   C15540647   3.409   0.137   1.989 -0.0279 -0.0029  0.3389
  107MOL   C15640648   3.555   0.097   2.014 -0.4935  0.4032  0.3147
  107MOL   C15740649   3.560   7.741   2.067 -0.0435  0.5963 -0.1415
  107MOL   C15840650   3.703   7.694   2.068  0.0712 -0.0766 -0.5659
  107MOL   C15940651   3.713   7.552   2.116  0.5526 -0.2748  1.0913
  107MOL   O16040652   3.335   0.117   2.107  0.9064 -0.2605  0.1113
  107MOL   H16140653   3.380   0.351   2.035  0.8625  0.5740 -0.2472
  107MOL   H16240654   3.478   0.317   1.890 -1.7900  0.0467 -1.6447
  107MOL   H16340655   3.373   0.070   1.911 -0.3153  0.5952 -0.0487
  107MOL   H16440656   3.600   0.156   2.094  0.5047 -0.8358  0.6912
  107MOL   H16540657   3.619   0.107   1.927  0.8048  0.3734  1.2374
  107MOL   H16640658   3.494   7.677   2.009  1.9841 -1.2450 -0.5048
  107MOL   H16740659   3.531   7.728   2.171 -1.5663  2.0022 -0.3876
  107MOL   H16840660   3.734   7.701   1.964  0.3492  1.1404 -0.4005
  107MOL   H16940661   3.765   7.762   2.126 -0.2304  0.4387 -0.8465
  107MOL   H17040662   3.797   7.534   2.183  1.3120  2.3887  0.9170
  107MOL   H17140663   3.721   7.492   2.026  0.4233  0.7752  0.3614
  107MOL   H17240664   3.631   7.514   2.178  1.7393 -1.5947  1.8656
  107MOL   C17340665   3.200   0.070   2.090  0.1839 -0.3566 -0.6209
  107MOL   C17440666   3.138   0.044   2.228 -0.0667  0.0481  1.0825
  107MOL   C17540667   2.988   0.049   2.217 -0.1825 -0.1752 -0.1803
  107MOL   C17640668   2.928   0.070   2.357  0.0120  0.0541 -0.0332
  107MOL   C17740669   2.776   0.052   2.370 -0.7503 -0.5051  0.3503
  107MOL   C17840670   2.736   0.023   2.514 -0.0601  0.2759  0.2049
  107MOL   O17940671   3.156   7.693   2.264  0.0752 -0.3745 -0.2871
  107MOL   H18040672   3.192   7.766   2.028  1.0088 -1.0799  0.3106
  107MOL   H18140673   3.148   0.154   2.043 -1.3560  0.2318  2.0724
  107MOL   H18240674   3.182   0.113   2.299 -0.6410  0.4438  1.0619
  107MOL   H18340675   2.966   0.135   2.153 -0.9493  0.5461  1.0113
  107MOL   H18440676   2.951   7.745   2.168 -2.9797  0.4918  0.6104
  107MOL   H18540677   2.992   0.017   2.428  0.7159 -1.3229 -1.6665
  107MOL   H18640678   2.941   0.174   2.388  1.2211 -0.1429  0.1465
  107MOL   H18740679   2.727   0.138   2.324  0.4042 -0.4671 -0.8478
  107MOL   H18840680   2.738   7.748   2.321 -0.6185 -0.3772  0.0122
  107MOL   H18940681   2.634   0.025   2.554 -0.8146 -1.3532 -1.5709
  107MOL   H19040682   2.784   0.094   2.580  0.0126 -1.0107  1.5719
  107MOL   H19140683   2.774   7.711   2.544 -0.6019 -0.6136 -1.8972
  107MOL   C19240684   3.290   7.650   2.290 -0.2033  0.2611  0.4762
  107MOL   C19340685   3.296   7.567   2.422  0.4832 -0.7787  0.4390
  107MOL   C19440686   3.435   7.560   2.485 -0.6840 -0.5193  0.0422
  107MOL   C19540687   3.440   7.481   2.615 -0.1453  0.4410  0.4444
  107MOL   C19640688   3.578   7.441   2.675 -0.5933  0.0306  0.8941
  107MOL   C19740689   3.673   7.372   2.568 -0.0593  0.9299  0.6380
  107MOL   O19840690   3.262   7.433   2.390  0.0332  0.8778 -0.3921
  107MOL   H19940691   3.322   7.599   2.200 -0.8502  1.5271 -0.4965
  107MOL   H20040692   3.357   7.735   2.298  0.2750 -0.0002 -0.7099
  107MOL   H20140693   3.221   7.605   2.492  0.1998  0.3079 -0.4358
  107MOL   H20240694   3.501   7.522   2.407 -1.5733  1.4966 -1.7248
  107MOL   H20340695   3.468   7.661   2.509 -1.7149 -0.2596  0.3726
  107MOL   H20440696   3.393   7.384   2.597  0.4104  0.5338 -1.5685
  107MOL   H20540697   3.392   7.544   2.689 -1.9569  1.4943 -1.5946
  107MOL   H20640698   3.636   7.527   2.710  2.6285 -2.6187  2.3773
  107MOL   H20740699   3.564   7.367   2.754  0.8728 -0.9422  0.2556
  107MOL   H20840700   3.755   7.320   2.617  1.1103  0.8013 -1.3734
  107MOL   H20940701   3.622   7.294   2.510  0.3451  1.0228  0.1545
  107MOL   H21040702   3.714   7.437   2.491  1.2098 -0.8208 -0.2031
  107MOL   C21140703   3.136   7.411   2.337  0.0628 -0.7310  0.6828
  107MOL   C21240704   3.090   7.264   2.350  0.5420  0.0047 -0.6421
  107MOL   C21340705   3.191   7.169   2.272  0.5479  0.1697  0.0948
  107MOL   C21440706   3.323   7.146   2.342 -0.3946  0.2526  0.0949
  107MOL   C21540707   3.440   7.131   2.241 -0.0310  0.5066 -0.0942
  107MOL   C21640708   3.486   7.275   2.207  0.0842 -0.8053 -0.2025
  107MOL   O21740709   2.960   7.244   2.295  0.0994 -0.1368  0.1802
  107MOL   H21840710   3.146   7.427   2.230 -2.3280  1.4308  0.7171
  107MOL   H21940711   3.061   7.483   2.371 -0.5669 -0.0763 -1.9714
  107MOL   H22040712   3.097   7.237   2.455  0.0277 -0.2974 -0.6864
  107MOL   H22140713   3.143   7.076   2.240 -0.6892  0.4214  1.1674
  107MOL   H22240714   3.208   7.221   2.178  4.6853  0.2219  0.7702
  107MOL   H22340715   3.355   7.217   2.417  2.7223  0.3141 -1.1705
  107MOL   H22440716   3.309   7.057   2.404  3.7528 -1.3600 -1.0963
  107MOL   H22540717   3.519   7.070   2.284  0.5588  0.7208 -0.8734
  107MOL   H22640718   3.390   7.085   2.156  0.0866  0.1416  0.0338
  107MOL   H22740719   3.564   7.275   2.131 -2.5577 -0.3154 -2.9856
  107MOL   H22840720   3.518   7.320   2.302 -0.3312 -0.7334 -0.0943
  107MOL   H22940721   3.404   7.335   2.168 -0.3444  0.0819  1.9538
  107MOL   C23040722   2.896   7.123   2.323 -0.6230 -0.1684 -0.5235
  107MOL   C23140723   2.759   7.122   2.258  0.1420  0.0887  0.1017
  107MOL   C23240724   2.650   7.027   2.312  0.1157 -0.2048  0.3143
  107MOL   C23340725   2.504   7.059   2.268  0.0536  0.3804  0.1994
  107MOL   C23440726   2.416   7.086   2.386  0.3297 -0.1723 -0.3330
  107MOL   C23540727   2.277   7.114   2.330  0.1204  0.1274 -0.1309
  107MOL   O23640728   2.752   7.117   2.112 -0.4508 -0.0263  0.3279
  107MOL   H23740729   2.945   7.034   2.283 -1.5093 -1.0095  0.2285
  107MOL   H23840730   2.888   7.123   2.432 -0.4906  1.5785 -0.5041
  107MOL   H23940731   2.720   7.218   2.289 -1.9875 -1.4246  2.3062
  107MOL   H24040732   2.649   7.006   2.419  0.8571 -2.5123 -0.1000
  107MOL   H24140733   2.677   6.932   2.266  1.8591  0.9243 -1.0617
  107MOL   H24240734   2.462   6.973   2.217 -2.5452  1.4971  0.3971
  107MOL   H24340735   2.502   7.142   2.198  0.6082  1.8124  1.8574
  107MOL   H24440736   2.412   7.003   2.457 -0.4530  0.6109  0.5569
  107MOL   H24540737   2.452   7.180   2.427 -3.1645  1.0360  0.1224
  107MOL   H24640738   2.209   7.125   2.414  1.9983  0.8743  1.3479
  107MOL   H24740739   2.243   7.032   2.267 -0.5838  1.5973 -1.7152
  107MOL   H24840740   2.283   7.202   2.266  0.7789  1.9242  2.3297
  107MOL   C24940741   2.843   7.199   2.031 -0.0161 -0.3339  0.1769
  107MOL   C25040742   2.814   7.355   2.030 -0.3884  0.8017  0.5591
  107MOL   C25140743   2.673   7.393   2.007  0.0434  0.2600 -0.0059
  107MOL   C25240744   2.655   7.548   2.014 -0.1312  0.8817  0.2385
  107MOL   C25340745   2.509   7.592   1.995 -0.5240 -1.1673 -0.5487
  107MOL   C25440746   2.488   7.738   2.043 -0.4150  0.3053 -0.0549
  107MOL   O25540747   2.892   7.425   1.932  0.1452 -0.2893 -0.3054
  107MOL   H25640748   2.948   7.179   2.048  0.1857  1.5766  1.2785
  107MOL   H25740749   2.821   7.169   1.928  1.4636  0.0279 -0.2596
  107MOL   H25840750   2.840   7.395   2.128  1.1801  1.7442 -0.2197
  107MOL   H25940751   2.643   7.347   1.912  1.7869 -1.3700  0.2049
  107MOL   H26040752   2.610   7.332   2.072  3.3305 -2.6216  0.5899
  107MOL   H26140753   2.692   7.588   2.109 -0.7682  0.1045  0.8094
  107MOL   H26240754   2.710   7.595   1.931  1.2165 -1.9192 -0.5030
  107MOL   H26340755   2.479   7.578   1.891 -1.4593 -2.0382 -0.1796
  107MOL   H26440756   2.443   7.526   2.052  0.7064 -1.5800  0.4306
  107MOL   H26540757   2.533   0.033   1.984 -0.9639  0.5623 -0.1266
  107MOL   H26640758   2.541   7.738   2.138 -1.0471 -1.4035  0.3098
  107MOL   H26740759   2.384   7.769   2.049 -0.1385  1.3834 -0.5366
  107MOL   C26840760   3.034   7.452   1.962 -0.2679 -0.1870  0.0262
  107MOL   C26940761   3.106   7.525   1.844  0.1512 -0.1936  0.0107
  107MOL   C27040762   3.257   7.527   1.852  0.0575 -0.1096  0.6673
  107MOL   C27140763   3.326   7.386   1.855  0.7628  0.1972 -0.0942
  107MOL   C27240764   3.478   7.399   1.890  1.1039 -0.2630 -0.4987
  107MOL   C27340765   3.551   7.474   1.778  0.4039 -0.1016 -0.3887
  107MOL   O27440766   3.065   7.655   1.813 -0.1156 -0.0490  0.0524
  107MOL   H27540767   3.083   7.358   1.987 -0.8470 -0.2050  1.0921
  107MOL   H27640768   3.036   7.502   2.059 -1.1732  1.3295 -0.7168
  107MOL   H27740769   3.076   7.466   1.757  0.0048 -0.2012  0.0664
  107MOL   H27840770   3.286   7.579   1.761 -0.3180 -0.4844  0.3370
  107MOL   H27940771   3.287   7.581   1.942  3.3272 -3.0638  1.4506
  107MOL   H28040772   3.274   7.328   1.932 -2.4721  1.0230 -1.5919
  107MOL   H28140773   3.326   7.339   1.757  1.5358  2.0024 -0.9695
  107MOL   H28240774   3.485   7.458   1.981  0.7317 -1.8651  0.5837
  107MOL   H28340775   3.518   7.301   1.914 -0.6094 -0.1308  3.2404
  107MOL   H28440776   3.536   7.432   1.678 -1.4868  3.8595 -1.8662
  107MOL   H28540777   3.531   7.581   1.786 -0.6635 -0.3135 -0.0443
  107MOL   H28640778   3.656   7.462   1.801  0.4770 -0.9001 -1.0869
  107MOL   C28740779   2.944   7.657   1.733  0.7557  0.0952 -0.0369
  107MOL   C28840780   2.904   0.021   1.706  0.4906  0.1359 -0.1968
  107MOL   C28940781   2.858   0.091   1.832  0.3143  0.5049 -0.0865
  107MOL   C29040782   2.842   0.252   1.825  0.2508 -0.2103 -0.2078
  107MOL   C29140783   2.786   0.318   1.949  0.3067  0.7675  0.8193
  107MOL   C29240784   2.734   0.460   1.930  0.7348 -0.5520  0.2125
  107MOL   O29340785   2.798   0.039   1.618 -0.5259 -0.5415 -0.0854
  107MOL   H29440786   2.870   7.588   1.773  1.2887 -0.1785  0.4795
  107MOL   H29540787   2.968   7.618   1.635 -1.7866 -0.2276 -0.5714
  107MOL   H29640788   2.992   0.076   1.671  1.3194 -0.3536  1.0720
  107MOL   H29740789   2.772   0.038   1.871  1.3358  0.0225  1.5773
  107MOL   H29840790   2.934   0.061   1.905  0.6405  0.6554 -0.3619
  107MOL   H29940791   2.943   0.292   1.819  0.2313 -0.2731 -1.0063
  107MOL   H30040792   2.793   0.278   1.731 -0.1082  0.2329  0.0960
  107MOL   H30140793   2.865   0.316   2.023  0.3957 -0.8801  0.6852
  107MOL   H30240794   2.705   0.262   1.996 -1.2729  2.9852  0.8496
  107MOL   H30340795   2.675   0.479   2.019 -0.0760  1.3894 -0.7100
  107MOL   H30440796   2.815   0.530   1.949 -0.2086 -0.0603  2.6171
  107MOL   H30540797   2.679   0.479   1.838  0.8596 -1.2950 -0.0126
  107MOL   C30640798   2.839   0.021   1.477  0.5165  0.0617 -0.4444
  107MOL   C30740799   2.725   0.081   1.390 -0.5806 -0.3605  0.5066
  107MOL   C30840800   2.704   0.000   1.259  0.7397 -0.3103 -0.2878
  107MOL   C30940801   2.572   0.018   1.187  0.6661 -0.2028 -0.1232
  107MOL   C31040802   2.539   7.692   1.088 -0.4611  0.2087  0.2838
  107MOL   C31140803   2.391   7.707   1.023  0.3238  0.1052 -0.0771
  107MOL   O31240804   2.774   0.208   1.346 -0.8104 -0.1791 -0.3681
  107MOL   H31340805   2.930   0.075   1.449  1.4488 -1.4509 -0.4218
  107MOL   H31440806   2.863   7.702   1.457  1.3211 -0.7581  4.2486
  107MOL   H31540807   2.641   0.075   1.459 -0.4003 -2.5255  0.5647
  107MOL   H31640808   2.707   7.677   1.270 -2.6496 -0.4577 -0.2190
  107MOL   H31740809   2.784   0.034   1.192  1.2629  0.2764  0.6261
  107MOL   H31840810   2.499   0.042   1.265  1.3504  0.0849  0.4309
  107MOL   H31940811   2.585   0.101   1.118  0.1392 -0.4998 -0.5840
  107MOL   H32040812   2.557   7.592   1.126 -0.7455 -0.0129 -0.1616
  107MOL   H32140813   2.615   7.691   1.010 -0.8215  2.0111 -0.1330
  107MOL   H32240814   2.382   0.014   0.966  0.4767  0.6859  0.8294
  107MOL   H32340815   2.356   7.615   0.976  1.8440 -0.8667  0.6822
  107MOL   H32440816   2.318   7.728   1.102  2.1894 -0.6712  1.9056
  107MOL   C32540817   2.689   0.314   1.389 -0.3496 -0.3404 -0.2718
  107MOL   C32640818   2.711   0.450   1.310 -0.4762 -1.1082 -0.1992
  107MOL   C32740819   2.653   0.570   1.388 -0.8625  0.5362 -0.0090
  107MOL   C32840820   2.677   0.704   1.323 -0.5454  0.0814 -0.6793
  107MOL   C32940821   2.577   0.812   1.348 -0.1983  0.7273 -0.4248
  107MOL   C33040822   2.611   0.945   1.286 -0.2512 -0.0171  0.0209
  107MOL   O33140823   2.650   0.446   1.179 -0.2484 -0.1880  0.2129
  107MOL   H33240824   2.699   0.324   1.497  1.0624  1.0969 -0.5167
  107MOL   H33340825   2.584   0.285   1.379 -0.5076 -1.2455  3.2091
  107MOL   H33440826   2.818   0.467   1.298 -0.6027 -0.8329 -0.9314
  107MOL   H33540827   2.549   0.542   1.405 -0.9562  0.8014 -0.1457
  107MOL   H33640828   2.702   0.565   1.485 -1.4124  0.7685  0.2860
  107MOL   H33740829   2.779   0.733   1.349  1.0556 -5.7160  0.2277
  107MOL   H33840830   2.677   0.697   1.214  0.6798 -0.7405 -0.6355
  107MOL   H33940831   2.482   0.776   1.310 -1.1467  0.5569  2.0305
  107MOL   H34040832   2.558   0.808   1.455  0.7231 -2.2623 -0.3299
  107MOL   H34140833   2.587   0.931   1.180 -0.1602 -3.1305  0.3630
  107MOL   H34240834   2.556   1.032   1.323  0.0203 -0.7758  2.2795
  107MOL   H34340835   2.714   0.973   1.305  0.2588 -0.8395 -1.4731
  107MOL   C34440836   2.736   0.399   1.074 -0.2422 -0.1610 -0.1042
  107MOL   C34540837   2.647   0.381   0.950 -0.9941 -0.3151 -0.6442
  107MOL   C34640838   2.584   0.514   0.907  0.0184 -0.7874  0.1843
  107MOL   C34740839   2.494   0.512   0.777  0.3829 -0.1242 -0.0683
  107MOL   C34840840   2.434   0.650   0.744 -0.3910  0.3948 -0.6378
  107MOL   C34940841   2.332   0.710   0.849  0.6084  0.3610  0.1589
  107MOL   O35040842   2.733   0.330   0.848 -0.0580 -0.3198 -0.1010
  107MOL   H35140843   2.783   0.304   1.101  1.6783  0.9309  0.4801
  107MOL   H35240844   2.814   0.472   1.051  0.4821 -1.1517 -0.8890
  107MOL   H35340845   2.571   0.307   0.976 -1.5447  1.6422  3.8576
  107MOL   H35440846   2.661   0.589   0.890  0.4925 -1.0038  1.3253
  107MOL   H35540847   2.526   0.559   0.988 -0.9675  0.8438 -1.3796
  107MOL   H35640848   2.417   0.436   0.775 -0.2521  0.5005  0.4869
  107MOL   H35740849   2.545   0.475   0.688 -0.7644  0.9861 -1.2084
  107MOL   H35840850   2.387   0.649   0.646  0.1490 -1.6845 -0.8969
  107MOL   H35940851   2.513   0.725   0.731 -0.3865  0.4457 -0.3268
  107MOL   H36040852   2.253   0.636   0.858 -0.2621  1.2485 -0.0363
  107MOL   H36140853   2.295   0.800   0.800  4.5014  0.9094 -2.0620
  107MOL   H36240854   2.385   0.724   0.943  1.3056  1.2556 -0.3501
  107MOL   C36340855   2.753   0.189   0.843 -0.4089 -0.1521  0.6040
  107MOL   C36440856   2.749   0.155   0.693  0.0510  0.1052  0.2182
  107MOL   C36540857   2.608   0.180   0.620 -0.8280 -0.3319 -0.2507
  107MOL   C36640858   2.486   0.128   0.700 -0.3558  0.4898 -0.0387
  107MOL   C36740859   2.357   0.119   0.620 -0.2618  0.4723 -0.4802
  107MOL   C36840860   2.239   0.046   0.685  0.0430 -0.3901  0.4751
  107MOL   O36940861   2.867   0.198   0.628 -0.4428 -0.6417 -0.2927
  107MOL   H37040862   2.681   0.133   0.901 -1.2663  0.6448  0.3304
  107MOL   H37140863   2.850   0.173   0.891 -0.1290  0.0619  0.1174
  107MOL   H37240864   2.744   0.048   0.710 -2.7751 -0.2884 -2.4735
  107MOL   H37340865   2.606   0.289   0.615 -2.5837 -0.4339 -2.1103
  107MOL   H37440866   2.606   0.136   0.520 -0.3216 -0.9171 -0.0093
  107MOL   H37540867   2.500   0.028   0.740 -0.9841  0.1580 -0.6234
  107MOL   H37640868   2.469   0.187   0.790  0.5665 -2.2797  2.0384
  107MOL   H37740869   2.325   0.220   0.593  1.2782  1.2172  0.4382
  107MOL   H37840870   2.371   0.065   0.527  1.5663 -1.1802  0.7281
  107MOL   H37940871   2.153   0.071   0.623  0.8034 -3.5355 -2.0219
  107MOL   H38040872   2.244   7.722   0.684 -2.6914 -0.5568 -1.8274
  107MOL   H38140873   2.230   0.079   0.788 -0.2540  1.8144 -0.2288
  107MOL   H38240874   2.867   0.292   0.623 -2.6139 -0.6937 -2.4597
  108MOL     C140875   4.623   0.921   4.157 -0.0687 -0.1556 -0.4580
  108MOL     C240876   4.595   1.013   4.034 -0.2137  0.4551  0.0090
  108MOL     C340877   4.626   0.949   3.898  0.4159 -0.3549  0.6083
  108MOL     C440878   4.619   1.048   3.784  0.5687 -0.4678  1.1116
  108MOL     C540879   4.663   0.982   3.649  0.4714 -0.1135  0.6620
  108MOL     C640880   4.660   1.067   3.523  0.4677  1.0187  0.1902
  108MOL     O740881   4.460   1.052   4.037 -1.0007  0.1005  0.4443
  108MOL     H840882   4.552   0.838   4.163 -1.6757  0.9702 -2.6694
  108MOL     H940883   4.628   0.961   4.258  1.4947 -2.2663  0.3196
  108MOL    H1040884   4.657   1.102   4.043 -0.8619  0.8275  0.8284
  108MOL    H1140885   4.724   0.904   3.889  1.0270  1.5987 -3.3809
  108MOL    H1240886   4.558   0.865   3.890  0.9124 -0.6648 -0.3724
  108MOL    H1340887   4.517   1.084   3.783  1.0880  1.0002  0.0599
  108MOL    H1440888   4.689   1.130   3.801  0.8135  0.0217 -2.0287
  108MOL    H1540889   4.762   0.936   3.653  1.2709  1.5735  0.4231
  108MOL    H1640890   4.603   0.893   3.628 -2.2266  1.6704  0.4873
  108MOL    H1740891   4.741   1.140   3.521  0.0214  1.5746  1.6586
  108MOL    H1840892   4.676   1.015   3.429  1.4768 -1.3156  1.6005
  108MOL    H1940893   4.570   1.126   3.511 -0.7462 -1.0336 -1.1030
  108MOL    H2040894   4.714   0.867   4.133 -0.4246 -0.7629 -0.4361
  108MOL    C2140895   4.434   1.143   4.143  0.0806 -0.3889  0.8152
  108MOL    C2240896   4.278   1.163   4.134  0.3524 -0.2028  0.8892
  108MOL    C2340897   4.228   1.210   4.269 -0.0012  0.4169 -0.2239
  108MOL    C2440898   4.076   1.198   4.278  0.2779 -0.5974  0.0802
  108MOL    C2540899   4.008   1.064   4.327  0.1642  0.1607  0.9597
  108MOL    C2640900   3.847   1.079   4.335 -0.5293 -0.4714 -0.4391
  108MOL    O2740901   4.240   1.260   4.036  0.1810 -0.6538 -0.1345
  108MOL    H2840902   4.458   1.105   4.242 -2.1696  0.5222  1.7551
  108MOL    H2940903   4.489   1.236   4.125 -0.6403 -0.3049 -1.0615
  108MOL    H3040904   4.233   1.064   4.121 -2.6493  0.8818  2.7183
  108MOL    H3140905   4.266   1.309   4.296 -1.1196  0.8751 -0.3063
  108MOL    H3240906   4.279   1.137   4.333  1.2432  2.3147  0.9938
  108MOL    H3340907   4.034   1.216   4.179  1.6729 -0.9018 -0.5879
  108MOL    H3440908   4.034   1.274   4.343 -0.5931 -0.5169 -0.5611
  108MOL    H3540909   4.019   0.989   4.249 -0.0840  0.6699  0.4254
  108MOL    H3640910   4.045   1.023   4.421 -1.5077 -0.5415  1.3384
  108MOL    H3740911   3.808   0.993   4.389 -0.0344  0.1251  0.9094
  108MOL    H3840912   3.794   1.098   4.242 -1.7864  0.0170  0.3726
  108MOL    H3940913   3.818   1.173   4.382 -0.3474 -0.1846 -0.8921
  108MOL    C4040914   4.232   1.212   3.903 -0.1032  0.5353  0.5222
  108MOL    C4140915   4.221   1.326   3.794 -0.3614  0.4933 -0.7815
  108MOL    C4240916   4.193   1.265   3.660  0.2885  0.0340 -0.0360
  108MOL    C4340917   4.188   1.365   3.547  0.7419  0.0115 -0.2293
  108MOL    C4440918   4.174   1.292   3.415  0.9586 -0.2194  0.4524
  108MOL    C4540919   4.305   1.223   3.365 -0.2905 -0.0110  0.9175
  108MOL    O4640920   4.329   1.417   3.775  0.4138 -0.3160  0.0809
  108MOL    H4740921   4.145   1.147   3.902 -0.0627  0.4112  2.4482
  108MOL    H4840922   4.314   1.147   3.873  0.6086  0.2737  2.8930
  108MOL    H4940923   4.130   1.381   3.819  1.1189  2.8119 -0.4266
  108MOL    H5040924   4.272   1.192   3.645 -0.0354 -0.4929  0.7694
  108MOL    H5140925   4.097   1.213   3.660  0.7367 -0.7976  0.0799
  108MOL    H5240926   4.276   1.428   3.537  0.4923 -0.0717 -3.5809
  108MOL    H5340927   4.108   1.439   3.555  1.1978  0.5585 -0.6812
  108MOL    H5440928   4.083   1.232   3.408  0.0683  1.0266  1.1952
  108MOL    H5540929   4.154   1.367   3.338 -0.6207  0.7332  1.7507
  108MOL    H5640930   4.318   1.123   3.408 -0.1417 -0.0768  0.7201
  108MOL    H5740931   4.309   1.220   3.256 -0.6048  0.6605  0.8876
  108MOL    H5840932   4.392   1.278   3.401  1.3550 -1.4920 -0.7007
  108MOL    C5940933   4.335   1.511   3.881 -0.6872 -0.0935  0.4579
  108MOL    C6040934   4.430   1.622   3.844 -0.0280 -0.2055 -0.1540
  108MOL    C6140935   4.580   1.573   3.823  1.5458  0.3867 -0.3089
  108MOL    C6240936   4.639   1.511   3.952 -0.5745 -0.6315 -0.9215
  108MOL    C6340937   4.795   1.505   3.965 -0.5503  0.1599  0.2665
  108MOL    C6440938   4.856   1.412   3.860 -0.1588  0.4432 -0.6579
  108MOL    O6540939   4.401   1.689   3.716 -0.3967 -0.3745 -0.0990
  108MOL    H6640940   4.384   1.463   3.966  1.1155 -0.7576 -0.9301
  108MOL    H6740941   4.240   1.550   3.918  0.3896  2.7895  0.3451
  108MOL    H6840942   4.434   1.692   3.927  3.6195  0.3585 -0.7075
  108MOL    H6940943   4.642   1.658   3.794 -0.1759  1.8792  0.2961
  108MOL    H7040944   4.578   1.503   3.740 -1.6912 -0.6747  0.5884
  108MOL    H7140945   4.603   1.408   3.957  1.5483 -1.4890 -2.4170
  108MOL    H7240946   4.594   1.554   4.041  0.6431  0.6361 -0.9021
  108MOL    H7340947   4.826   1.461   4.060  2.6754  1.1180 -0.2685
  108MOL    H7440948   4.829   1.609   3.964  1.3119 -0.4327  0.2374
  108MOL    H7540949   4.880   1.470   3.770  0.1091 -0.0420 -0.9018
  108MOL    H7640950   4.957   1.386   3.893 -0.1338  1.2439 -0.0786
  108MOL    H7740951   4.810   1.317   3.836  0.1736  0.0954  0.0717
  108MOL    C7840952   4.273   1.752   3.714 -0.4961  0.4444  0.3019
  108MOL    C7940953   4.251   1.843   3.589 -0.2074 -0.7022  0.0560
  108MOL    C8040954   4.281   1.768   3.464 -0.8073 -0.4497  0.7718
  108MOL    C8140955   4.249   1.851   3.333 -0.1242 -0.2796 -0.3388
  108MOL    C8240956   4.317   1.793   3.209 -0.4655  0.1859  0.7663
  108MOL    C8340957   4.215   1.786   3.095 -0.3634  0.0480  0.7293
  108MOL    O8440958   4.345   1.953   3.595  0.1778  0.4187  0.3833
  108MOL    H8540959   4.265   1.806   3.809 -1.7638 -0.3403  0.6603
  108MOL    H8640960   4.207   1.665   3.709  1.3727 -0.9588 -0.4022
  108MOL    H8740961   4.146   1.871   3.584  0.2613  1.3393  1.4621
  108MOL    H8840962   4.387   1.742   3.460 -0.7428 -0.1252  0.2785
  108MOL    H8940963   4.228   1.673   3.460 -1.9269  0.1386  1.5207
  108MOL    H9040964   4.292   1.950   3.346 -2.4704  0.7492 -0.0739
  108MOL    H9140965   4.141   1.864   3.327 -0.1953 -0.4622  0.4777
  108MOL    H9240966   4.391   1.858   3.163  0.8837 -0.2837  2.1915
  108MOL    H9340967   4.356   1.691   3.221  2.9773  1.4224  0.6504
  108MOL    H9440968   4.142   1.867   3.092 -0.3331  0.0485 -0.2039
  108MOL    H9540969   4.157   1.694   3.098  0.6881 -0.6586 -0.1689
  108MOL    H9640970   4.272   1.787   3.002  0.2133 -0.1019  1.0808
  108MOL    C9740971   4.286   2.075   3.646  0.2371 -0.0957 -0.3149
  108MOL    C9840972   4.400   2.167   3.687  0.2477  0.2393 -0.0450
  108MOL    C9940973   4.371   2.318   3.680  0.3770 -0.5152  0.2545
  108MOL   C10040974   4.480   2.415   3.731  0.1749  0.4385 -0.2255
  108MOL   C10140975   4.451   2.556   3.680  0.7351  0.1430 -0.7666
  108MOL   C10240976   4.532   2.663   3.755  0.3333  0.1556 -0.0742
  108MOL   O10340977   4.431   2.136   3.822  0.0734 -0.4709 -0.4464
  108MOL   H10440978   4.222   2.055   3.731 -0.1654  1.7700 -0.1549
  108MOL   H10540979   4.229   2.125   3.567  0.5403 -0.8593 -1.0170
  108MOL   H10640980   4.484   2.150   3.619  1.0047 -0.4696  1.0560
  108MOL   H10740981   4.286   2.330   3.747  0.8899 -0.5517  0.9237
  108MOL   H10840982   4.349   2.353   3.579 -1.7600 -0.6514  0.6528
  108MOL   H10940983   4.573   2.392   3.679 -0.0642  0.5521 -0.7116
  108MOL   H11040984   4.499   2.406   3.838 -1.6066  0.5836  0.1189
  108MOL   H11140985   4.347   2.585   3.689  0.1589 -1.6404 -1.6244
  108MOL   H11240986   4.471   2.561   3.573  0.2555 -2.8686 -1.0393
  108MOL   H11340987   4.500   2.761   3.719 -1.1794 -0.6678 -1.0356
  108MOL   H11440988   4.528   2.660   3.864 -0.0712  0.9946 -0.0612
  108MOL   H11540989   4.640   2.661   3.739  0.3140 -1.2746 -0.1313
  108MOL   C11640990   4.514   2.016   3.832 -0.5843 -0.2466  0.5091
  108MOL   C11740991   4.556   2.016   3.973  0.9260 -0.0751  0.1760
  108MOL   C11840992   4.664   1.911   4.012 -0.7272 -0.7008  0.8167
  108MOL   C11940993   4.702   1.915   4.156  0.1369 -0.5916  0.1395
  108MOL   C12040994   4.810   1.815   4.203  0.3352 -0.1593 -0.0862
  108MOL   C12140995   4.834   1.818   4.347 -0.2785 -0.8422  0.0324
  108MOL   O12240996   4.452   1.979   4.064  0.1493  0.1083  0.6833
  108MOL   H12340997   4.460   1.927   3.800 -2.3378  1.3061 -1.0079
  108MOL   H12440998   4.605   2.034   3.774  0.4127 -1.1408  1.7707
  108MOL   H12540999   4.588   2.113   4.013  0.3274 -0.1460  0.8494
  108MOL   H12641000   4.638   1.813   3.973 -0.4704 -0.1809 -0.6705
  108MOL   H12741001   4.758   1.924   3.959 -2.0089 -1.2200 -1.6556
  108MOL   H12841002   4.616   1.897   4.221 -1.0576  0.5733 -1.0968
  108MOL   H12941003   4.737   2.014   4.185 -0.7287 -0.0103 -0.7731
  108MOL   H13041004   4.771   1.715   4.182 -0.7049  0.9358 -3.7504
  108MOL   H13141005   4.901   1.840   4.150 -0.6968  3.5622 -0.2186
  108MOL   H13241006   4.860   1.921   4.372  0.3116 -0.5604 -1.6759
  108MOL   H13341007   4.741   1.793   4.398 -0.3594  2.0971  1.4435
  108MOL   H13441008   4.921   1.765   4.385  0.4779 -0.2561 -0.8632
  108MOL   C13541009   4.359   2.086   4.089  0.6466 -0.3061  0.3846
  108MOL   C13641010   4.216   2.046   4.064  0.1034 -0.6357 -0.7754
  108MOL   C13741011   4.111   2.159   4.031 -0.8307 -0.0658  0.1782
  108MOL   C13841012   4.000   2.093   3.952  0.7766  0.1158  0.0279
  108MOL   C13941013   3.896   2.194   3.896 -0.0143  0.2260 -0.7950
  108MOL   C14041014   3.795   2.119   3.814 -0.0575  0.2949 -0.3773
  108MOL   O14141015   4.162   1.984   4.182 -0.1281 -0.0965 -0.7672
  108MOL   H14241016   4.373   2.113   4.193 -0.7132  1.8766  0.0532
  108MOL   H14341017   4.390   2.177   4.036  0.5437 -0.2331  0.4479
  108MOL   H14441018   4.215   1.977   3.980 -0.3153 -0.9356 -0.5275
  108MOL   H14541019   4.060   2.214   4.109 -1.9617 -1.8214  0.7113
  108MOL   H14641020   4.156   2.238   3.970  0.4376  0.3194  1.5843
  108MOL   H14741021   3.950   2.014   4.008 -0.3995 -0.4463 -1.7757
  108MOL   H14841022   4.045   2.045   3.865  1.2162  0.4906  0.0490
  108MOL   H14941023   3.940   2.280   3.844  1.3419  0.3196  0.4558
  108MOL   H15041024   3.849   2.233   3.986  1.3263  0.7497 -0.2987
  108MOL   H15141025   3.729   2.055   3.872  0.2500 -0.3660 -0.7442
  108MOL   H15241026   3.725   2.193   3.776  0.8739  0.7876 -1.1646
  108MOL   H15341027   3.845   2.071   3.729  0.3136 -0.1672  0.0975
  108MOL   C15441028   4.233   1.884   4.250 -0.7100  0.1793  0.1748
  108MOL   C15541029   4.246   1.757   4.173 -0.4316 -0.0482 -0.0172
  108MOL   C15641030   4.352   1.661   4.239 -0.0921  0.4815 -0.2171
  108MOL   C15741031   4.327   1.626   4.391 -0.3768  0.0299  0.1778
  108MOL   C15841032   4.434   1.533   4.444  0.1435 -0.2437  0.3078
  108MOL   C15941033   4.407   1.499   4.588 -0.1370  0.1577  0.2981
  108MOL   O16041034   4.134   1.677   4.188  0.1527 -0.0838 -0.0415
  108MOL   H16141035   4.179   1.873   4.344  0.3243  2.3968  1.0623
  108MOL   H16241036   4.332   1.919   4.276 -0.1491  0.6253 -2.3825
  108MOL   H16341037   4.288   1.774   4.074  0.0256 -2.3428 -0.2367
  108MOL   H16441038   4.454   1.697   4.225  1.1186 -1.8055  2.3125
  108MOL   H16541039   4.352   1.571   4.177 -1.0871  0.7977 -0.6964
  108MOL   H16641040   4.230   1.580   4.408  0.1261 -1.4318 -0.8577
  108MOL   H16741041   4.319   1.718   4.449 -0.0767  0.5499 -0.5966
  108MOL   H16841042   4.442   1.445   4.380  2.4475  0.1495 -0.0159
  108MOL   H16941043   4.532   1.580   4.433 -0.2542  0.7020  0.7111
  108MOL   H17041044   4.435   1.400   4.623 -1.9049 -1.8319 -3.5887
  108MOL   H17141045   4.301   1.509   4.611 -0.3476 -1.8224  0.2408
  108MOL   H17241046   4.463   1.573   4.645 -1.4068  1.0576  0.3865
  108MOL   C17341047   4.029   1.705   4.096 -0.4847 -0.0362  0.0846
  108MOL   C17441048   3.939   1.582   4.095  0.3200  0.5867 -0.1485
  108MOL   C17541049   3.882   1.542   4.235 -0.0433  0.3549 -0.4659
  108MOL   C17641050   3.779   1.428   4.231 -0.3372  0.3933  0.2055
  108MOL   C17741051   3.685   1.428   4.361 -0.4518 -0.1641 -0.9980
  108MOL   C17841052   3.574   1.326   4.339 -0.3769  0.2209  0.7320
  108MOL   O17941053   3.835   1.597   3.991 -0.1115  0.5029 -0.3893
  108MOL   H18041054   4.063   1.732   3.996 -0.0374  0.2382  0.3127
  108MOL   H18141055   3.970   1.781   4.147 -0.9709 -0.8528  0.7471
  108MOL   H18241056   3.994   1.496   4.058  1.2851  0.5615  1.3100
  108MOL   H18341057   3.960   1.507   4.302  0.7085  0.2186 -1.4066
  108MOL   H18441058   3.846   1.637   4.276  0.5729  0.1323  0.6100
  108MOL   H18541059   3.714   1.441   4.144  0.8715  1.0867 -0.6133
  108MOL   H18641060   3.837   1.337   4.215 -1.0803 -0.3511  1.6117
  108MOL   H18741061   3.745   1.392   4.444  0.3678  1.4742 -0.8609
  108MOL   H18841062   3.656   1.533   4.372  4.2146  1.1190  0.3302
  108MOL   H18941063   3.498   1.338   4.417 -1.2955 -0.8445  0.0198
  108MOL   H19041064   3.619   1.228   4.325  1.6566  1.2740 -0.3726
  108MOL   H19141065   3.520   1.344   4.246 -0.6973 -0.9171  0.6911
  108MOL   C19241066   3.869   1.597   3.855 -0.0191  0.5431 -0.3557
  108MOL   C19341067   3.727   1.608   3.780 -0.3892  0.0934 -0.3983
  108MOL   C19441068   3.738   1.601   3.628  0.3528  0.0636 -0.0023
  108MOL   C19541069   3.802   1.477   3.573  0.1221  0.0609 -0.0397
  108MOL   C19641070   3.814   1.455   3.419  0.1352 -0.0131 -0.2911
  108MOL   C19741071   3.911   1.546   3.344  0.7713  0.6016  0.5469
  108MOL   O19841072   3.682   1.743   3.816 -0.3312 -0.0836  0.6349
  108MOL   H19941073   3.930   1.685   3.834  3.7831 -1.5042  1.5648
  108MOL   H20041074   3.927   1.507   3.834  0.6386  1.0503 -0.7159
  108MOL   H20141075   3.652   1.537   3.814 -0.1256 -1.3417 -2.6965
  108MOL   H20241076   3.638   1.610   3.587  0.7018  2.9238 -0.3470
  108MOL   H20341077   3.799   1.690   3.607  0.7105  0.0362  0.8984
  108MOL   H20441078   3.744   1.392   3.609 -0.8665  0.3919 -0.8341
  108MOL   H20541079   3.904   1.464   3.609 -0.8165 -1.9368  2.0378
  108MOL   H20641080   3.834   1.352   3.390  0.3420  0.0108 -0.2391
  108MOL   H20741081   3.709   1.457   3.388  0.3460  0.1912 -1.0152
  108MOL   H20841082   4.014   1.517   3.367  0.1464 -0.6261  1.8379
  108MOL   H20941083   3.894   1.532   3.237  3.1620 -0.2163  0.2469
  108MOL   H21041084   3.897   1.652   3.366 -2.6465  0.3559 -0.1508
  108MOL   C21141085   3.543   1.745   3.832  0.5276 -0.3119  0.2259
  108MOL   C21241086   3.487   1.694   3.961 -0.1220 -0.2083 -0.1189
  108MOL   C21341087   3.342   1.657   3.947  0.1851 -0.0167  0.4130
  108MOL   C21441088   3.281   1.584   4.069  0.8267  0.1940 -0.0443
  108MOL   C21541089   3.159   1.495   4.030 -1.1635  0.3715  0.1246
  108MOL   C21641090   3.120   1.405   4.149  0.0923 -0.7921  0.4532
  108MOL   O21741091   3.497   1.788   4.069 -0.3396  0.9603  0.7133
  108MOL   H21841092   3.488   1.701   3.749 -1.8948 -0.5412  1.9039
  108MOL   H21941093   3.520   1.852   3.828 -0.8027 -0.6024 -0.5462
  108MOL   H22041094   3.541   1.603   3.986  1.3222  0.7692  0.4178
  108MOL   H22141095   3.277   1.743   3.928  0.1083 -0.2320 -0.3096
  108MOL   H22241096   3.315   1.597   3.860  2.1584  2.0017 -1.6436
  108MOL   H22341097   3.353   1.517   4.116  1.6196  2.5226  2.1685
  108MOL   H22441098   3.248   1.651   4.148 -3.2361 -1.7585  0.0392
  108MOL   H22541099   3.072   1.553   4.001 -1.1349  0.2998 -0.1017
  108MOL   H22641100   3.185   1.431   3.946  0.2419  0.1948  0.6691
  108MOL   H22741101   3.182   1.316   4.160  2.3260  0.8106  1.0117
  108MOL   H22841102   3.016   1.373   4.136 -0.3720  0.0535  1.9018
  108MOL   H22941103   3.130   1.457   4.244  0.7481  0.8834 -0.5203
  108MOL   C23041104   3.622   1.797   4.125  0.1621  0.0982 -0.1611
  108MOL   C23141105   3.624   1.891   4.241 -0.5552 -0.1822  0.0342
  108MOL   C23241106   3.762   1.937   4.260  0.4894  0.0557  0.1430
  108MOL   C23341107   3.762   2.068   4.341 -0.1130 -0.0234 -0.0385
  108MOL   C23441108   3.901   2.109   4.395  0.0466  0.2437 -0.1661
  108MOL   C23541109   3.890   2.226   4.491  0.3041 -0.4094 -0.5612
  108MOL   O23641110   3.593   1.817   4.358 -0.8240  0.0689 -0.0582
  108MOL   H23741111   3.663   1.700   4.155 -1.6179 -0.5218  0.3103
  108MOL   H23841112   3.688   1.824   4.043  1.4739 -2.8559 -0.1487
  108MOL   H23941113   3.555   1.973   4.223 -2.8681 -2.2046 -0.6733
  108MOL   H24041114   3.804   1.965   4.163 -2.3420 -0.2353 -1.2226
  108MOL   H24141115   3.826   1.864   4.310  0.2176  0.3923  0.9789
  108MOL   H24241116   3.698   2.049   4.427 -0.9291 -1.3117 -0.9144
  108MOL   H24341117   3.727   2.149   4.277  1.5612 -1.3664 -2.7357
  108MOL   H24441118   3.957   2.037   4.454 -1.7362 -1.8196 -0.9145
  108MOL   H24541119   3.973   2.133   4.317  1.6003 -0.4872  1.0286
  108MOL   H24641120   3.948   2.312   4.457 -0.8774  0.1859 -1.1143
  108MOL   H24741121   3.935   2.205   4.588  1.9345  2.8602 -0.5599
  108MOL   H24841122   3.784   2.252   4.499  1.2768  2.9493  2.4254
  108MOL   C24941123   3.454   1.781   4.364 -0.0503 -0.9155  0.4513
  108MOL   C25041124   3.424   1.722   4.492 -0.2355 -0.0990  0.3357
  108MOL   C25141125   3.303   1.627   4.501  0.1900  0.5555 -0.0371
  108MOL   C25241126   3.167   1.678   4.532 -0.0064 -0.7549 -0.6365
  108MOL   C25341127   3.050   1.588   4.486  0.4276  0.1471 -0.1354
  108MOL   C25441128   2.914   1.625   4.530  0.6731  0.3497 -0.0095
  108MOL   O25541129   3.404   1.812   4.603  0.6888 -0.5821  0.1126
  108MOL   H25641130   3.396   1.873   4.354 -0.5123 -1.2007  0.4745
  108MOL   H25741131   3.417   1.720   4.281 -1.3986 -0.4345  0.6874
  108MOL   H25841132   3.505   1.656   4.523 -1.2594  0.0335  3.5149
  108MOL   H25941133   3.283   1.581   4.404  1.3999  0.6199 -0.3258
  108MOL   H26041134   3.330   1.547   4.570  1.9298  1.8287  0.8170
  108MOL   H26141135   3.154   1.703   4.637 -1.6714  0.8243 -1.2104
  108MOL   H26241136   3.158   1.769   4.474 -0.1664 -0.5948 -0.3585
  108MOL   H26341137   3.039   1.578   4.378 -0.9187 -1.2603  0.1063
  108MOL   H26441138   3.068   1.486   4.521  0.2916  0.3500  0.5294
  108MOL   H26541139   2.854   1.534   4.530  2.2738 -0.7331 -1.7129
  108MOL   H26641140   2.876   1.703   4.464 -0.0528 -0.7219 -0.8815
  108MOL   H26741141   2.897   1.651   4.634 -0.7676  1.0772 -0.4118
  108MOL   C26841142   3.511   1.876   4.652  0.0416  0.6367 -0.7353
  108MOL   C26941143   3.453   1.941   4.778  0.5295 -0.5455 -0.0286
  108MOL   C27041144   3.509   2.077   4.799  0.2079  0.0596 -0.3009
  108MOL   C27141145   3.443   2.150   4.918 -0.8064  0.2258  0.6012
  108MOL   C27241146   3.504   2.287   4.940  0.1070  0.0633 -0.8790
  108MOL   C27341147   3.432   2.350   5.065  0.5355  0.0591  0.1397
  108MOL   O27441148   3.479   1.860   4.894  0.0643 -0.1762  0.1069
  108MOL   H27541149   3.556   1.951   4.587 -0.0131  2.6300  1.4499
  108MOL   H27641150   3.581   1.800   4.687 -0.6607 -0.5129 -1.7914
  108MOL   H27741151   3.346   1.959   4.762  0.4582 -2.2861 -1.7080
  108MOL   H27841152   3.613   2.066   4.830  0.8173  0.1371 -2.2151
  108MOL   H27941153   3.503   2.141   4.710  0.8982 -2.7022 -2.3965
  108MOL   H28041154   3.342   2.180   4.888 -1.2237 -1.1700  0.5871
  108MOL   H28141155   3.427   2.083   5.002  0.9521 -0.1615  0.6435
  108MOL   H28241156   3.613   2.294   4.937  0.2119 -1.1641 -0.3483
  108MOL   H28341157   3.479   2.343   4.850  2.3328  2.4907 -0.0356
  108MOL   H28441158   3.439   2.291   5.156  2.9681 -0.5273 -0.4018
  108MOL   H28541159   3.460   2.454   5.080  1.0505 -0.1828  0.8356
  108MOL   H28641160   3.325   2.356   5.043  0.7158  0.9578 -0.5533
  108MOL   C28741161   3.386   1.754   4.905  0.4300  0.9120 -0.3653
  108MOL   C28841162   3.423   1.664   5.024  0.0759 -0.5625 -0.2829
  108MOL   C28941163   3.370   1.517   5.004  0.1212  0.0475  0.4986
  108MOL   C29041164   3.426   1.434   4.890 -0.0650 -1.0236 -0.5364
  108MOL   C29141165   3.398   1.280   4.907  1.0995  1.1921 -0.5355
  108MOL   C29241166   3.240   1.258   4.928 -1.1706 -0.0803 -0.0156
  108MOL   O29341167   3.378   1.712   5.142 -0.0693 -0.3979  0.0660
  108MOL   H29441168   3.395   1.694   4.815 -0.1177 -2.0657  1.5015
  108MOL   H29541169   3.281   1.783   4.899  0.4302  1.2903  1.1691
  108MOL   H29641170   3.532   1.655   5.033 -0.0000 -0.9111  0.2808
  108MOL   H29741171   3.362   1.463   5.098  0.9214  1.1694  1.2245
  108MOL   H29841172   3.264   1.531   4.983 -0.0614 -1.7955  0.1267
  108MOL   H29941173   3.398   1.479   4.795  0.4380  1.3315  0.4133
  108MOL   H30041174   3.533   1.448   4.906  0.0233 -1.5727 -0.6263
  108MOL   H30141175   3.446   1.239   4.996 -0.4662  0.3631 -0.0464
  108MOL   H30241176   3.412   1.198   4.836  0.7156  0.3004  0.3994
  108MOL   H30341177   3.192   1.291   4.837 -0.1852  0.8797 -0.1991
  108MOL   H30441178   3.212   1.154   4.947 -2.8197  0.1381 -1.2321
  108MOL   H30541179   3.203   1.303   5.020  0.8644 -1.4424  1.5414
  108MOL   C30641180   3.463   1.807   5.200 -0.4144  0.5731 -0.2471
  108MOL   C30741181   3.414   1.799   5.346 -0.2111 -0.3340  0.1805
  108MOL   C30841182   3.379   1.660   5.396  0.0180 -0.0673 -0.1408
  108MOL   C30941183   3.368   1.640   5.546  0.3294 -0.7921  0.0688
  108MOL   C31041184   3.315   1.496   5.571  0.3433 -0.1792  0.0384
  108MOL   C31141185   3.246   1.481   5.702  0.1711  0.3959 -0.0482
  108MOL   O31241186   3.297   1.877   5.377  0.5164  0.1767 -0.1910
  108MOL   H31341187   3.568   1.780   5.202 -0.3926  0.7432  1.4309
  108MOL   H31441188   3.454   1.907   5.157  0.0250  0.7878  0.1561
  108MOL   H31541189   3.500   1.839   5.400  1.4010 -0.4404 -2.2426
  108MOL   H31641190   3.459   1.592   5.366 -0.9923 -2.0736  1.5471
  108MOL   H31741191   3.283   1.626   5.358 -0.8832  1.4869  0.6782
  108MOL   H31841192   3.460   1.672   5.596 -0.2143  2.2578 -0.8021
  108MOL   H31941193   3.306   1.718   5.590 -0.8348 -0.5693 -1.9429
  108MOL   H32041194   3.389   1.419   5.547 -0.1280 -1.2220  1.8544
  108MOL   H32141195   3.237   1.479   5.497 -0.9400  1.4405  0.9905
  108MOL   H32241196   3.206   1.382   5.723  1.3091 -0.4207 -1.6262
  108MOL   H32341197   3.309   1.482   5.791 -0.6427 -1.6695  0.5838
  108MOL   H32441198   3.162   1.549   5.716 -0.3354  0.1616 -1.8863
  108MOL   C32541199   3.327   2.016   5.408  0.2649 -0.4422 -0.1285
  108MOL   C32641200   3.191   2.095   5.427 -0.3819 -0.3498 -0.1648
  108MOL   C32741201   3.121   2.031   5.550  0.3243  0.2775 -0.5253
  108MOL   C32841202   3.001   2.098   5.622 -0.2769 -0.4798  0.0234
  108MOL   C32941203   2.859   2.066   5.561  0.3604  0.6695  0.0810
  108MOL   C33041204   2.808   1.921   5.577 -0.3906 -0.1476  0.0944
  108MOL   O33141205   3.107   2.093   5.310  0.2054  0.3024  0.4006
  108MOL   H33241206   3.385   2.061   5.327  0.9874  0.4799  0.8944
  108MOL   H33341207   3.395   2.036   5.490 -1.0801 -0.0335  0.9111
  108MOL   H33441208   3.220   2.200   5.439 -2.3132  0.2251 -0.3817
  108MOL   H33541209   3.084   1.933   5.521  1.1872 -0.0546 -0.5092
  108MOL   H33641210   3.195   2.019   5.629 -1.1069 -2.0812  0.5123
  108MOL   H33741211   3.003   2.064   5.726 -0.6621  0.9748  0.5249
  108MOL   H33841212   3.023   2.205   5.626  2.2190 -0.8905 -1.5881
  108MOL   H33941213   2.805   2.144   5.614 -0.0648 -0.5050  1.4157
  108MOL   H34041214   2.862   2.090   5.455 -2.1860  2.1289  0.2911
  108MOL   H34141215   2.832   1.897   5.680  2.3114 -0.5541 -0.5838
  108MOL   H34241216   2.700   1.927   5.561  0.0503  1.3069 -2.6205
  108MOL   H34341217   2.850   1.838   5.519 -0.9890 -1.4445  1.4703
  108MOL   C34441218   3.142   2.182   5.204  0.2936  0.3011  0.1585
  108MOL   C34541219   3.030   2.171   5.106 -0.5758 -1.2708 -0.5587
  108MOL   C34641220   3.043   2.272   4.995  0.0292 -0.8180 -0.1756
  108MOL   C34741221   2.908   2.327   4.950  0.2035 -0.3486 -0.0159
  108MOL   C34841222   2.915   2.445   4.861  0.3799 -0.0014 -0.4999
  108MOL   C34941223   2.785   2.492   4.801 -0.4888  0.7119  0.0220
  108MOL   O35041224   3.035   2.043   5.038  1.1110 -0.0309 -0.3522
  108MOL   H35141225   3.228   2.148   5.146 -0.2012 -1.4753  0.4608
  108MOL   H35241226   3.152   2.283   5.244 -2.2163  1.7075 -2.5427
  108MOL   H35341227   2.936   2.193   5.155 -0.1741  4.3376 -1.9308
  108MOL   H35441228   3.109   2.242   4.914  4.0649  3.9918  1.0925
  108MOL   H35541229   3.096   2.354   5.043 -0.2346  0.6455 -2.3344
  108MOL   H35641230   2.857   2.362   5.041  0.3476  0.9923 -0.4385
  108MOL   H35741231   2.848   2.253   4.896  1.2922  0.2418 -2.0673
  108MOL   H35841232   2.980   2.427   4.776  0.8931  2.1740 -0.5881
  108MOL   H35941233   2.957   2.536   4.905 -1.2894  0.6395 -0.1714
  108MOL   H36041234   2.753   2.414   4.732  0.7934  0.2352 -0.0529
  108MOL   H36141235   2.793   2.581   4.739 -0.1301 -0.2782 -1.3850
  108MOL   H36241236   2.705   2.503   4.874  1.0688 -0.3239  1.9439
  108MOL   C36341237   2.936   1.954   5.091 -0.2039  0.0920 -0.7127
  108MOL   C36441238   2.984   1.817   5.041 -0.9710  0.4694  0.2145
  108MOL   C36541239   2.915   1.692   5.082 -0.2149  0.8157 -0.0763
  108MOL   C36641240   3.002   1.562   5.063 -0.1393 -0.5161 -0.2725
  108MOL   C36741241   2.943   1.437   5.125 -0.3342  0.5344 -0.0471
  108MOL   C36841242   2.893   1.446   5.263 -0.9393  0.1338  1.0635
  108MOL   O36941243   2.989   1.823   4.904 -0.8822  0.1995 -0.0054
  108MOL   H37041244   2.838   1.986   5.056 -2.3113 -1.7365  3.2026
  108MOL   H37141245   2.927   1.946   5.199 -1.1909  1.1768 -0.7025
  108MOL   H37241246   3.082   1.821   5.089 -0.9602  0.4669  0.1921
  108MOL   H37341247   2.884   1.704   5.186  1.4451 -0.3364  0.5817
  108MOL   H37441248   2.823   1.674   5.026 -0.5966 -0.9541  1.0531
  108MOL   H37541249   3.026   1.540   4.959  2.3089 -1.6650  0.4880
  108MOL   H37641250   3.100   1.585   5.106  0.8667 -1.5389 -1.9588
  108MOL   H37741251   2.857   1.419   5.061 -1.5464  2.0345  1.1248
  108MOL   H37841252   3.019   1.359   5.110 -1.6552 -0.6361 -0.7485
  108MOL   H37941253   2.811   1.518   5.250  0.6461  1.1396 -4.5404
  108MOL   H38041254   2.859   1.352   5.307  0.6410 -1.3374 -0.7991
  108MOL   H38141255   2.966   1.492   5.330  0.0605  0.4443 -0.2255
  108MOL   H38241256   3.042   1.897   4.883  0.7951 -1.0490 -0.2700
  109MOL     C141257   7.431   3.214   0.785 -0.0217 -0.4579 -0.3229
  109MOL     C241258   7.296   3.283   0.806  0.1637  0.0138 -0.0948
  109MOL     C341259   7.251   3.276   0.954  0.2716 -0.9278  0.0959
  109MOL     C441260   7.127   3.365   0.988  0.1340  0.1122 -0.1433
  109MOL     C541261   7.057   3.337   1.124  0.8245  0.0425 -0.6482
  109MOL     C641262   6.944   3.441   1.158  0.3824 -0.6735 -0.1758
  109MOL     O741263   7.310   3.419   0.773 -0.1493  0.5349 -0.4957
  109MOL     H841264   7.428   3.112   0.824  0.2562  0.5989  2.5192
  109MOL     H941265   7.507   3.278   0.830 -2.7260  0.8993  2.4289
  109MOL    H1041266   7.220   3.230   0.748  2.1133 -1.7576 -1.1572
  109MOL    H1141267   7.247   3.173   0.987 -1.7146 -0.7831  0.4018
  109MOL    H1241268   7.332   3.324   1.009  1.4877 -1.1537 -1.4684
  109MOL    H1341269   7.153   3.471   0.981  0.4528 -0.0278 -1.1996
  109MOL    H1441270   7.050   3.333   0.918  0.3073 -4.4861  1.5980
  109MOL    H1541271   7.012   3.238   1.131 -0.6279  0.6799 -0.8436
  109MOL    H1641272   7.131   3.351   1.203 -0.6544 -0.8455  0.9072
  109MOL    H1741273   6.864   3.454   1.085 -1.5507  0.3822  2.0881
  109MOL    H1841274   6.886   3.398   1.239 -0.5884  1.2594  0.1770
  109MOL    H1941275   6.988   3.536   1.188 -0.3679 -0.7285  1.1230
  109MOL    H2041276   7.452   3.216   0.678 -2.4151 -0.5840 -0.8300
  109MOL    C2141277   7.254   3.448   0.638  0.2904  0.0205 -0.2477
  109MOL    C2241278   7.296   3.583   0.589 -0.4013 -0.5601  0.2745
  109MOL    C2341279   7.295   3.693   0.698  0.4483  0.0938 -0.2496
  109MOL    C2441280   7.317   3.834   0.643  0.5384 -0.0331  0.3540
  109MOL    C2541281   7.307   3.947   0.749  0.0426 -0.1636  0.2683
  109MOL    C2641282   7.275   4.085   0.689  0.2001  0.2269  0.2690
  109MOL    O2741283   7.428   3.567   0.534  0.1172 -0.1646 -0.5010
  109MOL    H2841284   7.281   3.371   0.566 -1.7666 -1.3668  0.3975
  109MOL    H2941285   7.145   3.443   0.640  0.2056  1.4371 -0.5388
  109MOL    H3041286   7.220   3.619   0.520  0.1865 -0.1586 -0.1689
  109MOL    H3141287   7.368   3.653   0.769 -0.1637 -1.0325 -0.2418
  109MOL    H3241288   7.201   3.687   0.752  0.3266  0.9423 -0.3724
  109MOL    H3341289   7.239   3.842   0.567 -0.6904 -2.8637  1.2343
  109MOL    H3441290   7.407   3.847   0.583  1.2628 -1.2684  1.1547
  109MOL    H3541291   7.236   3.912   0.824  0.2496  0.2251  0.6541
  109MOL    H3641292   7.400   3.953   0.807 -1.0538 -1.0742  2.1947
  109MOL    H3741293   7.179   4.078   0.638  1.1036 -1.7830 -1.2069
  109MOL    H3841294   7.339   4.103   0.603 -0.4782 -0.9272 -0.4855
  109MOL    H3941295   7.276   4.178   0.746 -1.7332  0.2728  0.2677
  109MOL    C4041296   7.427   3.551   0.389 -0.7416  0.0629 -0.0869
  109MOL    C4141297   7.567   3.521   0.331 -0.3959 -0.0869 -0.2061
  109MOL    C4241298   7.643   3.398   0.392 -0.4918 -0.1160 -0.5088
  109MOL    C4341299   7.571   3.267   0.375  1.2106 -0.6705  0.6160
  109MOL    C4441300   7.649   3.151   0.433  0.4141 -0.6151  0.1560
  109MOL    C4541301   7.566   3.025   0.441 -0.4337  0.3546 -0.6725
  109MOL    O4641302   7.647   3.639   0.323  0.6771  0.2488  0.1678
  109MOL    H4741303   7.399   3.644   0.339 -1.2247  0.5796  1.1324
  109MOL    H4841304   7.352   3.478   0.359 -1.0461  0.0893  0.6091
  109MOL    H4941305   7.556   3.484   0.229  0.9797 -0.3886 -0.2655
  109MOL    H5041306   7.741   3.396   0.346 -0.1146 -2.5796  0.3454
  109MOL    H5141307   7.660   3.423   0.497 -2.4286  2.3640 -0.7341
  109MOL    H5241308   7.527   3.242   0.278 -0.7777 -1.4041  1.6783
  109MOL    H5341309   7.488   3.284   0.443 -0.3263  0.2508 -1.4421
  109MOL    H5441310   7.727   3.135   0.359 -0.9273 -0.8754 -1.2464
  109MOL    H5541311   7.682   3.180   0.533  0.2533 -0.6470  0.2182
  109MOL    H5641312   7.467   3.054   0.475  1.2611  4.4195  1.1644
  109MOL    H5741313   7.559   2.976   0.344  2.7700  0.8370 -1.2020
  109MOL    H5841314   7.610   2.950   0.506  2.7016 -0.8604 -3.9860
  109MOL    C5941315   7.713   3.679   0.444 -0.1620 -0.0060 -0.2665
  109MOL    C6041316   7.742   3.824   0.431  0.4488 -0.3179  0.3951
  109MOL    C6141317   7.746   3.904   0.559  0.4687  0.7787  0.2580
  109MOL    C6241318   7.731   4.056   0.536  0.2317 -0.4626  1.1927
  109MOL    C6341319   7.711   4.141   0.668 -0.1220  0.5003 -0.2987
  109MOL    C6441320   7.687   4.284   0.616 -0.7199  0.2261  0.3779
  109MOL    O6541321   0.081   3.849   0.364  0.4292 -0.6640 -0.5055
  109MOL    H6641322   0.011   3.613   0.467 -0.2920 -0.2086 -0.3735
  109MOL    H6741323   7.652   3.677   0.535 -0.0520 -1.0459 -0.2089
  109MOL    H6841324   7.675   3.884   0.369  2.5568  0.6805 -0.9367
  109MOL    H6941325   0.052   3.886   0.616  0.3743 -1.0407 -0.1617
  109MOL    H7041326   7.652   3.875   0.605 -0.4707  1.6429 -1.0584
  109MOL    H7141327   7.644   4.078   0.475 -0.3622 -1.1791  1.7865
  109MOL    H7241328   0.042   4.071   0.487  0.2711  2.0817  2.0048
  109MOL    H7341329   0.017   4.142   0.727  0.3501 -1.1333 -0.9765
  109MOL    H7441330   7.627   4.107   0.727  1.2384  0.3987  1.6423
  109MOL    H7541331   7.676   4.353   0.700 -2.6827  1.5814 -0.9510
  109MOL    H7641332   7.770   4.317   0.554 -2.0019 -0.4094 -1.7282
  109MOL    H7741333   7.592   4.285   0.563 -0.9286  0.5344  0.7516
  109MOL    C7841334   0.121   3.772   0.247  0.4242  0.2477  0.8314
  109MOL    C7941335   0.257   3.832   0.197 -0.3862 -0.1905 -0.0973
  109MOL    C8041336   0.260   3.855   0.050 -0.2744 -0.1968  0.0118
  109MOL    C8141337   0.397   3.901   7.773  0.1589 -0.5043 -0.9060
  109MOL    C8241338   0.359   3.989   7.649  0.0255  0.2163 -0.3637
  109MOL    C8341339   0.484   4.013   7.562 -0.0080 -0.9730 -0.2536
  109MOL    O8441340   0.360   3.741   0.208  0.0478  0.1552 -0.2720
  109MOL    H8541341   0.042   3.775   0.173  0.0810 -0.4427  1.1678
  109MOL    H8641342   0.127   3.665   0.262 -2.7805 -0.0321  0.3895
  109MOL    H8741343   0.282   3.926   0.246  1.0711 -0.0390 -1.1199
  109MOL    H8841344   0.240   3.756   0.012 -0.7592  0.3359 -1.1329
  109MOL    H8941345   0.173   3.914   0.022  0.2293  0.1540 -0.8302
  109MOL    H9041346   0.461   3.814   7.755 -2.0193 -1.6425 -3.5668
  109MOL    H9141347   0.452   3.961   0.060  0.5740 -2.6491  0.6184
  109MOL    H9241348   0.272   3.955   7.593  0.9183  0.0809 -1.6948
  109MOL    H9341349   0.333   4.089   7.683 -2.7563 -0.7907  0.5833
  109MOL    H9441350   0.451   4.063   7.471  0.1782 -1.3581 -0.5314
  109MOL    H9541351   0.526   3.917   7.532  0.3463 -0.9919  0.3150
  109MOL    H9641352   0.564   4.075   7.602  0.7175 -1.3012 -1.1647
  109MOL    C9741353   0.422   3.732   0.334 -0.5168  0.0590  0.4870
  109MOL    C9841354   0.468   3.582   0.353  0.5775 -0.3672 -0.1931
  109MOL    C9941355   0.554   3.549   0.483  0.4961  0.2118 -0.0528
  109MOL   C10041356   0.485   3.544   0.617  0.0128  0.3542  0.2799
  109MOL   C10141357   0.565   3.491   0.731 -0.7556  0.2675 -0.0156
  109MOL   C10241358   0.691   3.564   0.755  0.6865  0.2559 -0.0740
  109MOL   O10341359   0.347   3.507   0.356 -0.4476  0.3717 -0.6489
  109MOL   H10441360   0.353   3.754   0.415  0.7050  0.8513  1.3172
  109MOL   H10541361   0.502   3.805   0.333 -0.7165  0.3280  2.4609
  109MOL   H10641362   0.532   3.564   0.267 -1.0780 -0.1471 -1.5150
  109MOL   H10741363   0.628   3.629   0.482 -1.2955  1.9482  1.2777
  109MOL   H10841364   0.598   3.452   0.463  0.1841  0.1629 -0.4976
  109MOL   H10941365   0.392   3.490   0.602  0.0028  0.6126 -0.6136
  109MOL   H11041366   0.439   3.637   0.649  0.8674 -0.2364  3.4517
  109MOL   H11141367   0.581   3.383   0.733  0.3431  0.3861 -1.4332
  109MOL   H11241368   0.492   3.496   0.812  1.4044  0.1702  1.9843
  109MOL   H11341369   0.767   3.528   0.685  0.3209  1.2934 -1.0058
  109MOL   H11441370   0.684   3.672   0.744 -0.0134  0.1222 -0.9609
  109MOL   H11541371   0.724   3.540   0.856  2.3506  1.8049 -0.2207
  109MOL   C11641372   0.371   3.363   0.346  0.5039  0.1162 -0.4466
  109MOL   C11741373   0.237   3.286   0.320 -0.8735  0.5189 -0.1448
  109MOL   C11841374   0.251   3.138   0.355 -0.1077 -0.3544 -0.0078
  109MOL   C11941375   0.266   3.102   0.504 -0.0937 -0.3591  0.0537
  109MOL   C12041376   0.282   2.951   0.539 -0.4447  0.2809  0.1785
  109MOL   C12141377   0.163   2.864   0.507 -0.3985 -0.5460  0.3162
  109MOL   O12241378   0.212   3.278   0.180 -0.0164 -0.1559 -0.0413
  109MOL   H12341379   0.443   3.327   0.273 -0.1667 -2.1213 -0.0229
  109MOL   H12441380   0.413   3.330   0.440 -1.2971 -0.8948  0.0309
  109MOL   H12541381   0.158   3.317   0.389 -0.3070  1.1609  0.2198
  109MOL   H12641382   0.162   3.082   0.326  0.3453 -1.0578 -0.0712
  109MOL   H12741383   0.333   3.091   0.301  0.2594  0.7645 -0.4329
  109MOL   H12841384   0.186   3.155   0.556 -1.6660  0.4511 -3.0371
  109MOL   H12941385   0.360   3.147   0.537 -1.4339  0.6293  2.6154
  109MOL   H13041386   0.373   2.907   0.497 -1.1857  0.5264 -1.7319
  109MOL   H13141387   0.304   2.953   0.646 -0.2017 -1.6555  0.1837
  109MOL   H13241388   0.183   2.764   0.547 -0.7776 -0.7880 -0.0909
  109MOL   H13341389   0.075   2.898   0.563  0.0496  2.5941 -0.8311
  109MOL   H13441390   0.145   2.861   0.400 -2.6324  3.5264  0.4537
  109MOL   C13541391   0.172   3.391   0.112 -0.5050  0.2682 -0.9176
  109MOL   C13641392   0.126   3.360   7.751  0.2737  0.1410  0.3437
  109MOL   C13741393   0.147   3.481   7.660  0.2161  0.5196 -1.0909
  109MOL   C13841394   0.132   3.435   7.511 -0.2202 -0.6246 -0.1265
  109MOL   C13941395   0.198   3.533   7.424 -0.2009  0.2142  0.2835
  109MOL   C14041396   0.217   3.487   7.287  0.3033  0.3358  0.2729
  109MOL   O14141397   7.771   3.326   7.738  0.3884  0.2041 -0.5772
  109MOL   H14241398   0.083   3.409   0.172 -1.3662 -0.2901 -2.0111
  109MOL   H14341399   0.251   3.467   0.110 -2.2462  2.0976 -1.5759
  109MOL   H14441400   0.179   3.272   7.713 -1.6020  0.1166 -2.3306
  109MOL   H14541401   0.073   3.554   7.694 -1.4018 -2.4362  2.0163
  109MOL   H14641402   0.244   3.528   7.673 -0.2844  1.1618  0.4014
  109MOL   H14741403   0.030   3.425   7.474 -0.0184 -1.1950 -0.5434
  109MOL   H14841404   0.191   3.343   7.510  0.2605 -0.3184 -0.3097
  109MOL   H14941405   0.292   3.576   7.458  0.5995 -0.6631 -0.8036
  109MOL   H15041406   0.137   3.624   7.424 -1.3505 -0.5385 -1.3351
  109MOL   H15141407   0.255   3.567   7.223 -0.6955 -1.0454 -2.1128
  109MOL   H15241408   0.285   3.403   7.274  1.6738  1.3784  0.6418
  109MOL   H15341409   0.117   3.460   7.251  0.2675  0.6255  0.1534
  109MOL   C15441410   7.726   3.217   0.031  0.6871 -0.1324 -0.1254
  109MOL   C15541411   7.588   3.167   7.773 -0.4328  0.0279  0.0799
  109MOL   C15641412   7.473   3.269   7.773 -0.0420 -0.2632  0.8689
  109MOL   C15741413   7.331   3.215   7.738  0.2343  0.2859  0.1985
  109MOL   C15841414   7.300   3.197   7.589 -0.3671  0.6181 -0.1178
  109MOL   C15941415   7.150   3.187   7.569  0.2577  1.0644 -0.3423
  109MOL   O16041416   7.587   3.098   7.652 -0.4864  0.2918 -0.1656
  109MOL   H16141417   7.723   3.228   0.139  0.9715  0.8825 -0.2155
  109MOL   H16241418   0.018   3.141   0.027  1.1113  0.1836  1.6556
  109MOL   H16341419   7.555   3.090   0.058 -0.3200  0.8590  1.0448
  109MOL   H16441420   7.494   3.349   7.703 -2.1871 -0.6344 -0.2441
  109MOL   H16541421   7.458   3.333   0.075  1.1097 -0.0934  0.9396
  109MOL   H16641422   7.257   3.283   7.781 -0.3650 -0.1323 -0.1630
  109MOL   H16741423   7.315   3.126   0.013  1.6576 -0.9138 -1.1499
  109MOL   H16841424   7.337   3.277   7.526 -0.5313  0.7491 -0.0487
  109MOL   H16941425   7.349   3.106   7.555 -0.3900  0.5179  0.1164
  109MOL   H17041426   7.106   3.280   7.605  1.0955  1.1062  0.5897
  109MOL   H17141427   7.104   3.105   7.625 -0.4767  0.2517 -2.0858
  109MOL   H17241428   7.125   3.177   7.463  1.1769 -0.6204 -0.4238
  109MOL   C17341429   7.628   3.160   7.528  0.0332 -0.1254 -0.5050
  109MOL   C17441430   7.625   3.057   7.414  0.8813 -0.5238 -0.1968
  109MOL   C17541431   7.642   3.135   7.282 -0.5302 -0.0485  0.1472
  109MOL   C17641432   7.608   3.063   7.155  0.5079 -0.0407  0.3344
  109MOL   C17741433   7.645   3.138   7.025 -0.4231  0.1552 -0.2855
  109MOL   C17841434   7.627   3.053   6.903 -0.8041  0.0792  0.5313
  109MOL   O17941435   7.733   2.965   7.415  0.3900  0.3663 -0.0344
  109MOL   H18041436   7.733   3.187   7.537  0.2223 -1.4087  1.6801
  109MOL   H18141437   7.573   3.250   7.503 -2.0227  0.0461  4.1062
  109MOL   H18241438   7.528   3.006   7.408  0.6019 -0.2599  1.9160
  109MOL   H18341439   7.603   3.237   7.284 -0.3038  0.1016 -1.7193
  109MOL   H18441440   7.750   3.151   7.278 -0.5210 -0.2234 -0.4365
  109MOL   H18541441   7.662   2.969   7.162  0.2883 -0.2516 -0.7955
  109MOL   H18641442   7.502   3.037   7.152  0.1222  1.3820  1.2521
  109MOL   H18741443   7.581   3.226   7.021 -0.4356  0.3329  2.6226
  109MOL   H18841444   7.743   3.184   7.027 -0.1072 -0.5461  1.5741
  109MOL   H18941445   7.520   3.035   6.893 -0.4258 -1.8673 -0.1712
  109MOL   H19041446   7.679   2.958   6.916 -2.4405 -1.0308 -0.8669
  109MOL   H19141447   7.670   3.091   6.810  0.0912  0.5169  1.1105
  109MOL   C19241448   7.703   2.858   7.504 -0.0543 -0.4076  0.3349
  109MOL   C19341449   0.029   2.752   7.506 -0.1325  0.5356  0.5421
  109MOL   C19441450   7.767   2.607   7.550 -0.4961 -0.0897 -0.3290
  109MOL   C19541451   7.656   2.540   7.460  0.2280  0.2537 -0.7732
  109MOL   C19641452   7.639   2.389   7.489 -0.2747  0.1343 -0.3150
  109MOL   C19741453   7.518   2.328   7.427  0.1135  0.0880 -0.6354
  109MOL   O19841454   0.125   2.792   7.602 -0.5289  0.2768 -0.4582
  109MOL   H19941455   7.689   2.896   7.605 -1.0633 -1.8796  0.7656
  109MOL   H20041456   7.606   2.815   7.478  0.0667 -1.3017  1.3266
  109MOL   H20141457   0.075   2.730   7.410 -1.4792  1.4354 -0.3325
  109MOL   H20241458   0.061   2.532   7.541 -0.3730 -0.2316  1.7209
  109MOL   H20341459   7.757   2.609   7.659 -0.3269  0.5520 -0.3277
  109MOL   H20441460   7.666   2.557   7.353  0.2720  0.7427 -0.6943
  109MOL   H20541461   7.565   2.599   7.472 -0.5454 -0.9304 -0.7528
  109MOL   H20641462   7.729   2.335   7.459 -0.2446  0.3000 -0.5255
  109MOL   H20741463   7.632   2.368   7.595 -1.8626  2.8776  0.1501
  109MOL   H20841464   7.518   2.220   7.445 -0.8040  0.3611  1.1557
  109MOL   H20941465   7.434   2.385   7.467 -1.1182 -1.4976 -0.8728
  109MOL   H21041466   7.523   2.347   7.320  1.7271  2.0957 -0.2215
  109MOL   C21141467   0.216   2.891   7.554  0.7056  0.4195  0.2521
  109MOL   C21241468   0.282   2.940   7.678 -0.7425  0.7075 -0.0935
  109MOL   C21341469   0.379   3.051   7.634  0.4712  0.4035  0.2517
  109MOL   C21441470   0.466   3.091   7.756 -0.7961  0.0582  0.3614
  109MOL   C21541471   0.550   3.219   7.713  0.1231 -0.2435 -0.0548
  109MOL   C21641472   0.475   3.347   7.706  0.7149 -0.2146  0.1971
  109MOL   O21741473   0.356   2.841   7.745  0.0909  0.4348 -0.0290
  109MOL   H21841474   0.168   2.982   7.517  0.5008  0.7491  1.3171
  109MOL   H21941475   0.280   2.843   7.480  1.8086  0.2550  1.3007
  109MOL   H22041476   0.203   2.979   7.743  0.2242 -1.7048  2.5893
  109MOL   H22141477   0.439   3.009   7.553  1.0345  2.9072 -0.6894
  109MOL   H22241478   0.328   3.136   7.588  0.4364  1.4746  2.2394
  109MOL   H22341479   0.396   3.106   0.052 -0.8123  1.3962  0.1199
  109MOL   H22441480   0.529   3.011   0.008  1.3317  1.9265  0.8650
  109MOL   H22541481   0.631   3.224   0.001 -0.2079  4.3307  0.1245
  109MOL   H22641482   0.593   3.216   7.613  0.0599 -1.8827 -0.0412
  109MOL   H22741483   0.539   3.433   7.685  1.0541 -1.0235 -2.3098
  109MOL   H22841484   0.416   3.365   0.010 -0.0832  0.2387 -0.4027
  109MOL   H22941485   0.397   3.347   7.630 -0.2072 -1.0733  1.1321
  109MOL   C23041486   0.294   2.810   0.085 -0.6993 -0.2414  0.4911
  109MOL   C23141487   0.395   2.721   0.168  0.5542 -0.2842 -0.3118
  109MOL   C23241488   0.520   2.800   0.215 -0.9627 -0.2698  0.1383
  109MOL   C23341489   0.620   2.710   0.299  0.3795  0.9811  0.1522
  109MOL   C23441490   0.599   2.729   0.451  0.0103 -0.2039  0.8175
  109MOL   C23541491   0.688   2.630   0.524  0.4696  0.4146 -0.1418
  109MOL   O23641492   0.439   2.606   0.094  0.1590  0.2184  0.0749
  109MOL   H23741493   0.270   2.900   0.142 -2.6221 -1.4160  1.6068
  109MOL   H23841494   0.196   2.764   0.082 -0.1704 -1.5959  2.9099
  109MOL   H23941495   0.335   2.699   0.256  1.1624 -3.0241 -0.5320
  109MOL   H24041496   0.505   2.898   0.261  3.3919  0.0103  1.1942
  109MOL   H24141497   0.579   2.823   0.126 -0.1020  3.1684  1.5206
  109MOL   H24241498   0.724   2.736   0.280  0.9747 -0.8571  0.7854
  109MOL   H24341499   0.597   2.606   0.276 -1.2617  0.8746  2.1361
  109MOL   H24441500   0.600   2.832   0.485 -3.7215  0.2209 -0.0938
  109MOL   H24541501   0.495   2.706   0.474 -0.3890 -0.1498 -0.8713
  109MOL   H24641502   0.706   2.671   0.623 -0.2124  0.0860  0.1243
  109MOL   H24741503   0.783   2.605   0.475 -0.7714 -2.7598 -1.0962
  109MOL   H24841504   0.643   2.531   0.530 -0.5510  0.8187 -1.0196
  109MOL   C24941505   0.340   2.505   0.084  0.7587  0.9307 -0.5641
  109MOL   C25041506   0.371   2.369   0.013  0.7211 -0.2127  0.2990
  109MOL   C25141507   0.251   2.273   7.779  0.0037  0.2952 -0.8192
  109MOL   C25241508   0.275   2.186   7.659  0.0325 -0.3039 -0.3709
  109MOL   C25341509   0.165   2.079   7.633 -0.0002  0.4601 -0.4373
  109MOL   C25441510   0.194   1.980   7.515 -0.0023 -0.4992 -0.1734
  109MOL   O25541511   0.446   2.285   0.101 -0.0426  0.3164  0.0647
  109MOL   H25641512   0.314   2.476   0.187  1.3794 -0.2240 -0.7289
  109MOL   H25741513   0.247   2.546   0.045  0.0028  1.2609  1.4926
  109MOL   H25841514   0.412   2.388   7.699 -2.3489  0.2573 -0.9142
  109MOL   H25941515   0.240   2.218   0.086  2.4116 -0.2308 -0.8066
  109MOL   H26041516   0.156   2.325   7.769 -0.8367 -0.6974  1.6777
  109MOL   H26141517   0.273   2.250   7.572 -2.4340 -0.7174 -0.6533
  109MOL   H26241518   0.374   2.142   7.662 -0.3972 -1.3315 -0.9358
  109MOL   H26341519   0.143   2.028   7.727 -1.1571  2.6881  0.5479
  109MOL   H26441520   0.074   2.134   7.610  0.6231  1.3764 -0.7392
  109MOL   H26541521   0.224   2.017   7.417 -0.8849 -0.5473 -0.4673
  109MOL   H26641522   0.105   1.923   7.490 -0.8885  0.5461  0.5459
  109MOL   H26741523   0.275   1.915   7.550  1.4455  0.2397 -2.0465
  109MOL   C26841524   0.581   2.333   0.125  0.2573 -0.1545 -0.8768
  109MOL   C26941525   0.651   2.230   0.214  0.0569 -0.1459 -0.0057
  109MOL   C27041526   0.749   2.305   0.309 -0.4166  0.6883  0.5767
  109MOL   C27141527   0.792   2.237   0.439  0.4555 -0.2240 -0.7230
  109MOL   C27241528   0.916   2.304   0.500  1.1005 -0.4697 -0.3782
  109MOL   C27341529   1.003   2.230   0.599  0.2843 -1.0090 -0.0741
  109MOL   O27441530   0.739   2.133   0.153 -0.9139  0.0596  0.0196
  109MOL   H27541531   0.565   2.424   0.183  0.8733  0.0683 -1.0607
  109MOL   H27641532   0.642   2.347   0.036 -2.1012  1.3939 -2.3285
  109MOL   H27741533   0.570   2.192   0.276  0.6749 -2.2440 -0.4312
  109MOL   H27841534   0.836   2.341   0.255 -0.1826 -0.2300  0.3223
  109MOL   H27941535   0.693   2.391   0.346 -1.6713 -0.2709  0.9583
  109MOL   H28041536   0.706   2.230   0.506  0.1074 -1.4623 -1.2946
  109MOL   H28141537   0.812   2.132   0.418 -1.8745 -0.7971 -0.2181
  109MOL   H28241538   0.982   2.318   0.415  1.6334 -2.3232 -0.2932
  109MOL   H28341539   0.881   2.401   0.535 -0.1524 -1.3621  0.9120
  109MOL   H28441540   1.031   2.138   0.547 -1.3025 -0.0845 -2.6625
  109MOL   H28541541   1.098   2.272   0.634 -0.3622 -0.0075  0.5287
  109MOL   H28641542   0.937   2.190   0.676 -0.0750 -1.1082 -0.4327
  109MOL   C28741543   0.688   2.001   0.140  0.1884 -0.1089 -0.4783
  109MOL   C28841544   0.766   1.915   0.049  0.5552 -0.1255 -0.6194
  109MOL   C28941545   0.912   1.889   0.099 -0.1794  0.1664 -0.2130
  109MOL   C29041546   0.984   1.793   0.001  0.0287 -0.7157  0.0221
  109MOL   C29141547   0.944   1.647   0.003  0.0731 -0.3284 -0.7601
  109MOL   C29241548   1.059   1.560   7.721  0.5193 -0.1510 -0.0635
  109MOL   O29341549   0.768   1.959   7.700 -0.0972  0.5488  0.1147
  109MOL   H29441550   0.582   2.003   0.113  0.4424  0.7023 -1.4526
  109MOL   H29541551   0.694   1.956   0.239 -0.3370 -0.8544 -0.7806
  109MOL   H29641552   0.711   1.822   0.064 -1.3628  1.2345  1.0325
  109MOL   H29741553   0.960   1.985   0.082 -1.8890  0.8717 -1.1755
  109MOL   H29841554   0.908   1.860   0.204 -1.0431 -0.4480 -0.4052
  109MOL   H29941555   0.965   1.821   7.683  0.3929  0.1303  0.1800
  109MOL   H30041556   1.090   1.820   7.781 -0.4169  0.6407 -2.7438
  109MOL   H30141557   0.852   1.643   7.730  1.2433  0.0702 -2.6849
  109MOL   H30241558   0.924   1.614   0.104  1.0325 -0.2712 -0.5456
  109MOL   H30341559   1.053   1.456   7.755 -0.0160  0.2340  1.0443
  109MOL   H30441560   1.049   1.561   7.613 -0.4656  0.4314  0.0340
  109MOL   H30541561   1.158   1.593   7.753 -0.0836  1.8450 -0.1781
  109MOL   C30641562   0.638   1.983   7.643  0.3062  0.4175  0.4297
  109MOL   C30741563   0.655   1.986   7.492  0.2412 -0.9022  0.0473
  109MOL   C30841564   0.548   2.076   7.427  0.1217 -0.6862 -0.1450
  109MOL   C30941565   0.544   2.063   7.270 -0.0291  1.2533  0.2584
  109MOL   C31041566   0.466   2.186   7.208 -0.5429 -0.3182  0.9320
  109MOL   C31141567   0.446   2.173   7.056 -1.0976 -0.0287 -0.4918
  109MOL   O31241568   0.637   1.862   7.427 -0.7619 -0.9946 -0.1778
  109MOL   H31341569   0.575   1.899   7.674  0.0715  0.3367 -0.2659
  109MOL   H31441570   0.607   2.083   7.670  1.5621  1.9131 -3.3318
  109MOL   H31541571   0.752   2.024   7.459 -0.1634  1.3793  1.3438
  109MOL   H31641572   0.563   2.179   7.459 -1.2524  0.4766 -3.0402
  109MOL   H31741573   0.452   2.049   7.472  0.9877 -0.6316  1.7508
  109MOL   H31841574   0.641   2.060   7.219 -0.6372  3.8576 -1.1658
  109MOL   H31941575   0.495   1.968   7.247 -1.7920  1.9466  1.0646
  109MOL   H32041576   0.519   2.276   7.239 -1.5800  0.4862  0.4155
  109MOL   H32141577   0.370   2.189   7.260 -0.0256 -1.1006  1.9538
  109MOL   H32241578   0.408   2.266   7.014  1.4931  1.1465 -0.3711
  109MOL   H32341579   0.536   2.141   7.002 -0.5962  1.5516 -0.6454
  109MOL   H32441580   0.374   2.101   7.019 -0.5178 -1.0020  0.2443
  109MOL   C32541581   0.730   1.756   7.462 -0.3060  0.5238 -0.7210
  109MOL   C32641582   0.739   1.638   7.361  0.7502  1.1013 -0.0110
  109MOL   C32741583   0.786   1.508   7.434  0.2353  0.1322 -0.0663
  109MOL   C32841584   0.686   1.447   7.530 -0.3286  0.4903 -0.1515
  109MOL   C32941585   0.709   1.302   7.591  0.5714  0.5903 -0.3250
  109MOL   C33041586   0.603   1.245   7.686 -0.3343 -0.9159  0.5864
  109MOL   O33141587   0.843   1.656   7.271  0.3047  0.0107  1.2578
  109MOL   H33241588   0.717   1.713   7.561 -3.1777  0.3983 -1.1045
  109MOL   H33341589   0.832   1.793   7.462  0.5857 -1.8290 -0.9292
  109MOL   H33441590   0.645   1.620   7.309  0.4158  0.0794  0.9012
  109MOL   H33541591   0.813   1.427   7.366 -1.3694  1.1276 -1.9850
  109MOL   H33641592   0.881   1.518   7.485 -0.8461  0.7991  1.8602
  109MOL   H33741593   0.678   1.517   7.614 -0.5333 -2.2241  2.1803
  109MOL   H33841594   0.584   1.446   7.492 -0.1541  0.5621 -0.6175
  109MOL   H33941595   0.722   1.229   7.512 -2.3716  0.2760 -0.5720
  109MOL   H34041596   0.813   1.288   7.619  0.3770 -1.8311 -0.7025
  109MOL   H34141597   0.641   1.152   7.729  1.2420 -0.3626  0.4276
  109MOL   H34241598   0.601   1.322   7.764  3.0362 -0.5687  0.4004
  109MOL   H34341599   0.510   1.238   7.631  1.0887  0.9166 -2.2001
  109MOL   C34441600   0.817   1.762   7.180  0.3222 -0.2309 -0.2735
  109MOL   C34541601   0.946   1.826   7.121 -0.8702 -0.3428  0.1654
  109MOL   C34641602   0.922   1.897   6.983 -0.6775 -0.1082  0.7636
  109MOL   C34741603   1.056   1.961   6.926 -0.4827 -0.4298  0.2938
  109MOL   C34841604   1.036   2.022   6.790  1.2247 -0.0728 -0.3827
  109MOL   C34941605   0.996   1.912   6.686  0.4287 -0.5781 -0.7295
  109MOL   O35041606   0.996   1.923   7.215 -0.3601 -0.7726  0.1518
  109MOL   H35141607   0.753   1.835   7.230 -1.5170 -1.1869 -1.2004
  109MOL   H35241608   0.754   1.717   7.104 -1.3193 -1.5565  1.8530
  109MOL   H35341609   1.019   1.750   7.096  0.4263 -0.3775  3.7993
  109MOL   H35441610   0.851   1.979   6.981 -0.1003  0.3666 -3.1954
  109MOL   H35541611   0.877   1.817   6.924  0.1195 -0.8652  1.1743
  109MOL   H35641612   1.130   1.882   6.923 -1.1251 -1.0007 -0.8967
  109MOL   H35741613   1.090   2.044   6.989 -0.0171  0.1503 -0.6933
  109MOL   H35841614   1.127   2.078   6.767  0.1603  2.5544  1.5476
  109MOL   H35941615   0.968   2.106   6.804  1.2522 -0.1808  0.4654
  109MOL   H36041616   1.007   1.952   6.585 -0.8144 -2.3712 -1.5892
  109MOL   H36141617   0.895   1.886   6.718  0.3970 -0.6359 -0.8772
  109MOL   H36241618   1.046   1.816   6.679 -0.1573 -1.0808  1.5486
  109MOL   C36341619   1.100   1.873   7.296 -0.3152  0.3510 -0.0983
  109MOL   C36441620   1.136   1.972   7.412  0.0424 -0.0352 -0.3732
  109MOL   C36541621   1.214   1.897   7.517 -0.0591  0.1380 -0.5071
  109MOL   C36641622   1.361   1.866   7.482  0.4657 -1.1194  0.7767
  109MOL   C36741623   1.439   1.778   7.589 -0.3793 -0.3534  0.8887
  109MOL   C36841624   1.585   1.762   7.544  0.1677  0.0553  0.2703
  109MOL   O36941625   1.201   2.081   7.364  0.3933 -0.2419 -0.2966
  109MOL   H37041626   1.185   1.867   7.227 -0.2303  0.5054 -0.0079
  109MOL   H37141627   1.079   1.773   7.331  0.9571 -0.1399 -0.6914
  109MOL   H37241628   1.048   2.020   7.456  0.2272  1.0227 -1.1150
  109MOL   H37341629   1.220   1.957   7.608 -0.7805 -2.1333  1.0823
  109MOL   H37441630   1.158   1.810   7.550 -0.6579 -0.1299 -2.2094
  109MOL   H37541631   1.370   1.819   7.384 -1.1302  0.7880 -0.3091
  109MOL   H37641632   1.402   1.965   7.466 -0.2341 -0.9251  0.1507
  109MOL   H37741633   1.437   1.820   7.690  2.3939  1.1027  0.3793
  109MOL   H37841634   1.408   1.674   7.600  0.3027 -0.4338  2.1645
  109MOL   H37941635   1.636   1.703   7.621  3.4862  0.2944 -1.6556
  109MOL   H38041636   1.603   1.715   7.448  0.6728  3.5307 -1.4043
  109MOL   H38141637   1.624   1.864   7.547 -0.0603  0.2367 -2.2474
  109MOL   H38241638   1.151   2.130   7.300 -0.5989 -2.6867 -1.4666
  110MOL     C141639   3.776   1.817   5.529 -0.2658 -0.0610 -0.0470
  110MOL     C241640   3.895   1.727   5.514  0.1574  0.0673 -0.8181
  110MOL     C341641   3.903   1.629   5.402  0.0338 -0.1627 -0.5322
  110MOL     C441642   3.811   1.500   5.413  0.0486  0.2870 -0.1750
  110MOL     C541643   3.811   1.406   5.295 -0.1320 -0.5043  0.3882
  110MOL     C641644   3.763   1.455   5.157  0.5409  0.4297 -0.7068
  110MOL     O741645   4.009   1.810   5.508  0.2690 -0.7005  0.8783
  110MOL     H841646   3.692   1.749   5.542 -1.0466  0.9541  0.2997
  110MOL     H941647   3.761   1.873   5.436 -0.7200  1.8185  1.1219
  110MOL    H1041648   3.905   1.667   5.604  0.7057 -1.6220 -1.9922
  110MOL    H1141649   3.879   1.685   5.312 -0.9932 -4.7561 -3.2724
  110MOL    H1241650   4.007   1.594   5.398  0.0203 -0.6658  2.6443
  110MOL    H1341651   3.849   1.448   5.500  0.5274  0.0894 -0.5023
  110MOL    H1441652   3.710   1.528   5.444  1.2137  3.6757  0.7443
  110MOL    H1541653   3.904   1.351   5.281  0.3294 -0.0886  1.7235
  110MOL    H1641654   3.746   1.324   5.326  0.0073  0.6715  4.0190
  110MOL    H1741655   3.774   1.380   5.079 -3.1331  2.7206 -3.5939
  110MOL    H1841656   3.659   1.486   5.170  0.7107  0.2341  1.2267
  110MOL    H1941657   3.829   1.534   5.123  0.0136  1.0004 -0.4264
  110MOL    H2041658   3.765   1.882   5.616 -0.8533 -2.7066  1.9012
  110MOL    C2141659   4.051   1.886   5.620 -0.0457 -0.8072 -0.7082
  110MOL    C2241660   4.201   1.944   5.605 -0.3035  0.0458  0.1903
  110MOL    C2341661   4.226   2.061   5.701  0.0269  0.3992  0.2045
  110MOL    C2441662   4.379   2.097   5.711  0.9151  0.1224 -0.1901
  110MOL    C2541663   4.424   2.210   5.798  0.2551 -0.0272 -0.4196
  110MOL    C2641664   4.575   2.203   5.835 -0.1797 -0.5573  0.3861
  110MOL    O2741665   4.291   1.842   5.637  0.0047  0.0707  0.4304
  110MOL    H2841666   3.981   1.968   5.639 -1.8752 -1.9915 -2.1485
  110MOL    H2941667   4.060   1.808   5.695 -0.9373  0.3770  0.6575
  110MOL    H3041668   4.227   1.978   5.505  1.6220  1.1663  1.0319
  110MOL    H3141669   4.187   2.044   5.801  0.2539 -0.6770  0.1211
  110MOL    H3241670   4.176   2.145   5.653  0.7189 -0.7995 -2.7838
  110MOL    H3341671   4.414   2.100   5.608 -1.6335  2.5753 -1.0719
  110MOL    H3441672   4.424   2.005   5.747  0.5463  0.6221  1.5771
  110MOL    H3541673   4.408   2.313   5.764 -0.0375 -0.8679 -2.9309
  110MOL    H3641674   4.365   2.211   5.890  0.8206 -1.1164 -0.0371
  110MOL    H3741675   4.601   2.282   5.906  0.1120  1.9403 -2.3959
  110MOL    H3841676   4.624   2.226   5.740 -1.2380  0.0275 -0.0347
  110MOL    H3941677   4.604   2.106   5.876 -3.2932 -0.1720  3.7705
  110MOL    C4041678   4.303   1.739   5.540  0.4391 -0.2170 -0.1319
  110MOL    C4141679   4.446   1.688   5.518 -0.2210 -0.1711 -0.2539
  110MOL    C4241680   4.480   1.639   5.377  0.1651  0.2489  0.3012
  110MOL    C4341681   4.628   1.659   5.353 -0.1048 -0.5298 -0.4136
  110MOL    C4441682   4.676   1.605   5.218  0.1513  0.4441 -0.3287
  110MOL    C4541683   4.823   1.634   5.201  0.2726 -0.5469 -0.0138
  110MOL    O4641684   4.474   1.593   5.608  0.3141 -0.4617 -0.6671
  110MOL    H4741685   4.273   1.765   5.438 -0.3367  2.3929  0.7224
  110MOL    H4841686   4.234   1.663   5.576  0.4863 -0.0854  0.2310
  110MOL    H4941687   4.503   1.778   5.540  1.3175 -1.2713  0.3554
  110MOL    H5041688   4.457   1.532   5.375  2.3388 -0.3040  2.5205
  110MOL    H5141689   4.419   1.686   5.300 -0.6374 -0.8453  0.2660
  110MOL    H5241690   4.684   1.606   5.430  2.3911 -0.9371 -2.4471
  110MOL    H5341691   4.660   1.762   5.365 -1.5588 -0.1325  0.2201
  110MOL    H5441692   4.665   1.497   5.212  3.7897 -0.0378  0.5143
  110MOL    H5541693   4.611   1.639   5.138 -0.9688 -2.0095 -0.5007
  110MOL    H5641694   4.874   1.613   5.295  1.5585  1.9142 -0.1311
  110MOL    H5741695   4.871   1.577   5.121 -0.3052  1.8415 -2.1333
  110MOL    H5841696   4.832   1.742   5.196 -2.6543 -0.1039  2.7748
  110MOL    C5941697   4.444   1.613   5.746  0.1897  0.2460 -0.5373
  110MOL    C6041698   4.539   1.528   5.834  0.0980  0.1105  0.0629
  110MOL    C6141699   4.524   1.555   5.984 -0.0221  0.0744 -0.7201
  110MOL    C6241700   4.626   1.492   6.086  0.0412 -0.1388  0.5391
  110MOL    C6341701   4.650   1.343   6.056  0.1493 -0.1774 -0.1251
  110MOL    C6441702   4.744   1.274   6.158 -0.0885  0.0831 -0.3321
  110MOL    O6541703   4.498   1.387   5.822  0.3075  0.2916  0.0794
  110MOL    H6641704   4.340   1.586   5.763  1.1410 -1.8586  2.2601
  110MOL    H6741705   4.443   1.717   5.782 -0.9957  0.3434 -0.8331
  110MOL    H6841706   4.644   1.545   5.812  0.5644 -1.4483  1.0194
  110MOL    H6941707   4.426   1.518   6.014 -0.0288 -0.8687 -1.8742
  110MOL    H7041708   4.523   1.661   6.009  0.6201  0.0249 -0.4941
  110MOL    H7141709   4.591   1.489   6.189  0.3716  0.3945  0.6682
  110MOL    H7241710   4.723   1.541   6.099 -0.5786  1.0121  0.8503
  110MOL    H7341711   4.708   1.341   5.964 -0.8902 -2.0261 -0.7678
  110MOL    H7441712   4.558   1.285   6.045 -0.7856  1.2770 -0.1988
  110MOL    H7541713   4.692   1.273   6.254  0.3802 -0.4180 -0.0839
  110MOL    H7641714   4.766   1.171   6.131  1.0042  0.5812 -1.3929
  110MOL    H7741715   4.842   1.318   6.171  0.1640 -0.8561  0.9935
  110MOL    C7841716   4.528   1.314   5.706 -0.4280 -0.2352  0.4801
  110MOL    C7941717   4.579   1.171   5.732  0.7399  0.9360  0.3210
  110MOL    C8041718   4.671   1.131   5.614  0.0128 -0.3959 -0.4193
  110MOL    C8141719   4.725   0.989   5.650  0.7742  0.4737 -0.0995
  110MOL    C8241720   4.824   0.933   5.548  0.1595  0.4401  0.1168
  110MOL    C8341721   4.770   0.902   5.407 -0.0089  0.4514  0.2148
  110MOL    O8441722   4.480   1.064   5.751  0.1071 -0.0946 -0.6960
  110MOL    H8541723   4.614   1.363   5.662  0.5439  1.5185  4.1761
  110MOL    H8641724   4.446   1.318   5.634  0.6363  1.9005 -0.6603
  110MOL    H8741725   4.653   1.180   5.811  0.8391 -0.5970  0.4113
  110MOL    H8841726   4.595   1.114   5.537 -2.1959  0.0528  1.5984
  110MOL    H8941727   4.742   1.209   5.587  1.2217 -1.4759 -0.4272
  110MOL    H9041728   4.649   0.913   5.667  1.6689 -0.6323 -0.8895
  110MOL    H9141729   4.780   0.997   5.744  0.0661  0.3861  0.3267
  110MOL    H9241730   4.918   0.987   5.553  0.5408 -0.1115 -1.0264
  110MOL    H9341731   4.864   0.839   5.587  0.2088  0.2163 -0.4728
  110MOL    H9441732   4.796   0.978   5.333  2.0765 -1.0778 -0.6982
  110MOL    H9541733   4.662   0.887   5.406  0.4172 -3.0451  0.8953
  110MOL    H9641734   4.806   0.803   5.381  0.9617  0.8192  0.1250
  110MOL    C9741735   4.396   1.072   5.863 -0.3180 -0.4040 -0.3757
  110MOL    C9841736   4.272   1.153   5.838 -0.0402  0.5797 -0.3146
  110MOL    C9941737   4.213   1.108   5.702  0.5705 -0.2328 -0.2245
  110MOL   C10041738   4.090   1.193   5.661 -0.3565  0.3129  0.2730
  110MOL   C10141739   4.113   1.338   5.613  0.7906  0.1035 -0.2968
  110MOL   C10241740   4.196   1.359   5.485  0.1033  0.8660  0.1179
  110MOL   O10341741   4.172   1.134   5.938  0.1935  0.5413 -0.8003
  110MOL   H10441742   4.439   1.122   5.950  0.3292 -1.9281  0.2014
  110MOL   H10541743   4.377   0.968   5.892 -0.8978 -0.5788 -1.3560
  110MOL   H10641744   4.285   1.261   5.826 -5.5885  1.4007  0.0762
  110MOL   H10741745   4.181   1.004   5.709  1.2225 -0.5418 -1.5342
  110MOL   H10841746   4.285   1.097   5.620 -0.1348 -0.3174 -0.8437
  110MOL   H10941747   4.016   1.190   5.741  1.1444  1.5163  1.7339
  110MOL   H11041748   4.034   1.148   5.579  1.4767  0.0208 -0.8326
  110MOL   H11141749   4.157   1.398   5.692  0.1327 -0.1048  0.2348
  110MOL   H11241750   4.024   1.396   5.587  0.4484 -0.9658 -1.5798
  110MOL   H11341751   4.219   1.464   5.467 -0.7630  0.9979 -0.1929
  110MOL   H11441752   4.293   1.308   5.485 -1.0131 -1.2894  0.0252
  110MOL   H11541753   4.143   1.322   5.398  1.5752 -0.4106 -0.2534
  110MOL   C11641754   4.176   1.245   6.036  0.0907 -0.2347 -0.5399
  110MOL   C11741755   4.063   1.228   6.141  0.3266 -1.1759 -0.2554
  110MOL   C11841756   3.998   1.364   6.191 -0.7365  1.0655  0.1374
  110MOL   C11941757   3.847   1.342   6.231  1.0736 -0.3352 -0.1028
  110MOL   C12041758   3.825   1.263   6.361  0.0626 -0.3042  0.2161
  110MOL   C12141759   3.879   1.345   6.478  0.7298 -0.5090  0.7914
  110MOL   O12241760   4.103   1.151   6.254  0.4289  0.1245 -0.2177
  110MOL   H12341761   4.276   1.248   6.079 -0.4022 -0.1786  0.6183
  110MOL   H12441762   4.154   1.334   5.977 -1.8227 -0.2267  0.1453
  110MOL   H12541763   3.985   1.174   6.086 -0.7977  1.0383 -0.8846
  110MOL   H12641764   4.050   1.394   6.283  2.6942 -0.9243 -1.0413
  110MOL   H12741765   4.022   1.439   6.116  2.5065  0.0629  0.1017
  110MOL   H12841766   3.793   1.298   6.146 -0.8325  0.3626  0.7082
  110MOL   H12941767   3.789   1.435   6.228 -1.0518 -1.5705  1.2500
  110MOL   H13041768   3.720   1.237   6.377 -0.1427  0.0207 -0.5736
  110MOL   H13141769   3.880   1.170   6.351  1.8142  0.5779  1.4335
  110MOL   H13241770   3.983   1.377   6.482  0.8804 -0.6500 -1.5045
  110MOL   H13341771   3.817   1.427   6.514  0.8147 -0.2656  0.3774
  110MOL   H13441772   3.868   1.282   6.567 -2.3677  0.2077  0.9734
  110MOL   C13541773   4.169   1.033   6.211  0.2926  0.3202  0.3677
  110MOL   C13641774   4.204   0.943   6.329  0.8005 -0.3482 -0.4422
  110MOL   C13741775   4.337   0.865   6.304  0.1127 -0.2559  0.2140
  110MOL   C13841776   4.389   0.790   6.428  0.2162  0.6797 -0.2282
  110MOL   C13941777   4.477   0.875   6.522 -0.3256 -0.4174 -0.3185
  110MOL   C14041778   4.621   0.912   6.478 -0.3025  0.2403  0.5055
  110MOL   O14141779   4.095   0.846   6.353  0.0765  0.0119  0.7780
  110MOL   H14241780   4.109   0.980   6.136  0.9787 -0.4324  0.3497
  110MOL   H14341781   4.260   1.062   6.159  1.4387 -1.4028  1.3645
  110MOL   H14441782   4.222   0.997   6.422  0.8651  0.6632 -1.0392
  110MOL   H14541783   4.325   0.793   6.223 -1.7612  0.5375 -0.2555
  110MOL   H14641784   4.419   0.928   6.271  1.7831 -1.0355  2.6694
  110MOL   H14741785   4.443   0.705   6.387  0.6277  0.9328 -0.2063
  110MOL   H14841786   4.305   0.748   6.485 -0.9515  2.2371 -0.7594
  110MOL   H14941787   4.484   0.818   6.614 -2.6538  1.4998  1.1115
  110MOL   H15041788   4.420   0.964   6.549 -0.1079 -0.1247 -0.8315
  110MOL   H15141789   4.669   0.821   6.443 -0.4553 -0.4917  2.1760
  110MOL   H15241790   4.622   0.993   6.405  0.0875  0.3717  0.6535
  110MOL   H15341791   4.661   0.950   6.572 -1.2744  0.4474  0.8338
  110MOL   C15441792   4.003   0.879   6.445 -0.7556 -0.8050  0.2527
  110MOL   C15541793   3.875   0.786   6.457  0.2959  0.7077  0.3400
  110MOL   C15641794   3.806   0.808   6.582  0.1063  0.1630 -1.2900
  110MOL   C15741795   3.701   0.702   6.605 -0.1410  0.1625 -0.8545
  110MOL   C15841796   3.632   0.728   6.738  0.4667  0.0370  0.1622
  110MOL   C15941797   3.537   0.616   6.775  0.1032 -0.5317  0.7512
  110MOL   O16041798   3.786   0.805   6.347  0.1791 -0.1835  0.0004
  110MOL   H16141799   3.967   0.981   6.440  0.6251 -0.1877  2.1627
  110MOL   H16241800   4.054   0.873   6.541  0.8871  1.5041 -0.4454
  110MOL   H16341801   3.910   0.683   6.459 -2.6857 -0.3657 -0.3452
  110MOL   H16441802   3.765   0.908   6.572  1.2094  0.5951 -1.5927
  110MOL   H16541803   3.881   0.814   6.660  0.4829 -0.4024 -1.6046
  110MOL   H16641804   3.755   0.608   6.616  0.1712  0.6426  2.2296
  110MOL   H16741805   3.636   0.691   6.519 -1.2288 -1.1633  0.1216
  110MOL   H16841806   3.717   0.734   6.807  0.1896  3.7326  0.2765
  110MOL   H16941807   3.577   0.822   6.733  0.3748 -0.0524 -0.5559
  110MOL   H17041808   3.480   0.624   6.867  0.3379 -0.9000  0.9303
  110MOL   H17141809   3.593   0.522   6.775  0.2693 -0.4487  2.8161
  110MOL   H17241810   3.453   0.609   6.705 -1.5468  2.1273  2.4149
  110MOL   C17341811   3.830   0.775   6.221 -0.2583 -0.0960  0.3870
  110MOL   C17441812   3.715   0.774   6.122  0.3101  0.3888  0.0857
  110MOL   C17541813   3.630   0.902   6.122 -0.5277  0.0273 -0.4497
  110MOL   C17641814   3.511   0.895   6.023 -0.4660  0.0159  0.3027
  110MOL   C17741815   3.442   1.031   6.010  0.6239 -0.3918 -0.1780
  110MOL   C17841816   3.322   1.038   5.918  0.2408  0.0761 -0.1340
  110MOL   O17941817   3.756   0.727   5.994 -0.1427 -0.4248  0.2289
  110MOL   H18041818   3.865   0.672   6.223 -0.4237 -0.4230 -5.3419
  110MOL   H18141819   3.914   0.833   6.183 -1.5663  1.1782 -0.6139
  110MOL   H18241820   3.649   0.693   6.153  0.2967  0.3275 -0.1006
  110MOL   H18341821   3.593   0.920   6.222  2.1772  0.9264  0.4359
  110MOL   H18441822   3.696   0.981   6.087 -1.6096  1.8322  1.5136
  110MOL   H18541823   3.549   0.882   5.922 -2.1132 -0.3717 -0.2872
  110MOL   H18641824   3.439   0.817   6.052  0.0036 -0.3729  0.4211
  110MOL   H18741825   3.411   1.067   6.108  1.8449  1.6264 -0.5102
  110MOL   H18841826   3.509   1.101   5.961  1.1256 -1.2035 -0.6514
  110MOL   H18941827   3.281   1.139   5.912 -0.1235 -0.0941 -0.5312
  110MOL   H19041828   3.246   0.963   5.938  2.1608 -2.4738 -1.9882
  110MOL   H19141829   3.359   1.011   5.819 -1.2621  0.2723 -0.7633
  110MOL   C19241830   3.829   0.816   5.909 -0.0696  0.4124 -0.1538
  110MOL   C19341831   3.843   0.745   5.771 -0.7234  0.2209 -1.1336
  110MOL   C19441832   3.971   0.792   5.686  0.5892 -0.0130  0.1415
  110MOL   C19541833   3.982   0.715   5.555 -0.6266 -0.6984  0.3210
  110MOL   C19641834   4.110   0.747   5.475  0.2777 -0.6462 -0.3957
  110MOL   C19741835   4.097   0.849   5.365 -0.1821 -1.0321  0.0321
  110MOL   O19841836   3.731   0.766   5.696  0.6452 -0.2289 -0.2472
  110MOL   H19941837   3.789   0.918   5.909  0.9461  0.8163  0.0747
  110MOL   H20041838   3.926   0.830   5.957 -1.3483 -2.7922  3.5121
  110MOL   H20141839   3.841   0.637   5.787 -1.0771  0.1132 -1.8769
  110MOL   H20241840   3.976   0.898   5.663 -0.4878  0.0836  0.3083
  110MOL   H20341841   4.062   0.773   5.742  0.5936 -3.8249 -1.0189
  110MOL   H20441842   3.895   0.743   5.495 -0.9691 -2.2227  0.0941
  110MOL   H20541843   3.969   0.609   5.574  1.2594 -0.9070  0.5270
  110MOL   H20641844   4.184   0.774   5.551  1.7163  0.5126 -2.1885
  110MOL   H20741845   4.143   0.649   5.441  0.7958 -1.8670  3.3297
  110MOL   H20841846   4.018   0.818   5.296 -1.3159 -1.1427  1.3686
  110MOL   H20941847   4.062   0.946   5.401  2.1687 -0.4281  0.7349
  110MOL   H21041848   4.188   0.860   5.307  1.1879 -2.0797  1.9529
  110MOL   C21141849   3.681   0.899   5.659  0.1577  0.1789 -0.7083
  110MOL   C21241850   3.543   0.877   5.590  0.2378 -1.1432  0.3629
  110MOL   C21341851   3.486   1.006   5.537 -0.1946 -0.4681  0.7253
  110MOL   C21441852   3.348   0.998   5.466 -0.2947  0.4623 -0.4700
  110MOL   C21541853   3.315   1.130   5.401 -0.9893 -0.3948 -0.4073
  110MOL   C21641854   3.178   1.123   5.340 -0.1375 -1.0546  0.1140
  110MOL   O21741855   3.443   0.834   5.686 -0.4363  0.6233  0.1033
  110MOL   H21841856   3.757   0.955   5.605  0.1939  1.2431  0.4265
  110MOL   H21941857   3.662   0.953   5.752  2.8163  1.5824 -0.9293
  110MOL   H22041858   3.548   0.803   5.511  0.6061 -2.0035  1.1804
  110MOL   H22141859   3.479   1.081   5.616 -3.0686  1.5720 -1.3511
  110MOL   H22241860   3.563   1.046   5.471 -0.7628 -2.5204 -1.2635
  110MOL   H22341861   3.353   0.917   5.393 -2.0037  0.4003 -0.5541
  110MOL   H22441862   3.267   0.969   5.534 -1.6202  2.7168 -1.0182
  110MOL   H22541863   3.326   1.205   5.480  0.9761 -1.4642  0.3709
  110MOL   H22641864   3.370   1.160   5.312 -3.1818  0.3223 -1.5506
  110MOL   H22741865   3.108   1.108   5.422 -0.1918  0.6568  0.4166
  110MOL   H22841866   3.181   1.054   5.256  1.3056  1.1593 -1.7478
  110MOL   H22941867   3.155   1.222   5.299 -1.0176 -0.8030  1.1914
  110MOL   C23041868   3.448   0.696   5.716 -0.1835  0.3225 -0.2632
  110MOL   C23141869   3.316   0.629   5.723 -0.0410 -0.4760 -0.1403
  110MOL   C23241870   3.304   0.480   5.761  0.0626  0.1048 -0.4281
  110MOL   C23341871   3.329   0.373   5.655 -0.3908 -0.4517  0.1546
  110MOL   C23441872   3.365   0.230   5.707  0.0307 -0.3979 -0.3062
  110MOL   C23541873   3.509   0.223   5.741  0.0743  0.4145 -0.6380
  110MOL   O23641874   3.263   0.646   5.594  0.1968 -0.1423 -0.0145
  110MOL   H23741875   3.505   0.634   5.647  1.2378 -0.0559  1.2137
  110MOL   H23841876   3.508   0.681   5.806 -1.3288 -4.2016 -0.1160
  110MOL   H23941877   3.256   0.689   5.791  0.3064  1.2246 -1.3151
  110MOL   H24041878   3.206   0.454   5.801  0.1795  0.2274 -0.0622
  110MOL   H24141879   3.369   0.462   5.846  2.2175  2.3151 -1.5426
  110MOL   H24241880   3.393   0.410   5.574 -0.0398 -0.2993  0.5034
  110MOL   H24341881   3.234   0.365   5.601 -0.3968  0.7463 -0.0387
  110MOL   H24441882   3.307   0.216   5.798 -0.0041  2.7920  0.2257
  110MOL   H24541883   3.333   0.150   5.640 -0.8362 -1.0821  0.9078
  110MOL   H24641884   3.570   0.248   5.654  2.3695  0.4387  0.9086
  110MOL   H24741885   3.540   0.122   5.771  1.4360  1.4628  1.6240
  110MOL   H24841886   3.534   0.294   5.819 -1.8733  1.1327 -0.6520
  110MOL   C24941887   3.122   0.654   5.588  0.0667  0.4681 -0.4267
  110MOL   C25041888   3.086   0.701   5.449  0.1712 -0.0854 -0.1348
  110MOL   C25141889   2.945   0.766   5.450  0.1318 -0.6230 -0.5664
  110MOL   C25241890   2.880   0.779   5.314  0.1279 -0.3000  0.2186
  110MOL   C25341891   2.769   0.887   5.298 -0.0737  0.5137  0.4095
  110MOL   C25441892   2.822   1.034   5.292  0.8649 -0.7381 -0.5573
  110MOL   O25541893   3.092   0.578   5.378  0.5078  0.4225  0.1574
  110MOL   H25641894   3.067   0.561   5.602 -0.0737  0.2809 -2.1412
  110MOL   H25741895   3.072   0.720   5.659 -0.3761  0.2222 -0.5070
  110MOL   H25841896   3.156   0.780   5.420  1.0497 -0.2872  1.4072
  110MOL   H25941897   2.878   0.704   5.510 -1.0069 -0.7922 -1.9878
  110MOL   H26041898   2.961   0.857   5.508 -0.4675 -1.6663  1.3088
  110MOL   H26141899   2.950   0.811   5.237 -0.7849 -0.5494 -0.7227
  110MOL   H26241900   2.844   0.681   5.282  1.7852 -0.9918  0.4286
  110MOL   H26341901   2.710   0.874   5.208  0.8927  1.4400 -0.3810
  110MOL   H26441902   2.702   0.880   5.383  2.2021 -0.4487  2.1887
  110MOL   H26541903   2.876   1.070   5.379  2.5258 -2.6118 -0.7754
  110MOL   H26641904   2.737   1.102   5.282  1.9795  0.9367  1.2138
  110MOL   H26741905   2.889   1.054   5.208  0.2090 -1.1288 -1.1838
  110MOL   C26841906   3.213   0.560   5.319 -0.0026 -0.8611 -0.0663
  110MOL   C26941907   3.197   0.426   5.242 -0.3503  0.7895  0.4346
  110MOL   C27041908   3.322   0.336   5.255 -0.7007  0.1958 -0.2139
  110MOL   C27141909   3.315   0.203   5.188 -0.7944  0.0805  0.0760
  110MOL   C27241910   3.445   0.118   5.206  0.3152  0.1709  0.3181
  110MOL   C27341911   3.461   0.059   5.349 -0.5661  0.3259 -0.3944
  110MOL   O27441912   3.178   0.443   5.102 -0.0806  0.6067 -1.0051
  110MOL   H27541913   3.293   0.543   5.391 -0.9460  1.1860  1.4920
  110MOL   H27641914   3.241   0.644   5.255  0.2275 -1.8565 -1.3028
  110MOL   H27741915   3.115   0.369   5.285  0.7574 -2.5806 -1.7739
  110MOL   H27841916   3.399   0.397   5.209 -0.0111  0.5734  1.3775
  110MOL   H27941917   3.356   0.335   5.359 -0.5003 -0.4244 -0.2863
  110MOL   H28041918   3.224   0.149   5.215 -2.0101  1.1416 -1.7748
  110MOL   H28141919   3.303   0.225   5.082  0.4370 -0.2110 -0.1277
  110MOL   H28241920   3.444   0.043   5.127  0.8346  0.2787  0.2108
  110MOL   H28341921   3.529   0.184   5.187  0.2376  0.1294 -0.1648
  110MOL   H28441922   3.550   7.784   5.366 -1.6396 -0.4703  2.6205
  110MOL   H28541923   3.470   0.129   5.433  0.9746 -0.0987 -0.1921
  110MOL   H28641924   3.370   0.004   5.370 -0.1223 -0.6104 -0.9170
  110MOL   C28741925   3.042   0.452   5.064 -0.0715  0.2079 -0.4518
  110MOL   C28841926   3.035   0.463   4.913 -0.1143  0.3906  0.0455
  110MOL   C28941927   3.112   0.358   4.839 -0.4038 -0.9521  0.6878
  110MOL   C29041928   3.094   0.356   4.688 -0.2861 -0.0883  0.0993
  110MOL   C29141929   3.135   0.215   4.636 -0.3246  0.1926 -0.3166
  110MOL   C29241930   3.125   0.197   4.491  0.0885 -0.3822  0.4742
  110MOL   O29341931   3.080   0.593   4.871 -0.1444 -0.1581  0.0280
  110MOL   H29441932   3.001   0.536   5.118  0.4582  0.4420 -0.4141
  110MOL   H29541933   2.996   0.362   5.104  3.2643 -0.7475  1.4371
  110MOL   H29641934   2.930   0.453   4.886  0.0275  2.7522 -1.5847
  110MOL   H29741935   3.219   0.370   4.858 -0.8507 -0.6261  3.1121
  110MOL   H29841936   3.076   0.264   4.879  0.8129 -2.3799 -1.4272
  110MOL   H29941937   2.989   0.365   4.660 -0.3245 -1.1252 -0.1118
  110MOL   H30041938   3.145   0.434   4.632  1.6736 -1.5155 -0.1559
  110MOL   H30141939   3.068   0.148   4.690  1.5322 -2.1523 -0.8693
  110MOL   H30241940   3.234   0.187   4.671 -0.6615 -1.5474 -0.7046
  110MOL   H30341941   3.210   0.243   4.440 -1.1175 -1.6630 -2.8219
  110MOL   H30441942   3.134   0.093   4.461 -1.9133 -0.1886 -0.8577
  110MOL   H30541943   3.033   0.230   4.444 -0.8711 -0.7313  2.0596
  110MOL   C30641944   3.010   0.710   4.919 -0.3478  0.8816  0.5123
  110MOL   C30741945   2.999   0.806   4.801  0.2255  0.3280 -1.2229
  110MOL   C30841946   2.973   0.946   4.857  0.7960 -0.5442  0.9008
  110MOL   C30941947   2.982   1.048   4.750  0.5261 -0.6862  0.0236
  110MOL   C31041948   2.913   1.184   4.787 -0.3567 -0.2607 -0.1059
  110MOL   C31141949   2.762   1.185   4.795  0.3065  0.0171  0.1917
  110MOL   O31241950   2.902   0.770   4.697 -0.4427  0.1649 -0.9979
  110MOL   H31341951   2.908   0.690   4.954  0.5413 -2.2062  1.5509
  110MOL   H31441952   3.050   0.749   5.013 -1.1167 -0.3981  1.4052
  110MOL   H31541953   3.089   0.812   4.739 -0.1859  2.4094 -1.6853
  110MOL   H31641954   3.042   0.986   4.932  0.4394 -1.2764  1.6345
  110MOL   H31741955   2.877   0.948   4.909  0.9253  2.2803  1.1158
  110MOL   H31841956   3.088   1.072   4.749  0.6862 -1.4092 -2.0481
  110MOL   H31941957   2.938   1.009   4.658  0.4319 -1.0557  0.2242
  110MOL   H32041958   2.941   1.256   4.710 -0.1207  1.0072  1.1332
  110MOL   H32141959   2.960   1.230   4.874  1.2569 -2.0371 -0.0191
  110MOL   H32241960   2.725   1.093   4.842 -1.2463 -0.0761 -1.1799
  110MOL   H32341961   2.721   1.270   4.849  4.0282  1.4183  1.0029
  110MOL   H32441962   2.728   1.197   4.693 -1.0008  1.2860  0.7517
  110MOL   C32541963   2.967   0.715   4.584 -0.4465  0.0433 -0.8816
  110MOL   C32641964   2.869   0.682   4.470  0.9206 -0.4190  0.5584
  110MOL   C32741965   2.946   0.611   4.352  0.3858 -0.4312 -0.5950
  110MOL   C32841966   2.846   0.540   4.253 -0.0386  0.2742  0.5318
  110MOL   C32941967   2.900   0.532   4.111 -0.4967 -0.1965 -0.3728
  110MOL   C33041968   2.801   0.472   4.010  0.1727 -0.1783 -0.6878
  110MOL   O33141969   2.798   0.785   4.405  0.0437  0.3639  0.5218
  110MOL   H33241970   3.026   0.625   4.603 -0.5138 -0.1103 -1.4019
  110MOL   H33341971   3.035   0.792   4.547 -1.6908  1.5955 -0.0142
  110MOL   H33441972   2.793   0.612   4.504  2.2482 -1.7970  0.7266
  110MOL   H33541973   3.000   0.690   4.299 -0.3735  0.3592 -0.2006
  110MOL   H33641974   3.026   0.543   4.384  0.0166 -0.2948  0.6630
  110MOL   H33741975   2.824   0.442   4.295  0.0934  1.0027  2.3345
  110MOL   H33841976   2.746   0.583   4.255 -0.8550 -1.0539 -3.8801
  110MOL   H33941977   2.941   0.628   4.079 -0.9892  1.1481  2.8599
  110MOL   H34041978   2.983   0.462   4.102 -1.2970 -1.3072  0.5892
  110MOL   H34141979   2.858   0.446   3.921  2.9139 -0.8251  1.2083
  110MOL   H34241980   2.757   0.379   4.045  4.1542 -1.9621 -0.1833
  110MOL   H34341981   2.726   0.551   3.998  0.2034 -0.1509 -0.6977
  110MOL   C34441982   2.692   0.849   4.476  0.0405  0.1354 -0.8317
  110MOL   C34541983   2.568   0.754   4.487  0.0981 -0.2869  0.7553
  110MOL   C34641984   2.455   0.821   4.559 -0.5998 -0.7020 -0.7350
  110MOL   C34741985   2.486   0.876   4.703  0.3921  0.2067  0.0014
  110MOL   C34841986   2.561   0.773   4.800 -0.3371  0.0233  0.2678
  110MOL   C34941987   2.583   0.811   4.951  0.5413 -0.6194  0.9753
  110MOL   O35041988   2.538   0.719   4.353  0.3673  0.9343  0.0671
  110MOL   H35141989   2.656   0.939   4.426  2.5591  2.4197  1.3485
  110MOL   H35241990   2.728   0.879   4.574  0.1401  1.3583 -1.2412
  110MOL   H35341991   2.598   0.661   4.536  1.3437 -1.5240 -2.2291
  110MOL   H35441992   2.366   0.759   4.571 -0.4160 -0.3580  2.8231
  110MOL   H35541993   2.427   0.914   4.510  2.0501  1.2480  1.3308
  110MOL   H35641994   2.395   0.908   4.754 -1.4768 -1.2421 -2.3274
  110MOL   H35741995   2.541   0.969   4.691 -0.9348  0.5853 -3.4452
  110MOL   H35841996   2.661   0.762   4.756  0.6652  1.8549  2.0087
  110MOL   H35941997   2.526   0.670   4.795 -0.2427  0.0487 -1.0633
  110MOL   H36041998   2.653   0.740   4.997  1.9790 -0.5064 -0.9676
  110MOL   H36141999   2.495   0.793   5.013 -0.9456  1.4176 -0.4810
  110MOL   H36242000   2.629   0.910   4.951 -1.8680  0.5274  0.7863
  110MOL   C36342001   2.463   0.601   4.353  0.2036  0.0213 -0.0959
  110MOL   C36442002   2.450   0.565   4.204  0.6633 -0.2371  0.2964
  110MOL   C36542003   2.446   0.417   4.186  0.0540  0.7137 -0.4571
  110MOL   C36642004   2.423   0.372   4.041 -0.5700 -0.3438 -0.2530
  110MOL   C36742005   2.417   0.218   4.022  0.0057  0.1944 -0.0396
  110MOL   C36842006   2.276   0.157   4.017  0.8643 -0.4362 -0.5251
  110MOL   O36942007   2.329   0.626   4.159 -0.7621  0.7506  0.1041
  110MOL   H37042008   2.363   0.607   4.396  1.2315 -0.5125  2.4802
  110MOL   H37142009   2.503   0.513   4.403 -0.6979 -0.8256 -0.8338
  110MOL   H37242010   2.537   0.606   4.152 -0.3280  0.3854 -0.8864
  110MOL   H37342011   2.540   0.376   4.223 -0.6254  0.6675  1.2371
  110MOL   H37442012   2.359   0.375   4.236 -0.1866  0.9164 -0.7038
  110MOL   H37542013   2.339   0.430   4.004 -2.6272 -3.5148 -0.7286
  110MOL   H37642014   2.514   0.394   3.984 -0.6454 -1.7150 -0.9222
  110MOL   H37742015   2.454   0.195   3.922  0.2404 -0.3206  0.1632
  110MOL   H37842016   2.471   0.167   4.102  1.1275  0.4664 -0.6076
  110MOL   H37942017   2.217   0.183   3.929 -0.9133 -2.6965 -0.0405
  110MOL   H38042018   2.283   0.049   4.017  1.2845 -0.4329  1.6170
  110MOL   H38142019   2.213   0.171   4.105 -1.5970  0.8817 -2.4403
  110MOL   H38242020   2.339   0.719   4.141 -0.6094  0.1403 -3.2053
  111MOL     C142021   1.558   4.608   3.121  0.3639  0.2631 -0.1676
  111MOL     C242022   1.482   4.532   3.017  0.5469  0.6422 -0.2685
  111MOL     C342023   1.546   4.409   2.954 -0.0331 -0.2483 -0.5011
  111MOL     C442024   1.680   4.442   2.882  0.1366 -0.0990  0.7790
  111MOL     C542025   1.738   4.335   2.794  0.3380  0.3504  0.1687
  111MOL     C642026   1.853   4.381   2.705  0.8998  0.5047 -0.1604
  111MOL     O742027   1.354   4.497   3.070 -0.1346  0.5196  0.4918
  111MOL     H842028   1.521   4.708   3.144  0.1360  0.4838 -1.4653
  111MOL     H942029   1.656   4.621   3.074  0.4631 -0.5239 -0.1941
  111MOL    H1042030   1.469   4.600   2.933 -2.2973  1.0255  0.4074
  111MOL    H1142031   1.558   4.325   3.022  0.6074 -1.7888 -2.4561
  111MOL    H1242032   1.471   4.388   2.878 -1.9114  1.2982  0.8690
  111MOL    H1342033   1.667   4.522   2.810  2.3439 -0.4990 -0.0833
  111MOL    H1442034   1.752   4.468   2.960 -0.5740  0.5482  1.2274
  111MOL    H1542035   1.784   4.255   2.852 -1.3339  0.4588  1.6858
  111MOL    H1642036   1.649   4.307   2.737  0.2703  0.3247  0.2860
  111MOL    H1742037   1.878   4.327   2.615  0.1889  1.0361 -0.6818
  111MOL    H1842038   1.834   4.486   2.683 -2.0040  0.0397 -0.1220
  111MOL    H1942039   1.945   4.379   2.764 -0.7776  2.4550  2.6754
  111MOL    H2042040   1.569   4.546   3.210  0.6500  0.6343  0.0571
  111MOL    C2142041   1.272   4.595   3.114  0.6663 -0.4805 -0.8195
  111MOL    C2242042   1.134   4.528   3.147 -0.6819 -0.5304 -0.0553
  111MOL    C2342043   1.055   4.607   3.255 -0.3263  0.3316  0.9706
  111MOL    C2442044   0.922   4.550   3.306 -0.1556  0.6569 -0.0801
  111MOL    C2542045   0.841   4.637   3.407  0.4654  0.2346 -0.1644
  111MOL    C2642046   0.709   4.572   3.445 -0.2803 -0.6560  0.6944
  111MOL    O2742047   1.055   4.532   3.035  0.0705  0.1074 -0.1357
  111MOL    H2842048   1.316   4.639   3.203 -1.6404  1.3638 -0.5178
  111MOL    H2942049   1.262   4.666   3.031  1.1262  1.4904  0.7856
  111MOL    H3042050   1.153   4.424   3.176 -0.1626 -0.3848  0.1332
  111MOL    H3142051   1.028   4.701   3.207 -1.4789 -0.3545  0.2547
  111MOL    H3242052   1.118   4.632   3.341 -0.8442 -1.2546  1.8292
  111MOL    H3342053   0.942   4.451   3.346  1.0122  0.4844 -1.0536
  111MOL    H3442054   0.851   4.543   3.223 -1.2149  2.5381  0.6342
  111MOL    H3542055   0.900   4.639   3.498 -0.2735  1.7212  0.2987
  111MOL    H3642056   0.823   4.739   3.371  0.5794 -0.0889 -1.1654
  111MOL    H3742057   0.658   4.621   3.529 -0.9981  1.1897 -0.7769
  111MOL    H3842058   0.723   4.468   3.474  0.2258 -0.6364  0.5190
  111MOL    H3942059   0.643   4.554   3.361 -1.9665 -1.5289  2.1630
  111MOL    C4042060   1.084   4.432   2.934 -0.1302 -0.1651 -0.2842
  111MOL    C4142061   0.963   4.395   2.855  0.3304  0.2574  0.0930
  111MOL    C4242062   0.946   4.243   2.859 -0.0293 -0.6493  0.4628
  111MOL    C4342063   0.865   4.185   2.975  0.2040  0.1958  0.0937
  111MOL    C4442064   0.811   4.048   2.958  0.3658  0.3079  0.1593
  111MOL    C4542065   0.912   3.944   2.920  0.6973  0.1800 -0.7274
  111MOL    O4642066   0.971   4.422   2.716  0.2423  0.6899 -0.3166
  111MOL    H4742067   1.128   4.348   2.988 -2.1139 -0.1384  1.4441
  111MOL    H4842068   1.160   4.480   2.872  0.7430 -0.5244  0.4926
  111MOL    H4942069   0.875   4.444   2.897 -1.1919 -2.9078  0.6923
  111MOL    H5042070   0.893   4.210   2.770  0.5062  0.1087 -0.1517
  111MOL    H5142071   1.044   4.195   2.862  0.0709 -0.3757  3.7753
  111MOL    H5242072   0.771   4.238   2.990  0.6443  1.4196 -1.3324
  111MOL    H5342073   0.923   4.187   3.067 -0.4811 -2.8444  0.6647
  111MOL    H5442074   0.778   4.020   3.058  1.0839  2.5679  1.0356
  111MOL    H5542075   0.729   4.044   2.886 -0.4276  1.9496  0.9676
  111MOL    H5642076   0.984   3.927   3.000 -0.9449  0.1315  0.7807
  111MOL    H5742077   0.877   3.843   2.896  2.6176 -1.5149  3.0938
  111MOL    H5842078   0.955   3.981   2.828  0.2514 -0.0064 -1.0135
  111MOL    C5942079   0.955   4.554   2.676  0.3543  0.9555  0.3844
  111MOL    C6042080   1.012   4.565   2.538 -0.2736 -0.1480  0.0946
  111MOL    C6142081   0.986   4.700   2.476 -0.1903  0.0009 -0.0843
  111MOL    C6242082   1.050   4.813   2.556  0.0835  0.5449  0.5937
  111MOL    C6342083   1.071   4.949   2.497  0.1000 -0.1122  0.1683
  111MOL    C6442084   0.941   5.015   2.431 -0.4782 -0.3635  0.0537
  111MOL    O6542085   1.148   4.533   2.560  0.0178 -0.4257 -0.2250
  111MOL    H6642086   1.010   4.624   2.740  1.1383  2.4547 -1.8451
  111MOL    H6742087   0.850   4.581   2.676 -0.1599 -0.9891 -1.5069
  111MOL    H6842088   0.955   4.492   2.481  0.0497 -0.8706  0.6771
  111MOL    H6942089   0.879   4.723   2.474  0.0455  1.2685  0.9623
  111MOL    H7042090   1.017   4.694   2.372 -2.2824 -1.3501 -0.6472
  111MOL    H7142091   1.146   4.788   2.600  0.9961 -1.4058 -2.3597
  111MOL    H7242092   0.972   4.827   2.631  0.4768  1.6382  0.8024
  111MOL    H7342093   1.155   4.938   2.429  0.8048  1.3380  0.7811
  111MOL    H7442094   1.106   5.017   2.574  2.7319  1.6943 -2.5169
  111MOL    H7542095   0.918   4.949   2.347 -0.8228  0.0389 -0.1687
  111MOL    H7642096   0.856   5.007   2.497  0.0031 -0.2950  0.6848
  111MOL    H7742097   0.952   5.104   2.368 -0.6551  0.2194  0.8425
  111MOL    C7842098   1.240   4.521   2.450 -0.0801  0.0667 -0.0760
  111MOL    C7942099   1.374   4.480   2.512 -0.0418 -0.8488 -0.0788
  111MOL    C8042100   1.486   4.540   2.421  0.2404 -0.0642 -0.6731
  111MOL    C8142101   1.635   4.496   2.453 -0.2592  0.3279 -0.2599
  111MOL    C8242102   1.734   4.552   2.340  0.4043 -0.0922  0.0149
  111MOL    C8342103   1.880   4.513   2.371  0.1077  0.4597 -0.5072
  111MOL    O8442104   1.394   4.335   2.504  0.2214  0.1025 -0.1074
  111MOL    H8542105   1.247   4.619   2.402  1.5575 -0.3145 -0.6591
  111MOL    H8642106   1.220   4.447   2.372 -0.4102  0.4882 -0.3940
  111MOL    H8742107   1.385   4.517   2.614  1.5045  0.4406 -0.7159
  111MOL    H8842108   1.473   4.505   2.318  2.5315 -1.7679 -0.4232
  111MOL    H8942109   1.477   4.649   2.419 -1.7428 -0.1943  0.3840
  111MOL    H9042110   1.651   4.390   2.475  0.0763  0.5190  0.4192
  111MOL    H9142111   1.671   4.542   2.545  0.8958 -0.7273 -0.1767
  111MOL    H9242112   1.712   4.508   2.243 -2.5638  3.4211 -1.0220
  111MOL    H9342113   1.728   4.661   2.339 -0.8887 -0.1627 -0.3979
  111MOL    H9442114   1.893   4.405   2.362 -0.7226  0.2979  0.1105
  111MOL    H9542115   1.918   4.550   2.466  0.1190  0.5791 -0.5588
  111MOL    H9642116   1.947   4.557   2.298 -0.6262  2.2847 -0.1260
  111MOL    C9742117   1.297   4.260   2.575 -1.0463 -1.1150  0.1200
  111MOL    C9842118   1.362   4.122   2.601 -0.3235  0.3165 -0.0990
  111MOL    C9942119   1.419   4.095   2.744 -0.1196 -0.0178  0.6293
  111MOL   C10042120   1.319   4.082   2.860 -0.9550  0.5483  0.1622
  111MOL   C10142121   1.376   4.034   2.993 -0.4417 -0.5055 -0.3506
  111MOL   C10242122   1.289   4.052   3.115 -0.0896  0.0128 -0.2006
  111MOL   O10342123   1.266   4.025   2.579 -0.1487 -0.1555 -0.2129
  111MOL   H10442124   1.207   4.231   2.522  0.1605 -1.5036 -1.7588
  111MOL   H10542125   1.262   4.303   2.669 -0.2179 -0.2712  0.0505
  111MOL   H10642126   1.443   4.110   2.529 -0.5399  0.7540 -0.4172
  111MOL   H10742127   1.494   4.172   2.765  1.4978 -1.3516 -0.1654
  111MOL   H10842128   1.485   4.009   2.745  0.7413  0.6268 -0.1300
  111MOL   H10942129   1.243   4.013   2.825  1.6729 -0.9046 -2.8578
  111MOL   H11042130   1.260   4.173   2.871 -1.4721  0.1141  1.0328
  111MOL   H11142131   1.477   4.076   3.002 -0.2459 -0.4510 -2.5186
  111MOL   H11242132   1.387   3.926   2.998 -0.6885 -0.6050 -1.7172
  111MOL   H11342133   1.297   4.149   3.164 -1.7325 -0.8617  1.8865
  111MOL   H11442134   1.188   4.019   3.091 -0.5023  1.9083 -1.2596
  111MOL   H11542135   1.334   3.988   3.190 -1.2369 -0.4768  0.0894
  111MOL   C11642136   1.239   3.974   2.451 -0.2446  0.1702  0.3973
  111MOL   C11742137   1.140   3.858   2.465  0.2726 -0.2698 -0.8743
  111MOL   C11842138   1.176   3.732   2.388 -0.2753  0.2204 -0.6312
  111MOL   C11942139   1.293   3.650   2.451  0.6429  0.5001  0.1409
  111MOL   C12042140   1.305   3.507   2.393 -0.6461  0.1877 -0.3422
  111MOL   C12142141   1.401   3.416   2.477  0.5817 -0.0167  0.2233
  111MOL   O12242142   1.005   3.895   2.428  0.0211  0.4049 -0.2377
  111MOL   H12342143   1.196   4.049   2.385  1.3341 -0.3657 -1.2637
  111MOL   H12442144   1.335   3.944   2.410 -0.3178  0.2492  0.1682
  111MOL   H12542145   1.133   3.827   2.569 -0.5497 -0.7090 -1.0534
  111MOL   H12642146   1.091   3.666   2.370 -1.1270  0.6172  1.7762
  111MOL   H12742147   1.202   3.755   2.285  0.6614  0.1188 -0.4139
  111MOL   H12842148   1.294   3.647   2.560  1.7877  0.4219  0.1310
  111MOL   H12942149   1.388   3.697   2.425  0.1051  1.7221  0.3490
  111MOL   H13042150   1.212   3.452   2.374  0.4960 -1.2400 -2.0242
  111MOL   H13142151   1.346   3.517   2.292  0.3448  2.1474  0.2402
  111MOL   H13242152   1.503   3.452   2.473  1.6784 -3.0870 -1.4479
  111MOL   H13342153   1.374   3.412   2.582  0.5834  1.7621  0.2924
  111MOL   H13442154   1.410   3.317   2.431 -0.0140 -0.1457  0.3798
  111MOL   C13542155   0.925   3.962   2.528  0.0996  0.1801  0.9756
  111MOL   C13642156   0.785   3.991   2.473  0.3239  0.4734  0.1404
  111MOL   C13742157   0.703   4.072   2.572  0.0015  0.9055  0.7485
  111MOL   C13842158   0.559   4.111   2.535 -1.1443 -0.1571  0.3639
  111MOL   C13942159   0.465   4.147   2.652 -0.5593 -0.4732  0.0556
  111MOL   C14042160   0.346   4.245   2.620 -0.1418  0.1100 -0.1657
  111MOL   O14142161   0.707   3.877   2.423  0.3870 -0.5531 -0.5345
  111MOL   H14242162   0.905   3.886   2.604 -3.3680 -0.8262 -0.8003
  111MOL   H14342163   0.971   4.057   2.554  1.4107  0.3737 -1.8473
  111MOL   H14442164   0.810   4.050   2.385  0.4431 -0.2557 -0.3242
  111MOL   H14542165   0.701   4.023   2.669 -0.2034  1.4041  0.9907
  111MOL   H14642166   0.750   4.167   2.595  0.5212  1.5432 -2.6220
  111MOL   H14742167   0.514   4.022   2.491  0.6435 -1.4368  1.0964
  111MOL   H14842168   0.567   4.192   2.462  0.7456 -1.0759 -0.4772
  111MOL   H14942169   0.525   4.194   2.729  0.8021  0.1603 -1.3677
  111MOL   H15042170   0.425   4.057   2.699 -2.1032  0.1513 -0.0363
  111MOL   H15142171   0.282   4.195   2.547 -0.1378  0.1555 -0.1998
  111MOL   H15242172   0.281   4.273   2.703  0.7870 -1.3379  1.0732
  111MOL   H15342173   0.374   4.338   2.571  0.5027  1.3803  2.5594
  111MOL   C15442174   0.729   3.848   2.287  0.0515  0.0086  0.3550
  111MOL   C15542175   0.643   3.723   2.252  0.0700  0.2217 -0.1382
  111MOL   C15642176   0.619   3.720   2.094  0.5351 -0.0520 -0.0686
  111MOL   C15742177   0.525   3.604   2.052 -0.8262  0.0266 -0.1445
  111MOL   C15842178   0.477   3.603   1.906 -0.8022 -0.1106  0.5236
  111MOL   C15942179   0.420   3.463   1.862  0.4487  0.2049  0.4411
  111MOL   O16042180   0.712   3.597   2.279  0.1827  0.7938 -0.2386
  111MOL   H16142181   0.833   3.820   2.271 -0.4699 -1.8600  0.0855
  111MOL   H16242182   0.711   3.932   2.221 -0.5432  1.1073  1.8854
  111MOL   H16342183   0.546   3.720   2.302 -0.4153 -0.9614 -1.1313
  111MOL   H16442184   0.709   3.713   2.034 -0.2591 -1.4410 -1.1150
  111MOL   H16542185   0.583   3.818   2.061  2.1548  0.0163 -1.7190
  111MOL   H16642186   0.441   3.605   2.121 -1.4009  1.2046 -0.8420
  111MOL   H16742187   0.576   3.510   2.071 -1.9772 -0.6645 -0.4163
  111MOL   H16842188   0.399   3.679   1.903  0.8935  1.6737  0.5380
  111MOL   H16942189   0.562   3.625   1.841  0.5742 -1.6089  1.7757
  111MOL   H17042190   0.388   3.464   1.757  1.7741  0.1001  0.0254
  111MOL   H17142191   0.347   3.416   1.927  0.7505 -2.9137 -1.3449
  111MOL   H17242192   0.499   3.389   1.849 -1.0012 -1.0485 -1.5285
  111MOL   C17342193   0.737   3.581   2.419 -0.0536  0.0482 -0.2877
  111MOL   C17442194   0.746   3.428   2.442  1.2150  0.6817 -0.3872
  111MOL   C17542195   0.817   3.406   2.572 -0.6480 -0.0153  0.6273
  111MOL   C17642196   0.847   3.259   2.599  0.3190  0.4480 -0.0050
  111MOL   C17742197   0.913   3.233   2.728 -0.0810  0.2148 -0.4389
  111MOL   C17842198   1.068   3.255   2.737 -0.2543 -0.0306 -0.4287
  111MOL   O17942199   0.622   3.354   2.460 -0.0235  0.2266 -0.2777
  111MOL   H18042200   0.664   3.633   2.480  0.4503 -0.2363  0.5593
  111MOL   H18142201   0.836   3.625   2.432 -0.0675  0.2364 -0.8115
  111MOL   H18242202   0.798   3.382   2.358 -1.3526  0.0048 -1.6362
  111MOL   H18342203   0.914   3.455   2.582  0.6757 -2.5349  0.5508
  111MOL   H18442204   0.745   3.441   2.645 -1.0028  1.6992 -0.5160
  111MOL   H18542205   0.751   3.209   2.614 -0.3207  1.9979  1.1423
  111MOL   H18642206   0.901   3.217   2.515  1.6194  0.0965  0.9827
  111MOL   H18742207   0.861   3.272   2.816 -0.9671 -0.0027 -0.8563
  111MOL   H18842208   0.921   3.125   2.743  2.0407  0.2803 -0.9000
  111MOL   H18942209   1.106   3.350   2.699  1.0166  0.1670  1.2552
  111MOL   H19042210   1.123   3.183   2.676 -0.0868 -0.1373 -0.1515
  111MOL   H19142211   1.107   3.244   2.838 -1.2170  1.1779  0.0803
  111MOL   C19242212   0.536   3.368   2.349 -0.2841  0.7480  0.7063
  111MOL   C19342213   0.388   3.338   2.380  0.5496 -0.0224  0.1952
  111MOL   C19442214   0.338   3.239   2.277 -0.4855 -1.1300 -0.5777
  111MOL   C19542215   0.375   3.098   2.324  0.7850 -0.4482  0.6026
  111MOL   C19642216   0.370   2.999   2.200  0.1423 -0.6793 -0.5130
  111MOL   C19742217   0.235   2.985   2.132  0.1513  0.1174  0.0604
  111MOL   O19842218   0.308   3.453   2.367 -0.5228 -0.0441 -0.5001
  111MOL   H19942219   0.528   3.472   2.319 -1.4888 -0.3352 -2.9615
  111MOL   H20042220   0.570   3.311   2.263  1.8080  0.5811  1.6182
  111MOL   H20142221   0.392   3.289   2.478 -0.6938 -1.8350 -0.6202
  111MOL   H20242222   0.230   3.238   2.274 -0.4899  0.4329 -1.3529
  111MOL   H20342223   0.370   3.268   2.177 -2.8447  1.5774 -0.6058
  111MOL   H20442224   0.309   3.068   2.405  2.6083 -1.6944  1.6698
  111MOL   H20542225   0.466   3.106   2.383  0.4252  1.1211  0.9582
  111MOL   H20642226   0.443   3.034   2.127 -0.8967  2.9374  0.0936
  111MOL   H20742227   0.405   2.901   2.232  3.5027  1.1496  1.7720
  111MOL   H20842228   0.162   2.929   2.190  1.6324 -0.6448  1.2266
  111MOL   H20942229   0.197   3.086   2.114  0.7509  0.4869  0.8530
  111MOL   H21042230   0.238   2.945   2.031  0.2381  3.1326 -1.1958
  111MOL   C21142231   0.305   3.531   2.486 -0.0835 -0.4707 -0.0787
  111MOL   C21242232   0.194   3.649   2.471  0.1000 -0.5011  0.0474
  111MOL   C21342233   0.235   3.761   2.561  0.3552 -0.3823 -0.5807
  111MOL   C21442234   0.160   3.893   2.521  0.0640 -0.0667  0.3689
  111MOL   C21542235   0.025   3.919   2.576  0.2487 -0.6002 -0.0333
  111MOL   C21642236   7.754   4.059   2.534 -0.3627  0.1518  0.8957
  111MOL   O21742237   0.058   3.620   2.493  0.1534  0.1861 -0.0194
  111MOL   H21842238   0.406   3.565   2.510 -0.3210 -0.8659  1.5889
  111MOL   H21942239   0.292   3.473   2.578  3.2200  0.4092  1.0326
  111MOL   H22042240   0.205   3.691   2.370 -1.0722 -0.2399  0.0195
  111MOL   H22142241   0.219   3.745   2.668  0.8893  1.2375 -0.2420
  111MOL   H22242242   0.340   3.788   2.557  0.3825 -0.2933  0.4432
  111MOL   H22342243   0.225   3.972   2.557  1.4685 -0.7211 -0.6891
  111MOL   H22442244   0.157   3.917   2.414 -2.7504 -0.7554  0.2380
  111MOL   H22542245   7.733   3.848   2.548 -2.0314  1.1437  1.6661
  111MOL   H22642246   0.024   3.912   2.685  2.1311 -1.9782 -0.0708
  111MOL   H22742247   0.018   4.152   2.562 -2.5810  1.7443 -0.2433
  111MOL   H22842248   7.659   4.080   2.584  1.6847  1.4213  4.4327
  111MOL   H22942249   7.745   4.054   2.425 -1.5105  3.4118  0.7799
  111MOL   C23042250   0.006   3.526   2.409  0.4090  0.1176  0.2340
  111MOL   C23142251   7.652   3.485   2.445 -0.0113 -0.2647 -0.5649
  111MOL   C23242252   7.555   3.603   2.464 -0.0639  0.6974  0.1958
  111MOL   C23342253   7.408   3.560   2.479  0.3185 -0.1302 -0.0339
  111MOL   C23442254   7.309   3.676   2.473  0.2349  0.1208  0.8895
  111MOL   C23542255   7.168   3.631   2.504 -0.5172 -0.4114 -0.2489
  111MOL   O23642256   7.648   3.410   2.568 -0.5999  0.1918 -0.3092
  111MOL   H23742257   0.021   3.555   2.305 -0.3086  0.9790  0.3657
  111MOL   H23842258   0.060   3.432   2.423 -0.4583 -0.3410  0.5615
  111MOL   H23942259   7.614   3.419   2.367 -0.0736 -0.9940  0.0787
  111MOL   H24042260   7.567   3.677   2.384 -1.4642  3.7047  2.6624
  111MOL   H24142261   7.581   3.661   2.553  2.2833  3.0966 -1.9500
  111MOL   H24242262   7.410   3.512   2.577  1.7551  1.2932  0.6479
  111MOL   H24342263   7.384   3.486   2.402 -3.2506  0.6064  0.2589
  111MOL   H24442264   7.337   3.748   2.550 -0.4586  2.0921 -0.6464
  111MOL   H24542265   7.307   3.716   2.371 -2.1254 -1.5689  0.2342
  111MOL   H24642266   7.100   3.715   2.493 -1.1956 -0.6139  2.1873
  111MOL   H24742267   7.161   3.595   2.607  0.5775  1.3165  0.4395
  111MOL   H24842268   7.132   3.555   2.433 -2.3628  0.3405 -0.1519
  111MOL   C24942269   7.684   3.270   2.553  0.3951 -0.3295 -0.8169
  111MOL   C25042270   7.633   3.181   2.665  0.1314 -0.0354 -0.3250
  111MOL   C25142271   7.715   3.049   2.664  0.1423 -0.2566  0.5279
  111MOL   C25242272   7.701   2.974   2.797  0.0144  0.3703 -0.7675
  111MOL   C25342273   0.003   2.845   2.800 -0.2829 -0.2136  0.4446
  111MOL   C25442274   0.155   2.862   2.778  0.4781 -0.4586 -0.3649
  111MOL   O25542275   7.497   3.141   2.641 -0.2683 -0.1577 -0.4544
  111MOL   H25642276   7.659   3.230   2.455 -1.8330 -3.9279  1.0965
  111MOL   H25742277   0.006   3.280   2.566  0.1475  0.3785  0.7603
  111MOL   H25842278   7.652   3.228   2.761  0.3243 -1.3399  0.2799
  111MOL   H25942279   7.678   2.988   2.582  0.7950 -0.3213  0.2791
  111MOL   H26042280   0.036   3.069   2.654 -0.2926  1.2813 -1.4285
  111MOL   H26142281   7.734   3.037   2.880  1.2561 -0.7208 -0.4169
  111MOL   H26242282   7.602   2.939   2.826  0.8517 -0.1612  1.5187
  111MOL   H26342283   7.763   2.798   2.895  1.1752 -1.9805 -0.0244
  111MOL   H26442284   7.759   2.778   2.719  2.5082  0.0660 -0.8619
  111MOL   H26542285   0.184   2.960   2.815  1.3004 -1.0029  0.4555
  111MOL   H26642286   0.172   2.866   2.670  0.3474  2.6787 -0.3106
  111MOL   H26742287   0.209   2.779   2.823  0.1285 -0.1311  0.6683
  111MOL   C26842288   7.389   3.206   2.710  0.1959 -0.0484  0.6616
  111MOL   C26942289   7.265   3.169   2.627  0.2059 -0.4611  0.6532
  111MOL   C27042290   7.154   3.270   2.642 -0.1503 -0.3225  0.9414
  111MOL   C27142291   7.016   3.231   2.580  0.1088 -0.8498  0.3033
  111MOL   C27242292   6.920   3.346   2.571  1.0532  0.2953  0.0040
  111MOL   C27342293   6.773   3.301   2.581  0.4123  0.0040  0.2428
  111MOL   O27442294   7.219   3.042   2.669 -0.2834 -0.3523 -0.2076
  111MOL   H27542295   7.399   3.315   2.715 -1.1360  0.2281 -1.8107
  111MOL   H27642296   7.390   3.169   2.812  1.2886  0.2466  0.7645
  111MOL   H27742297   7.292   3.160   2.522 -1.2431 -0.1015  0.2382
  111MOL   H27842298   7.146   3.282   2.750 -0.3314  2.7004  0.6312
  111MOL   H27942299   7.185   3.365   2.599 -1.8043 -0.4108 -0.5371
  111MOL   H28042300   7.026   3.180   2.484 -0.8347 -0.1552 -0.1722
  111MOL   H28142301   6.965   3.166   2.651  0.0574 -1.2289 -0.0819
  111MOL   H28242302   6.940   3.415   2.652  1.7622 -2.2373  2.0508
  111MOL   H28342303   6.945   3.402   2.481  0.2004 -0.3651 -0.6662
  111MOL   H28442304   6.732   3.244   2.497  0.9000  0.9429 -0.6590
  111MOL   H28542305   6.752   3.238   2.667  1.4705 -2.7244 -1.4205
  111MOL   H28642306   6.709   3.389   2.580  0.2129 -0.1472 -0.6151
  111MOL   C28742307   7.296   2.928   2.638 -0.6627 -0.2120  0.2902
  111MOL   C28842308   7.206   2.801   2.648 -0.0740 -0.7076  0.2043
  111MOL   C28942309   7.291   2.680   2.687  0.0306  0.0403 -0.1913
  111MOL   C29042310   7.207   2.565   2.733  0.3283  0.5318 -0.6213
  111MOL   C29142311   7.157   2.570   2.876  0.0826  0.8522  0.5917
  111MOL   C29242312   7.090   2.441   2.914 -1.1000  0.1234  0.0327
  111MOL   O29342313   7.142   2.770   2.526 -0.0411  0.4095  0.0871
  111MOL   H29442314   7.383   2.934   2.704 -0.5974  1.4267  0.0768
  111MOL   H29542315   7.333   2.934   2.536  0.7541  1.8767  0.8838
  111MOL   H29642316   7.135   2.822   2.728  0.6110  0.1768  0.5735
  111MOL   H29742317   7.347   2.662   2.595  0.0127  1.0273 -0.4031
  111MOL   H29842318   7.361   2.698   2.768  0.7987  1.8685 -1.2155
  111MOL   H29942319   7.124   2.541   2.665  0.7049  1.4613 -1.4244
  111MOL   H30042320   7.263   2.474   2.714  0.1415  0.4039 -0.5638
  111MOL   H30142321   7.074   2.641   2.882 -2.0750 -1.3589 -1.8695
  111MOL   H30242322   7.229   2.601   2.952 -0.0836  0.0233  1.0945
  111MOL   H30342323   7.041   2.435   3.011 -0.1198 -0.2834  0.5044
  111MOL   H30442324   7.019   2.410   2.837  0.7183 -0.9066 -1.2533
  111MOL   H30542325   7.169   2.366   2.911 -0.0328  1.0947  2.8054
  111MOL   C30642326   7.041   2.865   2.480  0.2420 -0.1404 -0.4401
  111MOL   C30742327   6.924   2.794   2.401 -0.0334 -0.4787 -0.3112
  111MOL   C30842328   6.851   2.889   2.310 -0.0007  0.6373 -0.2172
  111MOL   C30942329   6.734   2.835   2.218 -0.0186  0.1383  0.7083
  111MOL   C31042330   6.676   2.947   2.128  0.6280  0.5967 -0.3006
  111MOL   C31142331   6.577   2.883   2.026  0.2015 -0.0210  0.3740
  111MOL   O31242332   6.832   2.728   2.491 -0.1831  0.2918 -0.4631
  111MOL   H31342333   6.999   2.911   2.569 -0.1490 -0.6851 -0.3346
  111MOL   H31442334   7.083   2.946   2.420  1.0409  0.0760  0.4063
  111MOL   H31542335   6.974   2.722   2.337  1.0175 -0.0033 -0.0464
  111MOL   H31642336   6.912   2.948   2.242 -1.1661 -1.0117 -2.7696
  111MOL   H31742337   6.807   2.968   2.371 -0.0580 -0.2961  0.9682
  111MOL   H31842338   6.760   2.750   2.155  1.0824 -0.3022  1.7262
  111MOL   H31942339   6.647   2.813   2.280 -1.1506  2.4378 -0.0260
  111MOL   H32042340   6.752   3.002   2.072  2.7162 -2.3045 -0.4618
  111MOL   H32142341   6.608   3.021   2.171 -1.2665 -1.1028 -0.3298
  111MOL   H32242342   6.617   2.820   1.946  1.0857 -0.3010  1.0215
  111MOL   H32342343   6.490   2.832   2.067 -0.4867  0.5128 -0.4169
  111MOL   H32442344   6.532   2.969   1.977  0.6780 -0.0982 -0.2052
  111MOL   C32542345   6.900   2.622   2.549  0.4242 -0.1973  0.3240
  111MOL   C32642346   6.796   2.517   2.603  0.2565  0.0915  0.1329
  111MOL   C32742347   6.757   2.544   2.746 -0.0223 -0.4829  0.0421
  111MOL   C32842348   6.658   2.443   2.802 -0.7602  0.2882 -0.1248
  111MOL   C32942349   6.628   2.468   2.950  0.6029  0.0746  0.6165
  111MOL   C33042350   6.535   2.591   2.962  0.4404 -0.3771  0.1742
  111MOL   O33142351   6.872   2.396   2.612 -0.4471  0.1713  0.6276
  111MOL   H33242352   6.955   2.668   2.631  0.7891 -0.2827  0.1254
  111MOL   H33342353   6.972   2.576   2.481 -0.2917  0.2238 -0.7321
  111MOL   H33442354   6.710   2.510   2.536 -0.2708  0.1249  0.8079
  111MOL   H33542355   6.849   2.543   2.804 -0.9942 -1.6706  1.6086
  111MOL   H33642356   6.699   2.636   2.740  1.2315  0.3020 -0.2824
  111MOL   H33742357   6.570   2.436   2.738 -0.4494  0.2877 -0.5454
  111MOL   H33842358   6.693   2.340   2.795  2.8282  1.3910  0.8278
  111MOL   H33942359   6.582   2.375   2.984  0.7052 -0.7819 -1.4966
  111MOL   H34042360   6.726   2.476   2.997  0.8262  2.2159 -0.1402
  111MOL   H34142361   6.482   2.578   3.056  0.9885 -1.0448  0.3965
  111MOL   H34242362   6.598   2.680   2.959 -1.1690  0.8172  0.6937
  111MOL   H34342363   6.457   2.590   2.886  1.8534 -1.7211 -1.2907
  111MOL   C34442364   6.849   2.305   2.511  0.5213  0.3736 -0.6373
  111MOL   C34542365   6.926   2.178   2.538 -0.3041 -0.1874  0.3656
  111MOL   C34642366   6.881   2.054   2.456  0.4828  0.1673  0.2348
  111MOL   C34742367   6.950   1.926   2.492 -0.1635  0.2330 -0.3148
  111MOL   C34842368   6.895   1.796   2.417 -0.5498  0.2662 -0.6371
  111MOL   C34942369   6.761   1.756   2.463 -0.7495 -0.0002  0.2479
  111MOL   O35042370   7.060   2.211   2.504  0.3033  0.2836 -0.7003
  111MOL   H35142371   6.874   2.350   2.415 -1.6004  0.4663 -1.1589
  111MOL   H35242372   6.745   2.273   2.515  0.5829  0.3262  0.8562
  111MOL   H35342373   6.916   2.150   2.643  2.1936  1.2180  1.0098
  111MOL   H35442374   6.887   2.068   2.348  1.7317  0.5623  0.3380
  111MOL   H35542375   6.776   2.048   2.483  0.8406 -1.9983  1.2781
  111MOL   H35642376   6.938   1.913   2.600  1.2207 -0.8540 -0.2853
  111MOL   H35742377   7.058   1.937   2.482  0.2171 -1.1077  1.8759
  111MOL   H35842378   6.968   1.718   2.442 -0.4041  0.6644  0.2073
  111MOL   H35942379   6.892   1.814   2.310 -0.2663  0.2291 -0.6529
  111MOL   H36042380   6.685   1.825   2.425 -0.3795 -0.8929 -2.1770
  111MOL   H36142381   6.748   1.745   2.571  2.9424  0.4803  0.7808
  111MOL   H36242382   6.733   1.660   2.420  1.9322 -0.3669 -0.7502
  111MOL   C36342383   7.151   2.207   2.612 -0.1439 -0.0527  0.6474
  111MOL   C36442384   7.298   2.213   2.549  0.4360  0.6816 -0.1477
  111MOL   C36542385   7.336   2.089   2.456 -0.1549 -0.6259  1.1123
  111MOL   C36642386   7.355   1.969   2.542  0.0145  0.4738 -0.0067
  111MOL   C36742387   7.416   1.857   2.454  0.1599 -0.1979  0.0581
  111MOL   C36842388   7.325   1.810   2.344 -0.7619  0.3940 -0.3690
  111MOL   O36942389   7.302   2.342   2.492  0.0611  0.0353 -0.6098
  111MOL   H37042390   7.146   2.114   2.669 -2.6307  0.0577  0.6512
  111MOL   H37142391   7.128   2.296   2.672  0.4293 -1.1701  2.5777
  111MOL   H37242392   7.371   2.214   2.630  0.6806 -0.8038 -0.3457
  111MOL   H37342393   7.249   2.083   2.391 -2.3171  0.6136  3.7783
  111MOL   H37442394   7.427   2.125   2.407  0.1656 -2.5814  0.2529
  111MOL   H37542395   7.425   2.002   2.619 -0.9568 -1.5084  1.7928
  111MOL   H37642396   7.266   1.929   2.589 -0.2011  3.0955  1.9511
  111MOL   H37742397   7.511   1.889   2.412  0.6902  0.8054  1.9837
  111MOL   H37842398   7.439   1.771   2.518 -1.7302 -1.8444 -1.3823
  111MOL   H37942399   7.236   1.765   2.388  0.1645 -1.6940 -0.5689
  111MOL   H38042400   7.296   1.894   2.281  1.4901  1.1738 -0.4354
  111MOL   H38142401   7.375   1.746   2.272  0.4030 -0.1280  0.8828
  111MOL   H38242402   7.223   2.342   2.440 -0.1842 -0.4260 -0.2391
  112MOL     C142403   1.334   0.274   6.575  0.1962 -0.6870  0.9399
  112MOL     C242404   1.378   0.147   6.495  0.0001  0.6486  0.0816
  112MOL     C342405   1.252   0.056   6.451  0.3626 -0.0411  0.0025
  112MOL     C442406   1.147   0.136   6.374  0.4238 -0.1694  0.6943
  112MOL     C542407   1.036   0.038   6.320  0.2194 -0.4079 -0.2871
  112MOL     C642408   0.928   0.112   6.239  1.0483  0.3365  0.3909
  112MOL     O742409   1.455   0.199   6.384  0.7867  0.0111  0.3235
  112MOL     H842410   1.416   0.340   6.601  0.0393 -0.6660  1.3892
  112MOL     H942411   1.281   0.259   6.669 -1.0119  1.8798  0.7107
  112MOL    H1042412   1.434   0.085   6.564 -2.0331 -0.1498  1.0776
  112MOL    H1142413   1.279   7.752   6.395  1.2944 -0.7991  1.6242
  112MOL    H1242414   1.203   0.015   6.539 -0.7567  0.4185 -0.4051
  112MOL    H1342415   1.098   0.207   6.440 -1.6113 -1.9651  1.1829
  112MOL    H1442416   1.190   0.185   6.287 -0.6483 -1.0834 -0.3762
  112MOL    H1542417   1.079   7.749   6.254  0.3445 -0.7659  0.1979
  112MOL    H1642418   0.997   7.773   6.408 -2.0566  1.3660 -0.2322
  112MOL    H1742419   0.862   0.052   6.176  3.1064 -1.1113 -0.4324
  112MOL    H1842420   0.869   0.156   6.320  1.1726  2.3933 -0.6067
  112MOL    H1942421   0.985   0.189   6.188  2.7056 -1.1056  0.0340
  112MOL    H2042422   1.275   0.340   6.511 -0.0876 -0.4840  1.4089
  112MOL    C2142423   1.596   0.205   6.406 -0.4224  0.0531  0.1603
  112MOL    C2242424   1.657   0.302   6.300  0.6206 -0.1394 -0.0260
  112MOL    C2342425   1.792   0.357   6.338 -0.3112  0.4506  0.1525
  112MOL    C2442426   1.818   0.496   6.281 -0.7340  0.6554 -0.3303
  112MOL    C2542427   1.948   0.565   6.326  0.4626  0.1208 -0.5984
  112MOL    C2642428   1.956   0.706   6.264 -0.5408 -0.3577 -0.1361
  112MOL    O2742429   1.670   0.232   6.178  0.0177  0.1071  0.1804
  112MOL    H2842430   1.607   0.231   6.511  0.6866 -0.2531  0.1256
  112MOL    H2942431   1.649   0.110   6.396  0.3069  0.3347  1.2255
  112MOL    H3042432   1.586   0.383   6.286 -0.2233 -0.8375  0.1433
  112MOL    H3142433   1.876   0.296   6.306 -0.7947  0.0045 -0.2729
  112MOL    H3242434   1.803   0.348   6.446 -0.1691 -2.3407 -0.0560
  112MOL    H3342435   1.733   0.560   6.306  0.4150  1.4407  1.7289
  112MOL    H3442436   1.817   0.493   6.172 -0.7549  0.6481 -0.3292
  112MOL    H3542437   1.941   0.582   6.433  2.6787 -0.8551 -0.2740
  112MOL    H3642438   2.040   0.511   6.304 -0.5928 -0.7395 -3.1218
  112MOL    H3742439   1.961   0.705   6.155 -3.0187 -1.3295 -0.2625
  112MOL    H3842440   2.046   0.758   6.296 -0.6039 -0.6086  0.4520
  112MOL    H3942441   1.877   0.773   6.297  0.5056  0.1614  1.3516
  112MOL    C4042442   1.558   0.237   6.086 -0.3037  0.3294 -0.1616
  112MOL    C4142443   1.595   0.170   5.954  0.5733  0.0705 -0.0959
  112MOL    C4242444   1.539   0.249   5.830  0.1502  0.4001  0.4677
  112MOL    C4342445   1.593   0.199   5.701  0.4563  1.0144 -0.7018
  112MOL    C4442446   1.508   0.234   5.575  0.4356  1.1915  0.3140
  112MOL    C4542447   1.509   0.392   5.555  0.0342 -0.7457  0.6883
  112MOL    O4642448   1.530   0.047   5.959 -0.7978  0.1029 -0.6148
  112MOL    H4742449   1.536   0.341   6.063  0.4330  0.4259 -0.4633
  112MOL    H4842450   1.471   0.182   6.120  0.4016 -2.6665 -2.9518
  112MOL    H4942451   1.702   0.162   5.935  0.1981 -2.8681 -1.3469
  112MOL    H5042452   1.433   0.224   5.833  0.4144 -1.6239 -3.7168
  112MOL    H5142453   1.552   0.357   5.834  0.7972  0.3336  0.2272
  112MOL    H5242454   1.609   0.092   5.714 -3.2361  0.4603 -0.0996
  112MOL    H5342455   1.695   0.235   5.697  0.9586  0.0109  2.1966
  112MOL    H5442456   1.535   0.179   5.484 -2.1432  2.3957 -1.2239
  112MOL    H5542457   1.405   0.202   5.584  1.3994 -2.4096 -0.5768
  112MOL    H5642458   1.466   0.448   5.638  2.8650 -1.2992  2.6288
  112MOL    H5742459   1.612   0.428   5.554 -0.2238  0.1122  2.3275
  112MOL    H5842460   1.450   0.422   5.469  1.8581  1.1942  0.0779
  112MOL    C5942461   1.605   7.734   6.039 -1.2922  0.1411  0.2568
  112MOL    C6042462   1.686   7.636   5.954  0.3266  0.2493 -0.1770
  112MOL    C6142463   1.786   7.562   6.030  0.0903  0.0673  0.1423
  112MOL    C6242464   1.895   7.498   5.938 -0.4953 -0.5973 -0.2387
  112MOL    C6342465   2.005   7.413   6.001 -0.7116  0.4003  0.1046
  112MOL    C6442466   2.111   7.501   6.073 -0.2774  0.1042  0.2004
  112MOL    O6542467   1.616   7.531   5.886 -0.4119  0.4744 -0.3031
  112MOL    H6642468   1.531   7.677   6.096  1.3075 -0.3552  3.2739
  112MOL    H6742469   1.670   7.783   6.111 -0.3662 -0.1804 -0.3475
  112MOL    H6842470   1.749   7.690   5.883  0.4006  0.8458  0.3335
  112MOL    H6942471   1.735   7.488   6.092 -1.8558  1.6586  0.4741
  112MOL    H7042472   1.842   7.627   6.097  0.5534  0.3325 -0.4959
  112MOL    H7142473   1.935   7.568   5.865  0.4950  0.4597  1.2680
  112MOL    H7242474   1.836   7.425   5.883  0.3203 -1.8518  0.5087
  112MOL    H7342475   2.064   7.360   5.927  1.1806 -1.4170  2.8294
  112MOL    H7442476   1.960   7.331   6.056  1.6189 -1.6610 -0.9820
  112MOL    H7542477   2.181   7.557   6.012 -0.0426 -0.1084  0.2737
  112MOL    H7642478   2.065   7.576   6.139 -0.5242 -0.9762  1.2728
  112MOL    H7742479   2.164   7.439   6.146 -2.2424 -1.1321  0.5953
  112MOL    C7842480   1.604   7.549   5.745  0.7238  0.4532  0.4451
  112MOL    C7942481   1.504   7.455   5.671 -0.2220 -0.6484 -0.6129
  112MOL    C8042482   1.519   7.306   5.714 -0.3728  0.2003 -1.0394
  112MOL    C8142483   1.400   7.232   5.664  0.3312 -0.5577  0.2812
  112MOL    C8242484   1.416   7.079   5.692  0.2691 -0.5142  0.5724
  112MOL    C8342485   1.299   6.999   5.636  0.2811 -0.3121 -0.8321
  112MOL    O8442486   1.536   7.468   5.531  0.2661 -0.0360  0.9406
  112MOL    H8542487   1.707   7.526   5.716 -0.1566 -2.4412 -0.5980
  112MOL    H8642488   1.578   7.654   5.728 -0.6623 -0.0919 -0.8816
  112MOL    H8742489   1.402   7.479   5.700 -0.2925 -0.4650 -1.0185
  112MOL    H8842490   1.610   7.255   5.681 -0.3553  0.4371 -1.3659
  112MOL    H8942491   1.525   7.309   5.823  0.4319 -1.3755 -1.0237
  112MOL    H9042492   1.381   7.240   5.557 -0.3400  3.0091  0.6016
  112MOL    H9142493   1.306   7.265   5.710  0.4224 -2.6770  2.0625
  112MOL    H9242494   1.505   7.040   5.641 -0.7898 -1.1407 -0.8303
  112MOL    H9342495   1.413   7.057   5.798  0.7678  0.6750  0.8358
  112MOL    H9442496   1.202   7.023   5.680  0.8027  0.7590 -0.2443
  112MOL    H9542497   1.311   6.893   5.659  0.1357  0.1935  1.6140
  112MOL    H9642498   1.285   7.014   5.529 -0.2624 -1.3324 -0.9150
  112MOL    C9742499   1.472   7.583   5.480  0.3517 -0.1356 -0.8478
  112MOL    C9842500   1.555   7.660   5.373 -0.2311 -0.6402 -0.2791
  112MOL    C9942501   1.450   7.742   5.291  0.3916 -0.0128 -0.3322
  112MOL   C10042502   1.515   0.043   5.179 -0.4595  0.1137 -0.5846
  112MOL   C10142503   1.410   0.114   5.097  0.3873  0.1834  0.1449
  112MOL   C10242504   1.472   0.191   4.980 -0.3864 -0.1181  0.8226
  112MOL   O10342505   1.635   7.756   5.435  0.6967  0.3623 -0.3593
  112MOL   H10442506   1.451   7.655   5.559  0.5858 -2.5359  1.4498
  112MOL   H10542507   1.376   7.549   5.440 -0.9994  1.1981  1.1586
  112MOL   H10642508   1.605   7.592   5.304 -1.3546 -0.2760 -1.4740
  112MOL   H10742509   1.395   0.016   5.363 -1.7821  1.8635 -3.4198
  112MOL   H10842510   1.372   7.677   5.249 -0.9181  0.7580  0.8600
  112MOL   H10942511   1.555   7.769   5.096 -0.5966  0.7150 -1.0852
  112MOL   H11042512   1.596   0.111   5.205  0.2135 -1.3876  1.4724
  112MOL   H11142513   1.355   0.190   5.151  2.2016  0.7294  1.2721
  112MOL   H11242514   1.335   0.047   5.055 -0.5395  0.2210  1.7077
  112MOL   H11342515   1.399   0.256   4.931 -0.6704 -1.6579 -0.8174
  112MOL   H11442516   1.555   0.255   5.011  0.0318  0.5211 -1.5042
  112MOL   H11542517   1.512   0.119   4.909 -1.7550 -1.9336  1.8461
  112MOL   C11642518   1.764   7.707   5.454 -0.9199  0.3033 -0.5461
  112MOL   C11742519   1.867   0.030   5.474 -0.4408  0.7966 -0.5165
  112MOL   C11842520   1.880   0.107   5.349 -0.1649  0.0399 -0.1051
  112MOL   C11942521   1.987   0.229   5.362  0.0395  0.2998 -0.0074
  112MOL   C12042522   2.014   0.294   5.227  1.2552 -0.1850  0.4244
  112MOL   C12142523   2.118   0.408   5.234 -0.0379  0.1995 -0.6190
  112MOL   O12242524   2.000   7.764   5.505  0.7894  0.0576  0.0749
  112MOL   H12342525   1.768   7.638   5.538  0.8655  0.9286 -0.1052
  112MOL   H12442526   1.790   7.657   5.360  0.8173  2.5475 -1.3042
  112MOL   H12542527   1.835   0.096   5.555 -1.3053  2.0710 -1.8771
  112MOL   H12642528   1.913   0.055   5.259  0.6763 -0.3044  0.3921
  112MOL   H12742529   1.780   0.145   5.329 -1.1125 -0.6033  3.1619
  112MOL   H12842530   2.084   0.183   5.383  0.0208  0.8589  1.3140
  112MOL   H12942531   1.962   0.305   5.436  1.5004 -1.2151  2.0800
  112MOL   H13042532   2.027   0.218   5.150  1.0351 -1.2340  1.4049
  112MOL   H13142533   1.925   0.339   5.181  1.4477 -0.8632 -0.6348
  112MOL   H13242534   2.219   0.366   5.242  0.4677  1.3240 -0.9218
  112MOL   H13342535   2.121   0.477   5.149 -0.6352 -1.3934 -1.9547
  112MOL   H13442536   2.099   0.471   5.321 -1.4042  2.3128 -2.4003
  112MOL   C13542537   2.006   7.766   5.650 -0.4309 -0.6742 -0.6040
  112MOL   C13642538   2.100   0.089   5.718 -0.6122 -0.0664  0.3315
  112MOL   C13742539   2.250   0.062   5.670  0.2315  0.3917  1.2340
  112MOL   C13842540   2.359   0.144   5.744 -0.0227 -0.5629 -0.6682
  112MOL   C13942541   2.505   0.123   5.688 -0.5578 -0.5310 -0.1278
  112MOL   C14042542   2.570   7.783   5.751 -0.2726  0.8872 -0.1977
  112MOL   O14142543   2.105   0.060   5.862  0.3079 -0.0007  0.3683
  112MOL   H14242544   1.912   7.766   5.705 -0.5702 -1.4105 -0.8404
  112MOL   H14342545   2.049   7.669   5.677 -0.4938 -0.9965 -1.6343
  112MOL   H14442546   2.074   0.192   5.694  0.0852  0.6182  2.3904
  112MOL   H14542547   2.276   7.742   5.666  1.0609  0.6143  0.5826
  112MOL   H14642548   2.250   0.088   5.564 -0.9214 -2.4829  0.4701
  112MOL   H14742549   2.349   0.112   5.848 -2.0019  0.7799 -0.4074
  112MOL   H14842550   2.330   0.250   5.740  2.2811  0.1113 -0.0158
  112MOL   H14942551   2.562   0.212   5.716  0.2248 -0.1013 -2.8796
  112MOL   H15042552   2.502   0.123   5.579 -2.5813  1.3085 -0.1023
  112MOL   H15142553   2.676   7.768   5.728 -0.3591 -0.2536  0.1206
  112MOL   H15242554   2.568   7.766   5.858 -1.4927 -2.1439 -0.6465
  112MOL   H15342555   2.524   7.690   5.720 -0.0707  0.9188 -0.5945
  112MOL   C15442556   1.998   0.110   5.941  0.7570  0.4196 -0.0656
  112MOL   C15542557   2.020   0.258   5.969  0.0135  0.2890  0.0129
  112MOL   C15642558   2.158   0.295   6.030  0.3033  0.3778 -0.1790
  112MOL   C15742559   2.176   0.222   6.172  0.0511  0.1043  0.7765
  112MOL   C15842560   2.286   0.279   6.268 -0.0634  0.6873  0.1969
  112MOL   C15942561   2.423   0.247   6.221 -0.3551 -0.7619  0.0264
  112MOL   O16042562   1.993   0.338   5.852  0.1638 -0.1142 -0.6857
  112MOL   H16142563   2.008   0.061   6.038  1.5776 -3.5617 -2.0470
  112MOL   H16242564   1.901   0.083   5.901  1.3183 -1.5789 -0.1694
  112MOL   H16342565   1.945   0.284   6.044 -3.6436 -3.1217 -2.2587
  112MOL   H16442566   2.175   0.402   6.034  0.1021  0.3613  1.5745
  112MOL   H16542567   2.229   0.258   5.956  0.0157  1.8056 -1.1817
  112MOL   H16642568   2.196   0.116   6.157  0.4882  0.7049 -3.2510
  112MOL   H16742569   2.077   0.214   6.218 -0.2965  1.2665  0.2437
  112MOL   H16842570   2.270   0.387   6.260  1.5261  0.8070 -1.8329
  112MOL   H16942571   2.283   0.239   6.369  0.7662 -1.7097 -0.6883
  112MOL   H17042572   2.502   0.283   6.287 -0.4161 -2.5134  1.0810
  112MOL   H17142573   2.445   0.295   6.125  1.7033 -1.4334  0.1401
  112MOL   H17242574   2.436   0.142   6.198  0.3570 -1.0710  1.7472
  112MOL   C17342575   1.954   0.477   5.868  0.3259 -0.0172  0.0325
  112MOL   C17442576   1.967   0.552   5.730  0.0532  0.4527  0.1362
  112MOL   C17542577   1.880   0.682   5.737  0.7668 -0.4640 -0.3970
  112MOL   C17642578   1.891   0.779   5.616  0.1876  0.2492 -0.4278
  112MOL   C17742579   1.843   0.724   5.480  0.6125  0.4099  0.9517
  112MOL   C17842580   1.869   0.815   5.360 -0.8001 -0.1667  0.5619
  112MOL   O17942581   2.102   0.588   5.706  0.7097  0.9618  0.6166
  112MOL   H18042582   2.007   0.527   5.950  0.8071 -0.2147 -0.1569
  112MOL   H18142583   1.847   0.475   5.891  0.1167 -1.9614 -1.0432
  112MOL   H18242584   1.920   0.490   5.654 -1.3396  0.7254  0.7498
  112MOL   H18342585   1.774   0.663   5.756  0.7879  0.0064  0.1926
  112MOL   H18442586   1.923   0.740   5.819  1.6746  0.3472 -1.4314
  112MOL   H18542587   1.833   0.870   5.630  0.4697  0.4052 -0.2527
  112MOL   H18642588   1.993   0.818   5.616 -0.1676  1.2258  1.5076
  112MOL   H18742589   1.901   0.635   5.457 -1.5526 -0.7543 -0.1055
  112MOL   H18842590   1.735   0.712   5.490  0.6435  0.0842  0.8843
  112MOL   H18942591   1.830   0.765   5.272 -0.2638 -1.0985  0.8525
  112MOL   H19042592   1.967   0.850   5.330 -1.9431  1.5079 -1.4177
  112MOL   H19142593   1.817   0.910   5.379 -1.4493  0.1150 -2.2690
  112MOL   C19242594   2.178   0.479   5.653  0.6233  0.2082  0.8354
  112MOL   C19342595   2.325   0.527   5.633  0.1011  0.2822 -0.3429
  112MOL   C19442596   2.378   0.433   5.518  0.1585 -0.1979  0.5658
  112MOL   C19542597   2.533   0.446   5.496 -0.3841  0.5555  0.6624
  112MOL   C19642598   2.587   0.379   5.362 -0.0727 -0.6599 -0.5748
  112MOL   C19742599   2.705   0.453   5.301 -1.0472  0.6881 -0.3573
  112MOL   O19842600   2.411   0.508   5.749  0.8070 -0.3438  0.3631
  112MOL   H19942601   2.167   0.392   5.717 -2.9671 -1.1953 -1.5562
  112MOL   H20042602   2.136   0.456   5.555  0.4114  1.0499  0.7241
  112MOL   H20142603   2.334   0.630   5.599 -0.7230  0.0979 -1.1408
  112MOL   H20242604   2.366   0.328   5.545  2.1982 -0.6524 -0.1570
  112MOL   H20342605   2.326   0.453   5.425 -1.0583 -0.7066  1.1329
  112MOL   H20442606   2.595   0.403   5.575 -0.5030  1.0496  1.0280
  112MOL   H20542607   2.558   0.552   5.502 -0.1823  0.4873  1.0215
  112MOL   H20642608   2.624   0.280   5.387 -2.1220 -1.0726  0.9774
  112MOL   H20742609   2.505   0.358   5.294 -0.5870 -3.6524  0.8781
  112MOL   H20842610   2.792   0.440   5.366 -2.3132 -0.6448  1.1034
  112MOL   H20942611   2.737   0.413   5.204 -0.1917 -1.2307  0.6822
  112MOL   H21042612   2.685   0.560   5.289 -1.3518  0.5732 -0.8644
  112MOL   C21142613   2.371   0.591   5.853  0.3353  0.4170 -0.6739
  112MOL   C21242614   2.459   0.601   5.976 -0.1513  0.7206  0.7148
  112MOL   C21342615   2.396   0.671   6.100  0.1566  0.5629  0.0372
  112MOL   C21442616   2.486   0.739   6.206  0.3736 -0.3330  0.2694
  112MOL   C21542617   2.420   0.761   6.346 -0.1785 -0.5886 -0.0331
  112MOL   C21642618   2.510   0.824   6.450  0.0168 -0.9942 -0.1007
  112MOL   O21742619   2.578   0.683   5.947 -0.4436  0.4642 -0.6287
  112MOL   H21842620   2.276   0.550   5.888  0.5956 -0.3334 -0.8481
  112MOL   H21942621   2.355   0.692   5.815 -0.0648  1.7744  2.9055
  112MOL   H22042622   2.506   0.506   6.001 -0.7069  0.3675  0.4093
  112MOL   H22142623   2.325   0.736   6.049 -0.6543 -1.5007 -1.5244
  112MOL   H22242624   2.329   0.602   6.149 -1.1484  0.6878 -1.5252
  112MOL   H22342625   2.581   0.686   6.211  1.5012  1.2440 -3.1770
  112MOL   H22442626   2.503   0.837   6.163  0.4837  0.8259  2.8392
  112MOL   H22542627   2.330   0.823   6.342 -1.9377 -3.0666  0.0326
  112MOL   H22642628   2.381   0.667   6.386  0.3255 -1.1300 -0.7985
  112MOL   H22742629   2.550   0.921   6.422 -0.1797 -0.9752 -0.3149
  112MOL   H22842630   2.591   0.753   6.467 -1.1871 -2.6799 -1.2107
  112MOL   H22942631   2.468   0.845   6.548  1.1794  2.2232 -0.2550
  112MOL   C23042632   2.668   0.631   5.850 -0.1654 -0.5594  0.0774
  112MOL   C23142633   2.804   0.697   5.880  0.0662 -0.5708  0.2669
  112MOL   C23242634   2.854   0.651   6.020 -0.1378  0.6727  1.2271
  112MOL   C23342635   2.997   0.697   6.041  0.1143 -0.1102  0.4897
  112MOL   C23442636   3.042   0.659   6.186  0.4258  0.1172 -0.0819
  112MOL   C23542637   3.170   0.715   6.234  0.2343 -0.2991  0.0087
  112MOL   O23642638   2.785   0.837   5.875 -0.1094 -0.2027 -0.1678
  112MOL   H23742639   2.690   0.526   5.865 -3.0404 -0.9898  1.5454
  112MOL   H23842640   2.628   0.658   5.752 -1.1332  1.3826  0.9853
  112MOL   H23942641   2.876   0.667   5.803 -0.8861  2.1595 -1.7762
  112MOL   H24042642   2.838   0.543   6.027 -1.1182  0.5587 -1.6722
  112MOL   H24142643   2.773   0.694   6.079 -1.7403 -1.1664  0.4437
  112MOL   H24242644   3.008   0.805   6.027  2.3007 -0.1552  1.7296
  112MOL   H24342645   3.070   0.646   5.978 -0.0122 -1.6708  1.5939
  112MOL   H24442646   2.965   0.697   6.254  0.0824  0.4951 -0.6836
  112MOL   H24542647   3.039   0.551   6.200 -0.6419  0.3834  2.1103
  112MOL   H24642648   3.231   0.698   6.146  1.0010 -2.5798  0.9517
  112MOL   H24742649   3.206   0.666   6.325  1.9912  2.5925  0.9436
  112MOL   H24842650   3.167   0.821   6.261  1.9971 -0.2533  0.0729
  112MOL   C24942651   2.791   0.900   5.757  0.0636 -0.6891  0.1868
  112MOL   C25042652   2.754   1.046   5.787  0.1936 -0.1954 -0.2727
  112MOL   C25142653   2.727   1.127   5.655 -0.2079  0.2041 -0.4835
  112MOL   C25242654   2.699   1.274   5.685 -0.2270 -0.7428 -0.3303
  112MOL   C25342655   2.707   1.363   5.558 -0.4943 -0.2353 -0.2873
  112MOL   C25442656   2.674   1.514   5.582 -0.3619  0.3975 -0.1980
  112MOL   O25542657   2.862   1.103   5.859  0.5124  0.2671 -0.0100
  112MOL   H25642658   2.890   0.892   5.711 -0.0246 -1.2228  0.0853
  112MOL   H25742659   2.714   0.863   5.690 -0.3758 -0.1003  0.3624
  112MOL   H25842660   2.669   1.047   5.855  1.5164 -0.2766  1.4113
  112MOL   H25942661   2.817   1.123   5.594 -1.2780 -0.1966 -2.0915
  112MOL   H26042662   2.651   1.074   5.597 -0.0723  1.8740 -2.2465
  112MOL   H26142663   2.612   1.292   5.747 -1.3106 -1.4052 -1.6370
  112MOL   H26242664   2.785   1.302   5.746 -1.0109  0.3282  0.2855
  112MOL   H26342665   2.808   1.367   5.519  0.1146  1.7516  1.3663
  112MOL   H26442666   2.645   1.317   5.481  0.9982 -2.0212 -0.4447
  112MOL   H26542667   2.585   1.516   5.644 -0.2077 -0.5178  0.0630
  112MOL   H26642668   2.660   1.573   5.491  0.6164  0.6335 -0.2021
  112MOL   H26742669   2.745   1.570   5.642  0.2428  0.8012 -1.2731
  112MOL   C26842670   2.848   1.101   6.000  0.2149 -0.8553 -0.1064
  112MOL   C26942671   2.974   1.147   6.071  0.5941 -0.1644 -0.5924
  112MOL   C27042672   3.007   1.083   6.206  0.1254  0.0911 -0.7345
  112MOL   C27142673   2.909   1.123   6.315  0.3584  0.1533  0.1657
  112MOL   C27242674   2.926   1.027   6.444  0.0344 -0.1159  0.8180
  112MOL   C27342675   2.822   1.056   6.556  1.2461  0.4686 -0.0698
  112MOL   O27442676   2.987   1.290   6.089 -0.3806  0.3677 -1.0270
  112MOL   H27542677   2.806   1.003   6.021  0.6694 -0.9559  0.3211
  112MOL   H27642678   2.774   1.174   6.034  0.8903 -1.3816  2.6185
  112MOL   H27742679   3.062   1.122   6.011  0.8678 -0.8179  0.0827
  112MOL   H27842680   3.008   0.975   6.199 -0.2427  0.0277  0.1995
  112MOL   H27942681   3.105   1.113   6.244 -0.1860 -1.7456  1.6347
  112MOL   H28042682   2.927   1.224   6.350  2.0224  0.5043 -1.6313
  112MOL   H28142683   2.806   1.119   6.279 -0.4309 -0.2101  2.4024
  112MOL   H28242684   2.921   0.923   6.411 -1.8715  0.6560 -1.4509
  112MOL   H28342685   3.030   1.026   6.478  0.6366 -0.9432 -0.9760
  112MOL   H28442686   2.717   1.056   6.525  1.4718 -0.7248 -0.8607
  112MOL   H28542687   2.835   0.985   6.638  2.2538 -0.2939 -0.8744
  112MOL   H28642688   2.843   1.155   6.595  2.5010  0.5939 -1.0632
  112MOL   C28742689   3.030   1.385   5.991 -0.2857  0.0587  0.2156
  112MOL   C28842690   3.061   1.515   6.067 -0.3155  0.1671  0.6573
  112MOL   C28942691   3.056   1.639   5.981 -0.3062  0.1940 -0.5587
  112MOL   C29042692   3.065   1.765   6.070  0.0483 -0.1266 -0.0436
  112MOL   C29142693   3.011   1.893   6.005  0.2047 -0.3498 -0.1187
  112MOL   C29242694   3.001   2.008   6.101  0.3411  0.0625 -0.4509
  112MOL   O29342695   3.194   1.520   6.128 -0.4713  0.2063 -0.3282
  112MOL   H29442696   2.943   1.405   5.927  0.2842  0.0242 -0.5776
  112MOL   H29542697   3.115   1.346   5.934 -1.3075  0.2089 -1.4715
  112MOL   H29642698   2.987   1.516   6.147 -0.9622 -1.2952  0.0942
  112MOL   H29742699   3.132   1.645   5.904 -0.2538 -0.5893 -0.5746
  112MOL   H29842700   2.967   1.637   5.917  0.0208  3.2874 -1.1699
  112MOL   H29942701   3.005   1.739   6.157  0.5656 -0.2903  0.2680
  112MOL   H30042702   3.163   1.784   6.115  1.3044 -0.9589 -2.2937
  112MOL   H30142703   2.919   1.862   5.954  0.4316 -1.0059 -0.1352
  112MOL   H30242704   3.081   1.912   5.923 -1.4181  0.7006 -1.2906
  112MOL   H30342705   2.944   1.980   6.190  3.5286 -2.5185  0.8564
  112MOL   H30442706   3.102   2.031   6.135  0.8490 -2.0800 -0.5050
  112MOL   H30542707   2.948   2.093   6.057 -3.0346 -0.7042  1.8911
  112MOL   C30642708   3.225   1.409   6.205 -0.3980  0.2281 -0.6268
  112MOL   C30742709   3.324   1.436   6.312 -0.3132  0.0138  0.1968
  112MOL   C30842710   3.388   1.312   6.389 -0.0447  0.7997 -0.7998
  112MOL   C30942711   3.284   1.239   6.479 -0.1857 -0.1111  0.8399
  112MOL   C31042712   3.344   1.126   6.555 -0.4094 -0.4316  0.2462
  112MOL   C31142713   3.375   1.003   6.477  0.0709 -0.2258  0.4843
  112MOL   O31242714   3.271   1.522   6.414  0.3337  0.5824  0.2191
  112MOL   H31342715   3.132   1.383   6.256  1.0656 -1.8280  1.0357
  112MOL   H31442716   3.247   1.319   6.148 -0.0503 -0.7121  0.9740
  112MOL   H31542717   3.409   1.483   6.264 -0.4996  1.3056  1.0975
  112MOL   H31642718   3.476   1.336   6.449 -0.6122  0.8967 -0.0015
  112MOL   H31742719   3.437   1.252   6.313  1.9173  2.1685 -0.6603
  112MOL   H31842720   3.251   1.318   6.546  1.2420  0.8855  0.3925
  112MOL   H31942721   3.194   1.218   6.421  1.1651 -0.5527 -1.1451
  112MOL   H32042722   3.275   1.105   6.636 -0.0142 -1.6649  0.2710
  112MOL   H32142723   3.439   1.162   6.595 -0.2854 -0.4992  0.0155
  112MOL   H32242724   3.295   0.975   6.408  0.3006 -0.1847  0.1973
  112MOL   H32342725   3.458   1.028   6.410 -1.3115  2.3650 -0.3158
  112MOL   H32442726   3.413   0.927   6.545 -0.6843  0.0832  1.2576
  112MOL   C32542727   3.302   1.665   6.399 -0.1485  0.4852 -0.3252
  112MOL   C32642728   3.281   1.752   6.527 -0.0006 -0.2465  0.0255
  112MOL   C32742729   3.270   1.905   6.504  0.4135 -0.0493  0.3968
  112MOL   C32842730   3.129   1.949   6.445  0.0905 -0.1190  0.2578
  112MOL   C32942731   3.108   2.105   6.435 -0.6531 -0.2573  0.3130
  112MOL   C33042732   3.092   2.183   6.562  0.6147  0.0480 -1.1042
  112MOL   O33142733   3.372   1.727   6.640  0.3744  0.8040 -0.1977
  112MOL   H33242734   3.233   1.715   6.330  0.5903 -0.8641 -2.0947
  112MOL   H33342735   3.397   1.692   6.353 -1.0645  3.3924 -0.6103
  112MOL   H33442736   3.188   1.727   6.579 -1.1956  0.2632 -1.8382
  112MOL   H33542737   3.283   1.951   6.602  1.1370  0.3301  0.1230
  112MOL   H33642738   3.342   1.945   6.434  0.4639  0.6755  0.8623
  112MOL   H33742739   3.108   1.915   6.344 -0.6679  1.1715 -0.0413
  112MOL   H33842740   3.044   1.916   6.505  1.3549 -0.5555  1.8389
  112MOL   H33942741   3.192   2.151   6.382  0.0051 -1.7832 -0.0108
  112MOL   H34042742   3.017   2.122   6.378 -0.5815  0.1782  0.3296
  112MOL   H34142743   3.089   2.292   6.562 -0.0536  0.0478  1.2728
  112MOL   H34242744   3.012   2.139   6.622  1.1267 -0.5820 -0.8746
  112MOL   H34342745   3.184   2.153   6.611 -0.8723  2.1668  3.2083
  112MOL   C34442746   3.413   1.588   6.679  0.2641 -0.5067 -0.9199
  112MOL   C34542747   3.518   1.590   6.788 -0.1341 -0.0435 -0.0014
  112MOL   C34642748   3.555   1.457   6.855 -0.2937  0.3266  0.1773
  112MOL   C34742749   3.667   1.374   6.790 -0.2977  0.2509  0.1640
  112MOL   C34842750   3.701   1.249   6.877  0.5113 -0.2702  0.0062
  112MOL   C34942751   3.759   1.137   6.793  0.2002 -0.7547 -0.1929
  112MOL   O35042752   3.630   1.656   6.729  0.8470  0.4651 -0.3971
  112MOL   H35142753   3.454   1.532   6.594 -0.1930 -2.5254  0.1485
  112MOL   H35242754   3.325   1.538   6.720  0.5330  0.5366  0.9474
  112MOL   H35342755   3.477   1.652   6.867  0.2815  0.0253  0.1613
  112MOL   H35442756   3.462   1.401   6.865  0.2893 -0.3598  2.0747
  112MOL   H35542757   3.587   1.476   6.958 -0.6324 -0.9430  0.5292
  112MOL   H35642758   3.756   1.436   6.777 -0.2177  0.2533  0.6735
  112MOL   H35742759   3.629   1.359   6.689  1.8596 -0.6586 -0.5471
  112MOL   H35842760   3.613   1.209   6.926  1.6012 -1.2516  1.2074
  112MOL   H35942761   3.773   1.271   6.956  2.3216  1.1969 -1.9875
  112MOL   H36042762   3.702   1.094   6.711 -0.1079 -0.0967 -0.3331
  112MOL   H36142763   3.788   1.052   6.854  0.0968  0.1680  1.1746
  112MOL   H36242764   3.853   1.171   6.749  0.4878 -2.4118 -0.8930
  112MOL   C36342765   3.684   1.761   6.811 -0.2091 -0.1001 -0.1902
  112MOL   C36442766   3.832   1.787   6.777  0.1817  0.1547  0.1764
  112MOL   C36542767   3.930   1.667   6.762  0.1699  0.2241  0.4674
  112MOL   C36642768   3.953   1.597   6.902 -0.8442 -0.4971  0.1229
  112MOL   C36742769   4.053   1.481   6.897  0.1315  0.1682  0.3372
  112MOL   C36842770   4.072   1.397   7.018 -0.2557  0.3031  0.2417
  112MOL   O36942771   3.836   1.862   6.656  0.2116 -0.0888  0.5020
  112MOL   H37042772   3.673   1.739   6.917  0.3455  2.8674  0.5351
  112MOL   H37142773   3.623   1.849   6.792  1.0192  0.7167 -0.4462
  112MOL   H37242774   3.859   1.853   6.859 -1.8434  0.9106  0.2428
  112MOL   H37342775   3.885   1.613   6.679 -0.0662 -0.5820  1.1079
  112MOL   H37442776   4.031   1.688   6.727 -0.6079  1.7752 -0.8628
  112MOL   H37542777   3.994   1.672   6.970 -3.2728 -0.7239  1.9349
  112MOL   H37642778   3.860   1.554   6.939  0.3319 -1.8322  1.6021
  112MOL   H37742779   4.023   1.411   6.819  2.8713 -0.5143 -0.1834
  112MOL   H37842780   4.149   1.521   6.862  0.8146 -2.6372 -1.1116
  112MOL   H37942781   4.140   1.315   6.995  1.0716  1.4032  0.1022
  112MOL   H38042782   4.120   1.445   7.103  0.7466 -1.9714  1.0002
  112MOL   H38142783   3.982   1.346   7.050 -1.9564  1.4646 -2.5083
  112MOL   H38242784   3.800   1.801   6.594 -0.7047 -0.1617  1.0906
  113MOL     C142785   4.675   2.336   2.061  0.1091 -0.2168 -0.4745
  113MOL     C242786   4.721   2.430   2.172 -0.1710  0.2969 -0.2271
  113MOL     C342787   4.612   2.453   2.280  0.2289  0.3163 -0.3315
  113MOL     C442788   4.620   2.582   2.363 -0.1317 -0.2085  0.8713
  113MOL     C542789   4.484   2.629   2.436 -0.3342  0.1226 -0.0027
  113MOL     C642790   4.376   2.661   2.340  0.0126  0.3439  0.2344
  113MOL     O742791   4.820   2.355   2.243 -0.1915  0.0863 -0.0672
  113MOL     H842792   4.610   2.394   1.996 -0.5216 -0.5700 -0.1654
  113MOL     H942793   4.619   2.254   2.105  1.9979 -0.3487  1.7762
  113MOL    H1042794   4.760   2.527   2.138  1.2396  0.5618  2.0188
  113MOL    H1142795   4.518   2.462   2.225  0.5279 -0.2548 -0.9524
  113MOL    H1242796   4.609   2.368   2.348  3.7013  1.0529  0.8238
  113MOL    H1342797   4.697   2.583   2.440 -1.2165  0.9913  1.9760
  113MOL    H1442798   4.651   2.666   2.301 -1.8885  0.4058  0.7993
  113MOL    H1542799   4.451   2.537   2.486  1.2613 -0.6294 -0.2770
  113MOL    H1642800   4.499   2.688   2.526 -0.1012  0.7353 -0.4419
  113MOL    H1742801   4.398   2.755   2.290  2.1951 -0.5371 -0.5070
  113MOL    H1842802   4.350   2.582   2.268 -0.5292 -0.6999  1.5496
  113MOL    H1942803   4.281   2.673   2.392 -0.6400  0.7702 -1.0379
  113MOL    H2042804   4.760   2.294   2.008  0.1924  1.3174 -1.6018
  113MOL    C2142805   4.954   2.374   2.200  0.5405  0.3941 -0.2001
  113MOL    C2242806   5.048   2.295   2.288 -0.7000 -0.4570 -0.6181
  113MOL    C2342807   5.042   2.142   2.241  0.3309 -0.1725 -0.1070
  113MOL    C2442808   5.117   2.038   2.329  0.2624  0.4848  0.0294
  113MOL    C2542809   5.131   1.906   2.261  1.0169 -0.2209 -0.0086
  113MOL    C2642810   5.223   1.811   2.340 -0.4756 -0.6663  0.0439
  113MOL    O2742811   5.180   2.343   2.265  0.6303  0.0166  0.4582
  113MOL    H2842812   4.966   2.351   2.095 -0.0234 -0.4970 -0.0673
  113MOL    H2942813   4.967   2.481   2.217  0.1569  0.8008 -2.3480
  113MOL    H3042814   5.019   2.307   2.393  0.0631  1.4751 -0.6059
  113MOL    H3142815   5.065   2.130   2.135  0.2656 -0.3520 -0.1020
  113MOL    H3242816   4.941   2.101   2.227  0.5316 -0.8956  0.5429
  113MOL    H3342817   5.074   2.024   2.428 -3.0842  0.9932 -1.2576
  113MOL    H3442818   5.218   2.074   2.349  0.8037  0.6111 -2.7147
  113MOL    H3542819   5.029   1.868   2.254 -0.3791  3.3868  0.0611
  113MOL    H3642820   5.162   1.904   2.157 -0.6183 -2.7972 -0.4866
  113MOL    H3742821   5.208   1.710   2.302  1.5744 -1.2277  0.6406
  113MOL    H3842822   5.207   1.819   2.447  0.3356 -0.3948  0.1511
  113MOL    H3942823   5.330   1.831   2.328 -0.3280  0.0388  2.4415
  113MOL    C4042824   5.244   2.415   2.374  0.2480  0.6772  0.8242
  113MOL    C4142825   5.390   2.426   2.349 -0.5952 -0.1856 -0.1350
  113MOL    C4242826   5.449   2.285   2.331  0.2481  0.5664 -0.0722
  113MOL    C4342827   5.592   2.298   2.272  0.4846  0.0325 -0.8958
  113MOL    C4442828   5.691   2.198   2.325 -1.1082 -0.2607  0.0117
  113MOL    C4542829   5.736   2.222   2.473 -0.6998  0.2366 -0.0089
  113MOL    O4642830   5.452   2.467   2.467  0.1678 -0.4765  0.6035
  113MOL    H4742831   5.223   2.347   2.457 -0.9918 -0.4819 -0.4115
  113MOL    H4842832   5.194   2.511   2.376 -0.6149  0.2423  0.5652
  113MOL    H4942833   5.406   2.478   2.255  2.6126 -0.3840  0.2421
  113MOL    H5042834   5.448   2.219   2.418  1.1301  0.0873 -0.4144
  113MOL    H5142835   5.392   2.228   2.259  1.4319  0.1652 -0.7031
  113MOL    H5242836   5.625   2.397   2.302 -0.9003 -0.2210  1.6074
  113MOL    H5342837   5.593   2.308   2.163 -1.2788  3.9252 -0.6268
  113MOL    H5442838   5.658   2.094   2.316  0.7977 -0.8016 -1.0619
  113MOL    H5542839   5.780   2.207   2.263 -0.9078  0.4462  0.3950
  113MOL    H5642840   5.830   2.179   2.507  0.5685  2.7639 -0.2495
  113MOL    H5742841   5.757   2.327   2.491 -2.7603  0.7566 -0.4181
  113MOL    H5842842   5.654   2.206   2.544 -0.4487  1.5683  0.5843
  113MOL    C5942843   5.492   2.601   2.458 -0.3888 -0.2037  0.6774
  113MOL    C6042844   5.512   2.657   2.599 -0.3879  0.1308 -0.0861
  113MOL    C6142845   5.548   2.807   2.582  0.1043 -0.8060 -0.1578
  113MOL    C6242846   5.560   2.866   2.718 -0.2544  0.7080 -0.4873
  113MOL    C6342847   5.622   3.001   2.715 -0.1289  0.4995  0.2147
  113MOL    C6442848   5.615   3.083   2.846  0.0984 -0.1164 -0.4801
  113MOL    O6542849   5.395   2.653   2.672  0.1463 -0.1407  0.4409
  113MOL    H6642850   5.425   2.664   2.401  0.7707  1.2393  0.8777
  113MOL    H6742851   5.591   2.602   2.412 -0.0652  2.6500  1.3346
  113MOL    H6842852   5.586   2.602   2.656 -2.1661 -1.7281  0.4673
  113MOL    H6942853   5.465   2.859   2.535  0.1091 -1.6597 -1.1442
  113MOL    H7042854   5.644   2.813   2.530 -1.2566  0.1630 -2.6568
  113MOL    H7142855   5.616   2.796   2.780 -0.5958  0.6880 -0.1955
  113MOL    H7242856   5.463   2.880   2.766  0.7942 -1.1340  2.3061
  113MOL    H7342857   5.583   3.062   2.632  0.7428  0.7066 -0.0436
  113MOL    H7442858   5.728   2.994   2.692 -0.1777 -2.7076  0.7896
  113MOL    H7542859   5.667   3.179   2.844  1.2804 -0.7499 -0.6518
  113MOL    H7642860   5.512   3.100   2.878  0.6783  0.7565  0.9729
  113MOL    H7742861   5.671   3.029   2.922 -0.8756  1.7817  1.6562
  113MOL    C7842862   5.378   2.534   2.752  0.5919 -0.6333  0.4078
  113MOL    C7942863   5.251   2.523   2.835 -0.2287 -0.1476  0.2705
  113MOL    C8042864   5.265   2.438   2.964 -0.0848 -0.0203  0.3505
  113MOL    C8142865   5.127   2.430   3.047  0.0091 -0.0550  0.8369
  113MOL    C8242866   5.150   2.381   3.195  0.1460  0.2008 -0.0372
  113MOL    C8342867   5.017   2.334   3.258 -0.1644 -0.0762 -0.4038
  113MOL    O8442868   5.153   2.471   2.750  0.4675  0.1844 -0.0737
  113MOL    H8542869   5.453   2.531   2.831  2.2106  2.5367 -0.9440
  113MOL    H8642870   5.394   2.446   2.689 -1.0945  0.2087 -1.2340
  113MOL    H8742871   5.211   2.618   2.871 -0.3078 -0.4732  1.0398
  113MOL    H8842872   5.310   2.342   2.937  1.2609  0.1723  1.8250
  113MOL    H8942873   5.336   2.488   3.030  2.6391 -1.6192 -1.2526
  113MOL    H9042874   5.073   2.357   2.987 -0.4480 -2.9808  4.5844
  113MOL    H9142875   5.079   2.527   3.042 -0.1035 -0.1348  0.3222
  113MOL    H9242876   5.214   2.293   3.190  0.2971  0.3057  0.0516
  113MOL    H9342877   5.185   2.461   3.261  0.6194  0.6176 -0.7950
  113MOL    H9442878   5.042   2.278   3.348 -2.0665 -1.0216 -0.4212
  113MOL    H9542879   4.961   2.261   3.199  2.6471 -2.3487 -0.3687
  113MOL    H9642880   4.955   2.420   3.282  1.2412  1.2001 -1.3025
  113MOL    C9742881   5.094   2.558   2.650 -0.6560 -0.3617 -0.6141
  113MOL    C9842882   4.982   2.649   2.698  0.2570 -0.4505  0.0669
  113MOL    C9942883   4.952   2.753   2.588 -0.4796  0.0491 -0.0274
  113MOL   C10042884   4.833   2.838   2.618 -0.8563 -0.7357  0.3085
  113MOL   C10142885   4.801   2.945   2.516 -0.1367 -0.5407  0.5742
  113MOL   C10242886   4.703   3.039   2.572  0.5449 -0.3729 -0.3704
  113MOL   O10342887   4.858   2.588   2.713  0.4175  0.4657 -0.0688
  113MOL   H10442888   5.058   2.498   2.566  1.1237 -1.9195 -0.3156
  113MOL   H10542889   5.177   2.609   2.601  0.4229 -0.8140  0.7127
  113MOL   H10642890   5.009   2.703   2.789 -0.6631  0.0562  0.0485
  113MOL   H10742891   4.924   2.700   2.497  0.4239  0.0352 -0.3027
  113MOL   H10842892   5.036   2.813   2.553 -0.2420 -0.6274 -0.6390
  113MOL   H10942893   4.839   2.886   2.716 -0.7964 -0.2178  0.0546
  113MOL   H11042894   4.747   2.774   2.636  0.6210 -2.5405  1.0852
  113MOL   H11142895   4.764   2.891   2.428  2.6588 -1.0797 -0.3233
  113MOL   H11242896   4.886   2.985   2.461 -1.6752 -1.7239 -2.7990
  113MOL   H11342897   4.612   2.997   2.614 -0.0387 -0.3693 -1.5896
  113MOL   H11442898   4.746   3.098   2.653  2.5127 -0.6372 -1.1965
  113MOL   H11542899   4.677   3.107   2.490 -0.9973 -0.2599  0.1999
  113MOL   C11642900   4.861   2.505   2.829  0.2083 -0.4793 -0.0562
  113MOL   C11742901   4.723   2.439   2.850  0.0943 -0.1975 -0.1623
  113MOL   C11842902   4.687   2.426   3.006 -0.3327  0.4459 -0.4267
  113MOL   C11942903   4.538   2.389   3.040  0.0549 -0.6391  0.4407
  113MOL   C12042904   4.511   2.367   3.194  0.3849  0.2649  0.4620
  113MOL   C12142905   4.372   2.306   3.222 -0.3531 -0.1967  0.9303
  113MOL   O12242906   4.729   2.305   2.797 -0.3321 -0.6936  0.2133
  113MOL   H12342907   4.942   2.434   2.841  1.8612  1.5824  1.2772
  113MOL   H12442908   4.872   2.578   2.909 -0.5156  0.4676 -0.7984
  113MOL   H12542909   4.640   2.490   2.800  1.1917  1.9001  0.1086
  113MOL   H12642910   4.749   2.349   3.053 -2.4937 -1.0544  0.0380
  113MOL   H12742911   4.723   2.519   3.050 -0.8522  1.4534 -2.0711
  113MOL   H12842912   4.519   2.292   2.993  3.4860 -0.3007 -1.8651
  113MOL   H12942913   4.473   2.452   2.980  1.8287  1.4056  0.6101
  113MOL   H13042914   4.586   2.312   3.250 -0.7197  0.9271  2.6363
  113MOL   H13142915   4.526   2.461   3.247  0.8535  0.4667 -0.0243
  113MOL   H13242916   4.380   2.197   3.223  0.4472 -0.2085 -1.7309
  113MOL   H13342917   4.332   2.334   3.319 -1.4076  0.3165  0.3573
  113MOL   H13442918   4.304   2.353   3.151 -0.3699  0.5886  1.4572
  113MOL   C13542919   4.758   2.284   2.661 -0.1764  1.0172 -0.1602
  113MOL   C13642920   4.716   2.133   2.628  0.2472 -0.6666 -0.6590
  113MOL   C13742921   4.801   2.075   2.519 -0.4591  0.3056  0.1478
  113MOL   C13842922   4.822   1.921   2.531  0.0053 -0.1902  0.1126
  113MOL   C13942923   4.703   1.840   2.471 -0.3583  0.5841 -0.0250
  113MOL   C14042924   4.741   1.698   2.507 -0.3700 -0.1122 -0.2155
  113MOL   O14142925   4.577   2.115   2.602  0.0628  0.5960  0.6651
  113MOL   H14242926   4.690   2.348   2.604 -0.8872  0.3828 -0.0367
  113MOL   H14342927   4.859   2.312   2.633  0.1162 -0.0272 -0.1677
  113MOL   H14442928   4.739   2.080   2.721  1.2084  3.2208  1.4043
  113MOL   H14542929   4.758   2.100   2.422 -1.6265 -0.7248  0.3949
  113MOL   H14642930   4.898   2.124   2.530 -0.9264  0.6655  3.0924
  113MOL   H14742931   4.851   1.887   2.630  0.1906  0.5636  0.3218
  113MOL   H14842932   4.910   1.900   2.470  1.8903  2.3631  1.8846
  113MOL   H14942933   4.696   1.846   2.363 -1.0067  0.5314  0.0163
  113MOL   H15042934   4.609   1.867   2.518 -0.6118  0.0139 -0.1970
  113MOL   H15142935   4.667   1.620   2.488 -1.0219  0.8607 -1.8060
  113MOL   H15242936   4.825   1.678   2.441 -0.7731 -2.7957  0.0177
  113MOL   H15342937   4.794   1.690   2.602 -0.5670  2.0196  0.1084
  113MOL   C15442938   4.492   2.146   2.710 -0.0257 -0.5502  0.0370
  113MOL   C15542939   4.372   2.056   2.711  0.2389  0.6145  0.5798
  113MOL   C15642940   4.293   2.083   2.836  0.4459 -0.2797  0.1325
  113MOL   C15742941   4.237   2.220   2.858  0.0877  0.3952  0.7483
  113MOL   C15842942   4.134   2.205   2.976 -0.1380  0.7781 -0.2749
  113MOL   C15942943   4.052   2.327   2.997  0.1478 -0.4779  0.4693
  113MOL   O16042944   4.284   2.079   2.592 -0.3772  0.4221  0.3665
  113MOL   H16142945   4.472   2.252   2.693 -3.5691 -0.8819  1.7073
  113MOL   H16242946   4.544   2.141   2.805  0.9153 -0.7825 -0.4827
  113MOL   H16342947   4.406   1.952   2.709 -0.2280  0.4691 -1.4516
  113MOL   H16442948   4.354   2.047   2.919 -1.0976  0.9255  1.8440
  113MOL   H16542949   4.204   2.020   2.832 -0.8857  1.5283  0.6213
  113MOL   H16642950   4.194   2.256   2.764  0.5373  0.6485  0.6380
  113MOL   H16742951   4.322   2.284   2.879  1.7185 -1.9677  1.5692
  113MOL   H16842952   4.059   2.136   2.938  2.1744 -1.7250 -0.4768
  113MOL   H16942953   4.183   2.153   3.058  0.9799  0.9914 -0.7978
  113MOL   H17042954   4.116   2.412   3.019 -0.3961 -0.2563  1.2060
  113MOL   H17142955   3.987   2.312   3.083  0.8710 -0.3722  1.0384
  113MOL   H17242956   3.994   2.332   2.905  1.1729  0.2940 -0.1439
  113MOL   C17342957   4.308   1.981   2.491  0.7213  0.1997 -0.0994
  113MOL   C17442958   4.203   1.991   2.376  0.0995  0.1157  0.1384
  113MOL   C17542959   4.266   1.989   2.235  0.4465  0.1781  0.0921
  113MOL   C17642960   4.168   2.015   2.120  0.4018 -0.1830 -0.3077
  113MOL   C17742961   4.202   1.947   1.992 -0.4464  0.4034 -0.0418
  113MOL   C17842962   4.076   1.925   1.900  0.2203  0.1074  0.4260
  113MOL   O17942963   4.108   1.886   2.398  0.0215 -0.1436  0.2579
  113MOL   H18042964   4.309   1.876   2.521  4.4344  0.3952  0.6789
  113MOL   H18142965   4.406   2.001   2.448  1.6014 -0.0893  1.7075
  113MOL   H18242966   4.164   2.092   2.387  1.5022  0.7039 -0.2650
  113MOL   H18342967   4.343   2.066   2.230  1.1002 -0.3662  1.6142
  113MOL   H18442968   4.327   1.900   2.217  1.3236  0.8567 -0.3053
  113MOL   H18542969   4.067   1.987   2.152  0.9418 -0.6414  1.0460
  113MOL   H18642970   4.141   2.119   2.103 -2.6198 -0.9110 -0.2624
  113MOL   H18742971   4.287   1.998   1.946  0.6850  1.8972  3.4977
  113MOL   H18842972   4.242   1.848   2.014 -0.9334  0.4172  0.9448
  113MOL   H18942973   4.111   1.870   1.813  0.6913  0.5224  0.3497
  113MOL   H19042974   4.043   2.022   1.862  0.6336  0.1873  0.2703
  113MOL   H19142975   3.996   1.866   1.945  0.2358  0.1304  0.4826
  113MOL   C19242976   3.974   1.920   2.420 -0.3887  0.3055  0.2635
  113MOL   C19342977   3.944   1.947   2.565  0.5298 -0.2986 -0.3673
  113MOL   C19442978   3.918   1.811   2.642 -0.3906 -0.0249  0.2201
  113MOL   C19542979   3.886   1.848   2.782  0.5676 -0.2469  0.3658
  113MOL   C19642980   3.870   1.727   2.875 -0.2118  0.2662  0.5677
  113MOL   C19742981   3.755   1.640   2.838 -0.3472 -0.2019 -0.5505
  113MOL   O19842982   3.815   2.022   2.564  0.0329 -0.1772  0.0160
  113MOL   H19942983   3.952   2.011   2.365  2.2433  0.8020 -0.0166
  113MOL   H20042984   3.906   1.843   2.384  1.5839 -1.2200 -0.2865
  113MOL   H20142985   4.024   2.003   2.614 -1.0373  2.5371 -0.8994
  113MOL   H20242986   3.846   1.746   2.593  2.3645 -1.9150 -1.4945
  113MOL   H20342987   4.010   1.752   2.636 -1.3079 -1.4253 -0.2605
  113MOL   H20442988   3.793   1.905   2.778 -0.2715 -1.5992  0.2730
  113MOL   H20542989   3.957   1.920   2.822  1.6418 -0.0011 -1.9065
  113MOL   H20642990   3.962   1.669   2.883  0.7698  1.6784 -0.2475
  113MOL   H20742991   3.852   1.760   2.977 -0.5657 -0.0748  0.6148
  113MOL   H20842992   3.750   1.613   2.733 -1.7770  0.4291 -0.6666
  113MOL   H20942993   3.747   1.544   2.888 -1.5196 -1.4077 -2.9664
  113MOL   H21042994   3.657   1.682   2.861 -0.5772 -0.2738 -1.3988
  113MOL   C21142995   3.816   2.160   2.607 -0.1054 -0.4335  0.5940
  113MOL   C21242996   3.687   2.228   2.592  1.1925  0.5998 -0.1843
  113MOL   C21342997   3.689   2.384   2.576 -0.2773 -0.0610  0.6348
  113MOL   C21442998   3.545   2.445   2.555 -0.5792  0.5394 -0.4321
  113MOL   C21542999   3.537   2.595   2.534  0.5637 -1.1374  0.6245
  113MOL   C21643000   3.393   2.649   2.545  0.0836  0.3736  0.5573
  113MOL   O21743001   3.622   2.188   2.711 -1.1246 -0.0814 -0.3744
  113MOL   H21843002   3.881   2.219   2.543  0.7139  0.9330  2.6001
  113MOL   H21943003   3.863   2.172   2.705  1.9495  0.8431 -0.5309
  113MOL   H22043004   3.638   2.201   2.498 -1.3307  1.7598  0.7707
  113MOL   H22143005   3.721   2.428   2.670  0.7072  0.0033  0.2734
  113MOL   H22243006   3.751   2.416   2.492 -1.0089 -0.0612  0.0858
  113MOL   H22343007   3.489   2.381   2.487  0.7997 -0.5621 -0.5560
  113MOL   H22443008   3.481   2.431   2.642  0.6528  0.0916  0.4164
  113MOL   H22543009   3.606   2.645   2.602 -1.2980  2.1741  0.1387
  113MOL   H22643010   3.582   2.612   2.436  1.4117 -0.1417  1.1747
  113MOL   H22743011   3.334   2.619   2.459 -0.2787  2.4183  0.0669
  113MOL   H22843012   3.382   2.757   2.553  1.6962  0.3933  3.1785
  113MOL   H22943013   3.349   2.628   2.642  1.9143 -1.1841  1.0759
  113MOL   C23043014   3.518   2.092   2.698  0.1491 -0.4078  0.5127
  113MOL   C23143015   3.478   2.040   2.835  0.1049  0.0803 -0.3727
  113MOL   C23243016   3.406   1.898   2.821  0.2191 -0.2381 -0.7233
  113MOL   C23343017   3.336   1.834   2.945 -0.5421 -0.1179 -0.4376
  113MOL   C23443018   3.214   1.744   2.915  0.2296  0.5278 -0.0325
  113MOL   C23543019   3.237   1.609   2.846 -0.1226  0.5858 -0.7857
  113MOL   O23643020   3.388   2.130   2.896  0.3859  0.0964  0.3226
  113MOL   H23743021   3.434   2.142   2.650  1.2769  0.3893 -0.6817
  113MOL   H23843022   3.556   2.024   2.622 -0.5422 -1.8315  1.4282
  113MOL   H23943023   3.567   2.028   2.897 -0.5280  1.8774  0.9396
  113MOL   H24043024   3.487   1.834   2.785  1.7531  2.3128 -1.8769
  113MOL   H24143025   3.334   1.908   2.740 -0.9500  0.1948  0.3423
  113MOL   H24243026   3.296   1.908   3.014  2.3957 -0.3786  1.6929
  113MOL   H24343027   3.404   1.769   3.001 -0.8395 -1.2486 -1.3713
  113MOL   H24443028   3.154   1.729   3.005  1.1943 -0.9413  0.3835
  113MOL   H24543029   3.152   1.803   2.848  0.4977  0.9431  0.0836
  113MOL   H24643030   3.291   1.633   2.754 -1.0478  3.3236 -0.6524
  113MOL   H24743031   3.148   1.551   2.825  0.4111 -0.3678 -0.4628
  113MOL   H24843032   3.319   1.560   2.899 -1.9460  0.8226  2.3790
  113MOL   C24943033   3.449   2.245   2.952 -0.3245 -0.5035  0.5619
  113MOL   C25043034   3.337   2.321   3.023 -0.5262 -0.3406 -0.2178
  113MOL   C25143035   3.357   2.483   3.031  0.9468 -0.7757 -0.0400
  113MOL   C25243036   3.257   2.550   3.127  0.4183  0.3388 -0.0221
  113MOL   C25343037   3.278   2.701   3.136  0.4002  0.4423  0.5484
  113MOL   C25443038   3.369   2.744   3.251 -0.1575  0.8941  0.4896
  113MOL   O25543039   3.328   2.265   3.152  0.1913  0.4205 -0.3700
  113MOL   H25643040   3.534   2.218   3.014  1.3046  0.6696 -1.1273
  113MOL   H25743041   3.485   2.315   2.877  0.6611 -1.8261 -0.2222
  113MOL   H25843042   3.248   2.297   2.965 -0.3047  1.7412 -1.4342
  113MOL   H25943043   3.462   2.495   3.059  0.2982  0.1886  2.0738
  113MOL   H26043044   3.349   2.519   2.929 -0.1132 -1.5048 -0.2177
  113MOL   H26143045   3.159   2.541   3.080 -0.2499  3.4431  0.6859
  113MOL   H26243046   3.258   2.495   3.221  1.7175 -2.8963 -1.8283
  113MOL   H26343047   3.300   2.754   3.044 -0.2825 -0.3286 -0.0698
  113MOL   H26443048   3.177   2.738   3.155  0.4940  0.9168  0.1373
  113MOL   H26543049   3.373   2.853   3.252 -0.8510  0.9372 -0.5538
  113MOL   H26643050   3.462   2.687   3.249 -0.2698  0.5139  3.6527
  113MOL   H26743051   3.317   2.722   3.344 -1.2590  0.5862 -0.1922
  113MOL   C26843052   3.201   2.251   3.206 -0.2475  0.3761 -0.5607
  113MOL   C26943053   3.157   2.097   3.196  0.0304 -0.1354 -0.0792
  113MOL   C27043054   3.004   2.082   3.224 -0.6682 -0.1845 -0.1670
  113MOL   C27143055   2.949   1.952   3.168  0.5545 -0.3917  0.7850
  113MOL   C27243056   2.800   1.938   3.192 -0.7296 -0.1082  0.2916
  113MOL   C27343057   2.762   1.941   3.340 -0.3261  1.1642 -0.4106
  113MOL   O27443058   3.208   2.015   3.301  0.0106  0.1697 -0.2436
  113MOL   H27543059   3.126   2.319   3.166 -2.5788 -2.6475 -1.4526
  113MOL   H27643060   3.197   2.288   3.309 -2.0042  0.5562 -0.6888
  113MOL   H27743061   3.169   2.059   3.095 -0.7200 -3.4654  1.0416
  113MOL   H27843062   2.975   2.093   3.329 -0.1951 -0.3110 -0.0214
  113MOL   H27943063   2.947   2.156   3.167 -1.0658 -1.2793 -1.2098
  113MOL   H28043064   2.961   1.945   3.060  0.0824  0.7366  0.6569
  113MOL   H28143065   2.998   1.864   3.210 -0.9927 -0.9670  1.4085
  113MOL   H28243066   2.749   2.023   3.146  1.6836  0.0142 -2.3309
  113MOL   H28343067   2.766   1.850   3.137  0.4960  0.2621 -1.0728
  113MOL   H28443068   2.809   1.855   3.389  1.5863  2.1026 -0.5461
  113MOL   H28543069   2.783   2.029   3.401 -0.2726  0.2847  0.8667
  113MOL   H28643070   2.656   1.926   3.358  0.4297 -0.5324  2.9226
  113MOL   C28743071   3.347   1.997   3.283  0.3214  0.1484 -0.2059
  113MOL   C28843072   3.429   2.070   3.390  0.1132  0.0142 -0.1510
  113MOL   C28943073   3.576   2.080   3.341  0.3601 -0.3435  0.4828
  113MOL   C29043074   3.653   1.949   3.314  0.0855  0.2581 -0.4348
  113MOL   C29143075   3.781   1.974   3.233  0.4410  0.2367 -0.4019
  113MOL   C29243076   3.767   2.021   3.089  0.3441 -0.3496 -0.6462
  113MOL   O29343077   3.452   1.996   3.508  0.4165 -0.1403 -0.0814
  113MOL   H29443078   3.372   2.028   3.182  0.4170 -1.8395 -0.8163
  113MOL   H29543079   3.370   1.891   3.282 -0.7298 -0.0832 -1.2566
  113MOL   H29643080   3.395   2.172   3.410  2.5723  0.9859 -0.7007
  113MOL   H29743081   3.574   2.136   3.247  0.4789  0.1676  0.7774
  113MOL   H29843082   3.628   2.149   3.408  2.0199 -1.2190  0.1152
  113MOL   H29943083   3.678   1.895   3.405 -0.4297  1.2427  0.2973
  113MOL   H30043084   3.584   1.877   3.269 -1.6453  0.9618  1.0479
  113MOL   H30143085   3.834   1.878   3.227  0.5301  0.2717 -0.1571
  113MOL   H30243086   3.848   2.043   3.284  1.0721 -1.2524  0.8543
  113MOL   H30343087   3.712   2.114   3.072 -0.1253 -0.4730  0.1776
  113MOL   H30443088   3.868   2.031   3.050  1.0541 -0.4995  1.1020
  113MOL   H30543089   3.715   1.942   3.034 -0.2929 -0.2033 -0.2604
  113MOL   C30643090   3.338   1.941   3.582 -0.2539  0.1045 -0.5587
  113MOL   C30743091   3.234   2.040   3.648 -0.4073  0.3400 -0.0740
  113MOL   C30843092   3.300   2.140   3.735 -0.4627  0.3785  0.4752
  113MOL   C30943093   3.333   2.103   3.880 -0.0204  0.2881 -0.0605
  113MOL   C31043094   3.303   2.204   3.997  0.0379  0.5512 -0.2393
  113MOL   C31143095   3.371   2.163   4.128 -0.2036  0.1528 -0.5928
  113MOL   O31243096   3.126   1.969   3.705 -0.3340  0.8931  0.0943
  113MOL   H31343097   3.279   1.874   3.519 -0.9645  1.2661 -1.1683
  113MOL   H31443098   3.379   1.883   3.664 -1.1643  0.4893  0.1759
  113MOL   H31543099   3.188   2.089   3.563  2.1723  0.7183 -1.3160
  113MOL   H31643100   3.231   2.224   3.734 -2.2820 -1.0754  0.5299
  113MOL   H31743101   3.395   2.177   3.697 -0.6152 -0.5025 -0.7980
  113MOL   H31843102   3.290   2.007   3.907 -2.3378  0.7435 -1.9635
  113MOL   H31943103   3.437   2.071   3.884  0.1122  0.8168  0.9153
  113MOL   H32043104   3.194   2.210   4.002 -0.0178 -0.7970  0.2894
  113MOL   H32143105   3.342   2.298   3.957 -1.4415  0.9323 -0.8584
  113MOL   H32243106   3.475   2.181   4.098 -0.0404  1.6500  0.7824
  113MOL   H32343107   3.342   2.225   4.213  0.3536 -0.8114  0.3125
  113MOL   H32443108   3.362   2.060   4.162  0.1869  0.8936  1.8928
  113MOL   C32543109   2.992   2.025   3.684  0.3649 -0.6154  0.5127
  113MOL   C32643110   2.890   1.949   3.764 -0.3762 -0.3107  0.3139
  113MOL   C32743111   2.751   1.994   3.719  0.1538 -0.0118  0.7269
  113MOL   C32843112   2.631   1.935   3.807 -0.9570  0.5649  0.2905
  113MOL   C32943113   2.498   1.998   3.774  0.3752  0.6193 -0.1420
  113MOL   C33043114   2.374   1.957   3.856 -0.5277 -0.1837 -0.2093
  113MOL   O33143115   2.912   1.983   3.904  0.2383  0.2566  0.0789
  113MOL   H33243116   2.971   2.025   3.577  3.5321 -0.3358 -0.1732
  113MOL   H33343117   2.996   2.130   3.712 -1.6938  0.4437 -2.9373
  113MOL   H33443118   2.905   1.842   3.754  1.2091 -0.1954  1.2870
  113MOL   H33543119   2.742   2.100   3.694  0.6593 -0.2595 -0.5697
  113MOL   H33643120   2.725   1.942   3.627  1.0365  0.0669  0.4251
  113MOL   H33743121   2.625   1.827   3.801 -0.7038  0.5130  0.9389
  113MOL   H33843122   2.648   1.939   3.915 -2.0087  0.3338  0.4644
  113MOL   H33943123   2.509   2.106   3.771 -0.5401  0.6752 -2.3036
  113MOL   H34043124   2.473   1.964   3.673  0.0625  1.1577 -0.2481
  113MOL   H34143125   2.290   2.009   3.809  0.7679  0.8194 -1.4451
  113MOL   H34243126   2.355   1.850   3.851 -2.0204  0.0784 -0.4726
  113MOL   H34343127   2.388   2.003   3.954  0.7144  0.7482 -0.8135
  113MOL   C34443128   3.011   1.899   3.976  0.8513 -0.5484  0.3089
  113MOL   C34543129   2.964   1.884   4.123 -0.4860  0.8520 -0.0784
  113MOL   C34643130   2.987   2.007   4.209 -0.1479 -0.6037  0.4401
  113MOL   C34743131   2.958   1.985   4.364 -0.6588 -0.4401 -0.2270
  113MOL   C34843132   2.992   2.101   4.456 -0.1131 -0.3499  0.7483
  113MOL   C34943133   3.018   2.075   4.608  0.1707 -0.0695  1.2773
  113MOL   O35043134   2.828   1.843   4.146 -0.2463  0.1397 -0.9156
  113MOL   H35143135   3.114   1.932   3.986  0.3202  0.5782  2.4104
  113MOL   H35243136   3.027   1.806   3.921  0.7730 -0.8205  0.7360
  113MOL   H35343137   3.026   1.802   4.160 -1.5634  0.1443  0.1821
  113MOL   H35443138   2.914   2.079   4.173  1.6090 -0.1119 -2.2208
  113MOL   H35543139   3.087   2.049   4.205 -0.4464  0.0112 -0.6130
  113MOL   H35643140   3.017   1.899   4.397  0.8777  1.3787  1.9191
  113MOL   H35743141   2.854   1.957   4.378 -0.8881  1.3966  1.8993
  113MOL   H35843142   2.931   2.191   4.447 -0.5872 -0.5844  1.6288
  113MOL   H35943143   3.094   2.123   4.425 -0.8086  0.2583 -1.1883
  113MOL   H36043144   3.029   2.173   4.654  0.1436  0.7391 -0.4062
  113MOL   H36143145   3.103   2.010   4.631  0.4950  1.0275  3.2882
  113MOL   H36243146   2.937   2.025   4.663 -0.9565  2.0743  1.6133
  113MOL   C36343147   2.792   1.728   4.071 -0.9098  0.2618 -0.4022
  113MOL   C36443148   2.651   1.685   4.110  0.0842  0.4416 -0.8782
  113MOL   C36543149   2.652   1.601   4.243  0.0510  0.2447  0.2018
  113MOL   C36643150   2.509   1.541   4.267  0.2848 -0.0274  0.1151
  113MOL   C36743151   2.506   1.434   4.376  0.1305 -0.3314 -0.9152
  113MOL   C36843152   2.541   1.291   4.335  1.0301 -0.8073 -0.2403
  113MOL   O36943153   2.560   1.795   4.110  0.1320 -0.4794 -0.5243
  113MOL   H37043154   2.865   1.648   4.081  0.1286  1.2575  0.0560
  113MOL   H37143155   2.802   1.735   3.963 -0.3566  2.1305 -0.2447
  113MOL   H37243156   2.623   1.611   4.036  0.9096  0.1148 -0.8644
  113MOL   H37343157   2.720   1.517   4.227  1.4144  1.6732 -1.8410
  113MOL   H37443158   2.690   1.664   4.324  0.2654 -1.1759  1.2285
  113MOL   H37543159   2.461   1.628   4.312 -0.2614  0.0267 -0.5537
  113MOL   H37643160   2.466   1.504   4.174  0.1309 -0.2084  0.2576
  113MOL   H37743161   2.566   1.472   4.459 -1.4903  1.1075 -0.3893
  113MOL   H37843162   2.402   1.435   4.409  0.7263 -0.5094  1.0652
  113MOL   H37943163   2.450   1.240   4.304  0.7311 -1.1325  1.1578
  113MOL   H38043164   2.618   1.282   4.258  0.2611  0.8755 -1.2445
  113MOL   H38143165   2.580   1.233   4.419 -2.2628 -1.1846  1.0779
  113MOL   H38243166   2.603   1.855   4.170 -0.1200 -2.3714  1.6079
  114MOL     C143167   5.466   5.057   4.827 -0.6510 -0.2202  0.2370
  114MOL     C243168   5.553   5.054   4.694  0.1408 -0.0545  0.2929
  114MOL     C343169   5.476   5.126   4.585  0.4000  0.3200 -0.2877
  114MOL     C443170   5.544   5.114   4.447 -0.2785 -0.3472  0.6550
  114MOL     C543171   5.488   5.191   4.330  0.4820  0.5448  0.5352
  114MOL     C643172   5.561   5.162   4.197  0.9333  0.2284  1.1821
  114MOL     O743173   5.685   5.118   4.707  0.0338  0.0053  0.2588
  114MOL     H843174   5.371   5.004   4.829 -1.1515  0.6513 -0.3036
  114MOL     H943175   5.445   5.158   4.862  1.2164  0.4548 -0.4946
  114MOL    H1043176   5.567   4.950   4.664  1.3381 -0.0261  0.7229
  114MOL    H1143177   5.375   5.085   4.573  0.5914 -0.3350  0.3271
  114MOL    H1243178   5.468   5.233   4.605  0.1654  0.4135 -0.8623
  114MOL    H1343179   5.652   5.130   4.449 -0.2073 -0.9041  1.4642
  114MOL    H1443180   5.535   5.012   4.410  0.6548  0.3545 -1.6241
  114MOL    H1543181   5.384   5.160   4.313  1.0383 -2.3490  2.0195
  114MOL    H1643182   5.491   5.298   4.350  0.1681  1.2424 -2.8505
  114MOL    H1743183   5.568   5.055   4.181  0.1920 -0.3490  4.4685
  114MOL    H1843184   5.507   5.215   4.118  2.1273 -0.6773 -0.2549
  114MOL    H1943185   5.666   5.192   4.197  0.9453  0.2033 -0.0361
  114MOL    H2043186   5.525   5.023   4.912 -0.6402 -1.0228 -0.0934
  114MOL    C2143187   5.775   5.029   4.779 -0.1677  0.5230 -0.5738
  114MOL    C2243188   5.920   5.065   4.743  0.4460 -0.3833 -0.0455
  114MOL    C2343189   6.019   5.028   4.854  0.0209  0.0332 -0.5805
  114MOL    C2443190   6.027   4.874   4.888  0.1500  0.6991 -0.4752
  114MOL    C2543191   6.118   4.849   5.017 -1.0738  0.1218  0.5206
  114MOL    C2643192   6.053   4.896   5.145  0.1861  0.1963 -0.1813
  114MOL    O2743193   5.971   4.993   4.625  0.2362 -0.5873 -0.5263
  114MOL    H2843194   5.775   5.046   4.886 -1.1605  0.5752 -0.5788
  114MOL    H2943195   5.766   4.921   4.771  1.8168  0.4023 -1.3887
  114MOL    H3043196   5.932   5.170   4.716 -2.2492 -0.9665 -4.0168
  114MOL    H3143197   5.983   5.072   4.947 -0.2166  0.4677 -0.8734
  114MOL    H3243198   6.121   5.063   4.844  0.0033  0.1048 -0.5108
  114MOL    H3343199   6.064   4.824   4.798 -1.5658  2.8620 -2.4506
  114MOL    H3443200   5.931   4.823   4.882  1.7471 -2.2597 -2.0633
  114MOL    H3543201   6.132   4.741   5.025  0.4129  0.3321  0.9110
  114MOL    H3643202   6.209   4.905   4.999 -1.8964  0.9620 -1.1250
  114MOL    H3743203   6.100   4.846   5.229 -0.9877 -0.5895  0.0262
  114MOL    H3843204   5.945   4.883   5.154  0.0985  1.3148  0.5822
  114MOL    H3943205   6.077   5.002   5.157 -1.4775  0.6479 -0.6313
  114MOL    C4043206   5.906   5.036   4.510 -0.5150  0.2136  0.2341
  114MOL    C4143207   5.997   4.999   4.386  0.0395  0.8226  0.4412
  114MOL    C4243208   6.061   4.861   4.398  0.1788  0.2800  0.2792
  114MOL    C4343209   6.108   4.807   4.260 -0.5130  0.1942  0.4625
  114MOL    C4443210   6.176   4.673   4.251 -0.1074 -0.2033  0.6341
  114MOL    C4543211   6.183   4.614   4.111  0.1535  0.1635 -0.0381
  114MOL    O4643212   6.102   5.086   4.355 -0.2741 -0.6577  0.0777
  114MOL    H4743213   5.878   5.141   4.517  1.2687  0.8708 -2.0041
  114MOL    H4843214   5.814   4.977   4.505  0.5505 -1.5500  1.1717
  114MOL    H4943215   5.928   4.985   4.302 -0.1976 -2.4468  1.1493
  114MOL    H5043216   6.146   4.854   4.466  2.2778 -2.0530 -2.4662
  114MOL    H5143217   5.994   4.784   4.435 -1.7297  1.4723 -0.6370
  114MOL    H5243218   6.158   4.885   4.203 -0.1438 -1.0609 -0.9743
  114MOL    H5343219   6.024   4.791   4.192  1.0942 -0.4093 -1.4077
  114MOL    H5443220   6.280   4.679   4.284  0.5402 -0.2314 -1.3437
  114MOL    H5543221   6.115   4.614   4.320  1.0046 -2.4231 -0.2400
  114MOL    H5643222   6.251   4.530   4.119  1.3234  1.1495  0.6770
  114MOL    H5743223   6.081   4.586   4.085  0.4979 -0.1608 -1.0620
  114MOL    H5843224   6.229   4.680   4.037  1.1488 -1.7966 -1.2179
  114MOL    C5943225   6.067   5.218   4.318  0.4352 -0.0549  0.0222
  114MOL    C6043226   6.206   5.302   4.302 -0.2047 -0.2800 -0.0342
  114MOL    C6143227   6.195   5.403   4.188 -0.6172 -0.3122 -0.6035
  114MOL    C6243228   6.322   5.474   4.144 -0.3668  0.7805 -0.6538
  114MOL    C6343229   6.293   5.585   4.050  0.1454  0.2010 -0.5117
  114MOL    C6443230   6.421   5.642   3.981  0.3806 -0.3624  0.2371
  114MOL    O6543231   6.215   5.387   4.414 -0.4123 -0.3813 -0.1730
  114MOL    H6643232   6.007   5.261   4.398  1.3043  1.3018 -0.0381
  114MOL    H6743233   6.011   5.220   4.225 -0.2182  2.1986  0.4416
  114MOL    H6843234   6.295   5.241   4.289  0.5242  0.5368  1.0190
  114MOL    H6943235   6.121   5.481   4.207  1.1440  1.6688 -1.6694
  114MOL    H7043236   6.156   5.350   4.100  0.2719  1.0234 -1.8257
  114MOL    H7143237   6.377   5.401   4.084 -0.8473 -1.0006  1.0433
  114MOL    H7243238   6.381   5.512   4.227 -0.1540  0.9747 -0.8918
  114MOL    H7343239   6.240   5.661   4.108  1.0019  0.6025 -0.2514
  114MOL    H7443240   6.219   5.558   3.974 -1.2491  0.7113  0.6398
  114MOL    H7543241   6.460   5.577   3.904 -1.4956  0.3840 -1.3895
  114MOL    H7643242   6.387   5.740   3.949  1.1138 -0.5074 -1.0015
  114MOL    H7743243   6.491   5.647   4.064 -1.2516 -3.7614  1.9329
  114MOL    C7843244   6.246   5.320   4.543 -0.5079  0.1983  0.0136
  114MOL    C7943245   6.385   5.255   4.558  0.1634  0.3415  0.7002
  114MOL    C8043246   6.390   5.160   4.677 -0.3706  0.3888  0.8228
  114MOL    C8143247   6.514   5.068   4.675  0.2034 -0.4505  0.0137
  114MOL    C8243248   6.506   4.969   4.792 -0.3819  0.0566 -0.2323
  114MOL    C8343249   6.624   4.879   4.808  0.1807  0.0633  0.3402
  114MOL    O8443250   6.479   5.372   4.560 -0.1864  0.0678  0.0322
  114MOL    H8543251   6.156   5.263   4.567 -0.3981 -0.1506 -0.4065
  114MOL    H8643252   6.247   5.406   4.611 -1.6549  0.6693 -0.5366
  114MOL    H8743253   6.414   5.190   4.475  3.1131  0.6419  1.4408
  114MOL    H8843254   6.370   5.205   4.774 -2.0658 -0.2692  0.7969
  114MOL    H8943255   6.296   5.106   4.666 -0.8725  1.6293 -1.2264
  114MOL    H9043256   6.608   5.123   4.660 -0.1312  0.3547  0.7905
  114MOL    H9143257   6.518   5.005   4.586  1.9214 -2.0271  1.1763
  114MOL    H9243258   6.496   5.027   4.883 -2.6283 -1.4289  0.5028
  114MOL    H9343259   6.415   4.910   4.780 -0.3886  0.3168 -1.6108
  114MOL    H9443260   6.617   4.782   4.760 -0.2385  0.0298  0.4670
  114MOL    H9543261   6.637   4.860   4.915  0.6815  2.0716  0.6696
  114MOL    H9643262   6.715   4.917   4.762  1.2221 -0.8662  1.6183
  114MOL    C9743263   6.564   5.371   4.436 -0.8067  0.3192 -0.0021
  114MOL    C9843264   6.631   5.504   4.428  0.5439 -0.0446  0.8264
  114MOL    C9943265   6.752   5.502   4.325  0.2325  0.0385 -0.1297
  114MOL   C10043266   6.875   5.576   4.379 -0.7669 -0.1350  0.2923
  114MOL   C10143267   7.005   5.511   4.308 -0.2035 -0.3580 -0.1649
  114MOL   C10243268   7.132   5.596   4.345 -0.0393  0.1390 -0.7886
  114MOL   O10343269   6.529   5.593   4.386 -1.2084  0.1670 -0.2388
  114MOL   H10443270   6.501   5.356   4.348 -2.2460 -1.4057  1.2842
  114MOL   H10543271   6.648   5.304   4.455  0.3375  2.1488  1.5881
  114MOL   H10643272   6.659   5.546   4.524 -2.4846  2.2867  0.7633
  114MOL   H10743273   6.718   5.528   4.225  0.0600 -0.2539 -0.1487
  114MOL   H10843274   6.778   5.397   4.312  0.4529 -0.0388  0.8559
  114MOL   H10943275   6.866   5.569   4.488 -1.7172  2.9793  0.4509
  114MOL   H11043276   6.865   5.681   4.352  2.2414 -0.0938 -0.8793
  114MOL   H11143277   6.992   5.508   4.200 -2.6191 -0.6477  0.1082
  114MOL   H11243278   7.026   5.408   4.336  1.6695  0.0155 -0.1142
  114MOL   H11343279   7.117   5.634   4.446  1.9909  1.0242 -0.7893
  114MOL   H11443280   7.219   5.538   4.316 -0.0321 -0.4461  0.3812
  114MOL   H11543281   7.129   5.689   4.288  1.6163 -0.6749 -2.2270
  114MOL   C11643282   6.556   5.728   4.428  0.4648 -0.2597 -0.0096
  114MOL   C11743283   6.461   5.822   4.350 -0.4034 -0.1127 -0.3888
  114MOL   C11843284   6.513   5.969   4.340 -0.3713  0.3010 -0.1538
  114MOL   C11943285   6.459   6.044   4.215  0.1423  0.1078  0.6175
  114MOL   C12043286   6.489   6.194   4.207 -0.2554 -0.2920  0.5935
  114MOL   C12143287   6.417   6.275   4.313  0.1432  0.0456 -0.6503
  114MOL   O12243288   6.348   5.822   4.435 -0.4019 -0.0432  0.3397
  114MOL   H12343289   6.526   5.736   4.533 -2.2456  0.0655 -0.7872
  114MOL   H12443290   6.659   5.754   4.403  0.4608 -1.7384 -1.6900
  114MOL   H12543291   6.464   5.775   4.252 -0.4555 -0.1622 -0.3663
  114MOL   H12643292   6.471   6.019   4.427 -0.7007 -2.2715  1.2056
  114MOL   H12743293   6.621   5.974   4.326 -0.3035  0.0033  0.2821
  114MOL   H12843294   6.352   6.026   4.209 -0.0974  1.2088  1.6142
  114MOL   H12943295   6.497   5.992   4.127 -0.5075  1.7176 -0.6480
  114MOL   H13043296   6.597   6.209   4.210 -0.1588 -0.3680 -1.8195
  114MOL   H13143297   6.455   6.230   4.110  0.8942 -0.4624  0.1166
  114MOL   H13243298   6.310   6.258   4.298  0.5802 -2.2451 -1.2055
  114MOL   H13343299   6.448   6.260   4.416 -1.7589 -2.0620 -0.3437
  114MOL   H13443300   6.437   6.381   4.295 -0.1049  0.9684  3.8550
  114MOL   C13543301   6.257   5.718   4.429 -0.1509 -0.8700  0.2203
  114MOL   C13643302   6.116   5.758   4.472 -0.4174 -0.2282 -0.2021
  114MOL   C13743303   6.042   5.630   4.514 -0.7372  0.3176  0.8476
  114MOL   C13843304   5.919   5.656   4.594  1.0222  0.0143 -0.1499
  114MOL   C13943305   5.874   5.538   4.673 -0.7313  0.7228  0.4382
  114MOL   C14043306   5.797   5.427   4.601  0.2468 -0.4163  0.5676
  114MOL   O14143307   6.039   5.819   4.367  0.4701  0.2299 -0.1175
  114MOL   H14243308   6.246   5.683   4.326  1.8591  2.6253 -1.2562
  114MOL   H14343309   6.312   5.634   4.470  2.0145 -0.4123 -1.6341
  114MOL   H14443310   6.121   5.823   4.560 -0.0146 -1.0159  0.3659
  114MOL   H14543311   6.027   5.572   4.424  3.2745  0.7076 -0.1641
  114MOL   H14643312   6.116   5.576   4.574  0.7454 -0.8353 -1.9163
  114MOL   H14743313   5.850   5.691   4.516  1.0916 -0.7308 -0.5494
  114MOL   H14843314   5.940   5.736   4.664  1.3981 -0.9309  0.8229
  114MOL   H14943315   5.799   5.567   4.746  0.4828 -0.6197  2.2663
  114MOL   H15043316   5.962   5.492   4.719 -0.7226 -1.6818 -1.8889
  114MOL   H15143317   5.851   5.398   4.511 -0.2990  1.1532 -0.3001
  114MOL   H15243318   5.782   5.335   4.657 -0.0522 -0.4109  0.4973
  114MOL   H15343319   5.700   5.469   4.574 -1.1318 -2.9268  1.5224
  114MOL   C15443320   6.099   5.942   4.323  0.6732  1.0170  0.4949
  114MOL   C15543321   6.004   6.027   4.235  0.7736  0.0214 -0.6496
  114MOL   C15643322   6.035   6.179   4.252 -0.6892  0.6449 -0.1819
  114MOL   C15743323   5.940   6.282   4.195  0.5034  0.1261 -0.2409
  114MOL   C15843324   5.986   6.428   4.189 -0.1769 -0.3343  0.2844
  114MOL   C15943325   5.869   6.512   4.139 -0.2348 -0.0338 -0.1960
  114MOL   O16043326   5.999   5.985   4.100 -0.0676  0.2276 -0.5339
  114MOL   H16143327   6.177   5.906   4.256 -1.3071 -0.9392 -0.8036
  114MOL   H16243328   6.154   5.985   4.407  1.2495 -2.2723  1.8879
  114MOL   H16343329   5.902   6.012   4.270  1.7687 -1.1800  1.9403
  114MOL   H16443330   6.131   6.182   4.201 -0.8064  3.7011 -0.3187
  114MOL   H16543331   6.051   6.202   4.357 -0.2724  0.3371 -0.1764
  114MOL   H16643332   5.844   6.279   4.245  1.5634 -0.4508  1.8309
  114MOL   H16743333   5.903   6.254   4.096  1.2347 -1.3256 -0.1099
  114MOL   H16843334   6.026   6.457   4.286  2.1927 -1.4149 -0.3464
  114MOL   H16943335   6.069   6.429   4.119 -1.0539  1.6643 -0.7655
  114MOL   H17043336   5.789   6.526   4.212  0.1214  2.7342 -0.2679
  114MOL   H17143337   5.820   6.480   4.047  0.0032  0.0554 -0.3531
  114MOL   H17243338   5.900   6.612   4.107 -0.0022  0.3297  1.1671
  114MOL   C17343339   5.977   5.846   4.072 -0.4332 -0.3687  0.2188
  114MOL   C17443340   5.920   5.819   3.934  0.0491 -0.2031 -0.2044
  114MOL   C17543341   5.925   5.668   3.900 -0.4934  0.6687 -0.0481
  114MOL   C17643342   5.832   5.635   3.784  0.5309  0.3595  0.8405
  114MOL   C17743343   5.855   5.491   3.733 -0.2572  0.2888 -0.3361
  114MOL   C17843344   5.783   5.382   3.825  0.9595  0.1610 -0.6353
  114MOL   O17943345   5.788   5.859   3.937  0.5436 -0.1315  0.3564
  114MOL   H18043346   5.922   5.796   4.151 -1.6041  1.9135  0.9158
  114MOL   H18143347   6.069   5.788   4.066  1.4466  2.5147  0.0765
  114MOL   H18243348   5.983   5.872   3.862 -0.8972  1.6593  0.3236
  114MOL   H18343349   6.025   5.649   3.861 -0.6151  0.4337 -0.2453
  114MOL   H18443350   5.899   5.601   3.982  1.3645 -1.3108 -0.9913
  114MOL   H18543351   5.726   5.647   3.808  0.3622  1.3563 -0.3594
  114MOL   H18643352   5.844   5.709   3.705  1.2274 -0.2763  0.3419
  114MOL   H18743353   5.830   5.476   3.628 -3.4407  0.6662  0.3040
  114MOL   H18843354   5.963   5.484   3.748 -0.1107  1.5243 -0.6986
  114MOL   H18943355   5.763   5.286   3.779  0.7862  0.6858 -1.6759
  114MOL   H19043356   5.693   5.416   3.875  1.3867  0.9672 -0.4110
  114MOL   H19143357   5.839   5.352   3.914 -0.6840 -2.1131 -0.3240
  114MOL   C19243358   5.767   5.988   3.877 -0.3884 -0.0404  0.1250
  114MOL   C19343359   5.617   6.018   3.889  0.3216 -0.5788  0.3312
  114MOL   C19443360   5.578   6.118   3.776 -0.2468 -0.1852 -0.6201
  114MOL   C19543361   5.433   6.148   3.770  0.6028 -0.0893 -0.7047
  114MOL   C19643362   5.383   6.203   3.629  1.0411 -0.1946  0.4414
  114MOL   C19743363   5.236   6.260   3.617  0.0250  0.1389 -0.0692
  114MOL   O19843364   5.602   6.077   4.017  0.2481 -0.0032  0.4217
  114MOL   H19943365   5.834   6.062   3.922 -0.2154 -0.1875  0.1073
  114MOL   H20043366   5.799   5.978   3.774 -0.1573 -0.4829  0.2380
  114MOL   H20143367   5.548   5.934   3.886 -0.8264  0.2608  2.4111
  114MOL   H20243368   5.632   6.213   3.784 -0.0321 -0.4075  0.5466
  114MOL   H20343369   5.605   6.067   3.683  0.8585  1.1902 -1.0808
  114MOL   H20443370   5.400   6.226   3.839 -0.5372 -0.7995 -0.4222
  114MOL   H20543371   5.382   6.054   3.795  0.3532  0.3219  0.3892
  114MOL   H20643372   5.453   6.271   3.581  1.9356 -0.3310  1.5316
  114MOL   H20743373   5.383   6.120   3.558  2.2448  0.1697  0.0027
  114MOL   H20843374   5.242   6.354   3.671 -0.5928  0.8388 -1.2044
  114MOL   H20943375   5.200   6.275   3.515 -0.1946  1.8508  0.2400
  114MOL   H21043376   5.161   6.198   3.666  1.1234 -0.6822  0.5953
  114MOL   C21143377   5.593   5.986   4.133 -0.7220  0.2711  0.1536
  114MOL   C21243378   5.581   6.073   4.261 -0.1356  0.1073 -0.5533
  114MOL   C21343379   5.596   6.001   4.395  0.5958 -0.1585  0.0220
  114MOL   C21443380   5.597   6.087   4.522 -0.3310  0.5872 -0.0855
  114MOL   C21543381   5.660   6.016   4.649  0.2529 -0.2843  0.6010
  114MOL   C21643382   5.818   6.020   4.635 -0.2376  0.1388  0.1169
  114MOL   O21743383   5.444   6.121   4.269  0.2684  0.6031 -0.0439
  114MOL   H21843384   5.680   5.920   4.128 -0.5419  0.6048 -1.3261
  114MOL   H21943385   5.506   5.921   4.124  0.7277 -1.6300 -0.5162
  114MOL   H22043386   5.646   6.159   4.272  1.1113 -0.6345 -1.9395
  114MOL   H22143387   5.519   5.923   4.400  0.0125  0.2996 -1.5515
  114MOL   H22243388   5.695   5.959   4.381  1.5657  2.4546 -1.2075
  114MOL   H22343389   5.652   6.181   4.509  0.7231 -0.1292 -0.8579
  114MOL   H22443390   5.494   6.116   4.543 -0.1867  0.0903  1.3893
  114MOL   H22543391   5.631   6.067   4.741 -3.0916  0.2403 -0.6929
  114MOL   H22643392   5.632   5.913   4.666 -2.0686  0.4633  1.4041
  114MOL   H22743393   5.856   5.968   4.547  0.7225 -0.6813  0.9979
  114MOL   H22843394   5.872   5.978   4.719  1.9184  2.3667 -0.1038
  114MOL   H22943395   5.852   6.123   4.627  1.4559 -0.2450  2.1698
  114MOL   C23043396   5.398   6.215   4.164 -0.1117  0.4356 -0.0593
  114MOL   C23143397   5.292   6.304   4.219  0.0763  0.4145  0.2725
  114MOL   C23243398   5.163   6.323   4.135 -0.3471 -0.2860 -0.0868
  114MOL   C23343399   5.045   6.392   4.224  0.0673  0.5885 -0.1034
  114MOL   C23443400   4.912   6.417   4.148  0.3079  0.5610  0.9494
  114MOL   C23543401   4.850   6.304   4.069  0.6596 -1.1746 -0.3708
  114MOL   O23643402   5.349   6.427   4.263  0.0704  0.1026 -0.0737
  114MOL   H23743403   5.476   6.274   4.115  0.4847  0.6267  1.1098
  114MOL   H23843404   5.361   6.149   4.086 -1.2572 -1.3819  2.0051
  114MOL   H23943405   5.247   6.246   4.300 -0.0759 -1.7520 -1.3188
  114MOL   H24043406   5.124   6.228   4.099 -1.6551  0.1767  0.1100
  114MOL   H24143407   5.185   6.380   4.044 -1.5679  0.8085  0.2888
  114MOL   H24243408   5.070   6.488   4.269 -2.0368  1.1389 -0.0578
  114MOL   H24343409   5.022   6.320   4.303  2.0173  0.9434  0.8235
  114MOL   H24443410   4.835   6.457   4.214 -0.0312 -1.9457  2.1690
  114MOL   H24543411   4.929   6.499   4.079 -0.1723 -0.3725 -0.2996
  114MOL   H24643412   4.912   6.281   3.983  2.8277  1.1551  0.4803
  114MOL   H24743413   4.753   6.333   4.030  0.4738  0.2631  1.0885
  114MOL   H24843414   4.825   6.218   4.130  3.7569 -1.2913  0.8647
  114MOL   C24943415   5.446   6.416   4.367 -0.3646 -0.5430  0.2243
  114MOL   C25043416   5.493   6.553   4.414 -0.4111  1.1269 -0.0156
  114MOL   C25143417   5.500   6.647   4.293 -0.3339  0.0290 -0.1375
  114MOL   C25243418   5.559   6.786   4.323 -0.8170 -0.1303 -0.2662
  114MOL   C25343419   5.707   6.799   4.339  0.4351  0.2233 -0.3049
  114MOL   C25443420   5.758   6.946   4.325  0.3215  0.3700  0.0127
  114MOL   O25543421   5.628   6.535   4.461 -0.6139 -0.0653  0.7553
  114MOL   H25643422   5.405   6.365   4.454  1.6040  1.2838  2.2802
  114MOL   H25743423   5.526   6.347   4.342 -0.5696 -0.2785 -1.1721
  114MOL   H25843424   5.427   6.593   4.491  0.4749  1.1478  0.7381
  114MOL   H25943425   5.566   6.600   4.221 -0.5195  1.3851 -1.2190
  114MOL   H26043426   5.406   6.667   4.242  0.7361 -0.3547 -2.3313
  114MOL   H26143427   5.533   6.852   4.240  2.9371  2.7519  0.7341
  114MOL   H26243428   5.516   6.828   4.414 -0.9175  0.4842 -0.5917
  114MOL   H26343429   5.740   6.767   4.438 -1.4884  0.4746  0.4310
  114MOL   H26443430   5.765   6.743   4.265 -0.2319  1.7387 -2.0040
  114MOL   H26543431   5.677   7.017   4.346 -0.6351 -0.4935 -0.7070
  114MOL   H26643432   5.793   6.960   4.223 -0.1771 -0.8905 -0.3357
  114MOL   H26743433   5.836   6.964   4.399  0.3285 -0.4106  0.1996
  114MOL   C26843434   5.625   6.508   4.601 -0.4973  0.4441  0.3074
  114MOL   C26943435   5.766   6.460   4.639  0.1824 -0.9472  0.0649
  114MOL   C27043436   5.764   6.386   4.774  0.0824 -0.3831 -0.3277
  114MOL   C27143437   5.724   6.475   4.894  0.1951 -0.1910 -0.5588
  114MOL   C27243438   5.715   6.398   5.026 -0.6007 -0.1963 -0.0551
  114MOL   C27343439   5.628   6.474   5.124 -0.0198  0.1204 -0.2245
  114MOL   O27443440   5.864   6.562   4.646  0.2227  0.3152  0.3674
  114MOL   H27543441   5.560   6.426   4.630 -0.2957  0.3319  0.4478
  114MOL   H27643442   5.588   6.594   4.658 -1.4671  0.6417 -0.6163
  114MOL   H27743443   5.799   6.393   4.559 -0.0996 -0.4757 -0.4536
  114MOL   H27843444   5.691   6.305   4.765 -0.3111 -0.0191 -0.4120
  114MOL   H27943445   5.857   6.331   4.792  0.6694  0.1774 -1.6040
  114MOL   H28043446   5.805   6.547   4.906 -1.8458  2.3794 -1.6964
  114MOL   H28143447   5.622   6.505   4.872  0.2041 -1.2986 -2.1781
  114MOL   H28243448   5.676   6.299   5.003  0.5879 -0.2541 -1.9008
  114MOL   H28343449   5.816   6.393   5.067 -0.8719  0.1893  0.6658
  114MOL   H28443450   5.652   6.436   5.223 -1.0767  0.4167  0.1523
  114MOL   H28543451   5.658   6.578   5.136 -2.7225  0.9132  0.1643
  114MOL   H28643452   5.522   6.478   5.096 -0.1440 -0.6023  0.1223
  114MOL   C28743453   5.962   6.560   4.545 -0.6944 -1.4041 -0.2520
  114MOL   C28843454   6.066   6.676   4.575 -0.6667 -0.1050  0.0960
  114MOL   C28943455   6.139   6.714   4.444 -0.0789  0.0750 -0.3122
  114MOL   C29043456   6.228   6.845   4.450  0.4181  0.3477  0.5564
  114MOL   C29143457   6.145   6.973   4.419 -0.4881 -0.4196 -0.2504
  114MOL   C29243458   6.220   7.104   4.444  0.0758  0.0739 -0.4922
  114MOL   O29343459   6.166   6.629   4.661  0.0848  0.2310 -0.0538
  114MOL   H29443460   5.922   6.577   4.446 -0.0144  0.4121 -0.2347
  114MOL   H29543461   6.017   6.467   4.533  1.0981 -0.5277  0.9556
  114MOL   H29643462   6.021   6.765   4.620  1.1483  0.7656  0.2110
  114MOL   H29743463   6.204   6.627   4.431  1.1358  0.9843 -0.4558
  114MOL   H29843464   6.079   6.712   4.354  1.2743 -0.7310 -1.2187
  114MOL   H29943465   6.272   6.854   4.550 -0.6140  0.6433  0.9967
  114MOL   H30043466   6.304   6.843   4.373  0.3631  3.3728  0.3874
  114MOL   H30143467   6.064   6.965   4.491 -1.1484 -0.6706 -1.0181
  114MOL   H30243468   6.095   6.970   4.322 -2.1747 -2.3816  0.6724
  114MOL   H30343469   6.263   7.090   4.543  0.2395  1.0057 -0.4294
  114MOL   H30443470   6.305   7.131   4.380 -0.9920  2.9351 -0.7463
  114MOL   H30543471   6.143   7.180   4.444  0.1160  0.1117 -0.2528
  114MOL   C30643472   6.126   6.547   4.772  0.8472 -0.8673  0.6588
  114MOL   C30743473   6.253   6.529   4.858 -0.6058  0.3574 -0.1489
  114MOL   C30843474   6.229   6.423   4.968 -1.1719  0.8371 -0.6246
  114MOL   C30943475   6.111   6.449   5.066 -0.5529 -0.3708 -0.1952
  114MOL   C31043476   6.119   6.375   5.199  0.6014 -0.3506  0.7028
  114MOL   C31143477   6.090   6.220   5.189  0.6874 -0.1955  0.1414
  114MOL   O31243478   6.281   6.651   4.930 -0.5620 -0.2136  0.3019
  114MOL   H31343479   6.047   6.599   4.826 -2.1172 -3.1998 -1.3072
  114MOL   H31443480   6.100   6.449   4.734 -1.7678  0.5344 -1.3000
  114MOL   H31543481   6.333   6.495   4.793 -2.2263 -3.0744 -0.4468
  114MOL   H31643482   6.323   6.411   5.021 -0.0692 -0.1580 -2.7441
  114MOL   H31743483   6.211   6.328   4.918  0.1925  1.4081 -2.2509
  114MOL   H31843484   6.111   6.556   5.085  0.4234 -0.7070  1.8313
  114MOL   H31943485   6.017   6.420   5.019 -0.3419 -0.1448 -0.7580
  114MOL   H32043486   6.042   6.414   5.264  0.0779  2.6481 -1.5834
  114MOL   H32143487   6.215   6.400   5.245  1.6386 -1.7338 -0.6162
  114MOL   H32243488   6.164   6.178   5.121 -0.9140 -1.6848 -0.7153
  114MOL   H32343489   6.082   6.160   5.280 -0.5983 -1.3910 -0.7461
  114MOL   H32443490   6.002   6.207   5.127  0.2645  1.4338  0.3668
  114MOL   C32543491   6.388   6.720   4.872  0.5841  0.2168 -0.3935
  114MOL   C32643492   6.406   6.860   4.940 -0.2993 -0.4371 -0.2917
  114MOL   C32743493   6.403   6.854   5.091  0.2091 -0.6030  0.1262
  114MOL   C32843494   6.448   6.994   5.147  0.0295 -0.3557 -0.5009
  114MOL   C32943495   6.454   6.986   5.300  0.3389  0.3469  0.3139
  114MOL   C33043496   6.495   7.123   5.353 -0.4318  0.1696  0.5151
  114MOL   O33143497   6.323   6.965   4.888  0.1944 -0.1344 -0.2229
  114MOL   H33243498   6.360   6.721   4.767 -0.7604 -0.3934 -0.0462
  114MOL   H33343499   6.481   6.665   4.887 -0.6498 -1.3757  1.6100
  114MOL   H33443500   6.504   6.900   4.911 -0.0371 -0.6322  0.3032
  114MOL   H33543501   6.304   6.825   5.127  0.1056 -1.2434 -0.6607
  114MOL   H33643502   6.472   6.774   5.118  1.7671  0.8741  0.6050
  114MOL   H33743503   6.544   7.027   5.106 -0.0200 -0.8062 -0.9935
  114MOL   H33843504   6.373   7.069   5.123  0.7249  0.2815 -0.7220
  114MOL   H33943505   6.354   6.961   5.334  0.4314  0.8844  0.9975
  114MOL   H34043506   6.523   6.907   5.330  0.4216  0.9460  1.7601
  114MOL   H34143507   6.590   7.157   5.312  0.5405 -0.5913  2.0987
  114MOL   H34243508   6.421   7.202   5.343  0.0151  0.5834  0.4552
  114MOL   H34343509   6.510   7.114   5.460  2.4106  0.9278  0.2414
  114MOL   C34443510   6.187   6.940   4.908  0.1455 -1.2419  0.1433
  114MOL   C34543511   6.098   7.052   4.854  0.1915 -0.3222 -0.3564
  114MOL   C34643512   5.948   7.017   4.871  0.2048  0.6519  0.5043
  114MOL   C34743513   5.861   7.087   4.761  0.1969  0.2302  0.4134
  114MOL   C34843514   5.711   7.069   4.794 -0.4021 -0.2394  0.4044
  114MOL   C34943515   5.659   6.936   4.734  0.5808 -0.5026  0.3315
  114MOL   O35043516   6.132   7.165   4.933  0.2699 -0.0214 -0.3985
  114MOL   H35143517   6.165   6.944   5.015 -0.7951 -1.0274 -0.0588
  114MOL   H35243518   6.159   6.841   4.873 -3.2113  0.1476 -1.2341
  114MOL   H35343519   6.119   7.060   4.747  0.6947  1.0435 -0.1672
  114MOL   H35443520   5.919   7.042   4.973 -2.2763  0.1449 -0.0341
  114MOL   H35543521   5.923   6.912   4.856 -2.4624  1.3856 -0.5446
  114MOL   H35643522   5.889   7.040   4.667 -0.8232  1.8779 -0.7176
  114MOL   H35743523   5.888   7.193   4.759  0.6615  0.1053  0.0639
  114MOL   H35843524   5.661   7.154   4.748  1.1110 -0.1208 -1.0893
  114MOL   H35943525   5.707   7.088   4.901 -2.5949  0.0267  0.2919
  114MOL   H36043526   5.721   6.853   4.766  2.7510  1.0933  0.3121
  114MOL   H36143527   5.671   6.946   4.626  2.0540  3.2051  0.7688
  114MOL   H36243528   5.557   6.911   4.764  0.0262  0.2669 -0.8421
  114MOL   C36343529   6.142   7.282   4.860  0.0636  0.0768 -0.7595
  114MOL   C36443530   6.280   7.328   4.836 -0.4847  0.3229 -0.4627
  114MOL   C36543531   6.364   7.354   4.962  0.6448  0.0119  0.1496
  114MOL   C36643532   6.496   7.425   4.930  0.2668 -0.6833  0.7773
  114MOL   C36743533   6.586   7.422   5.054 -0.5178  0.4260 -0.0481
  114MOL   C36843534   6.720   7.488   5.030 -0.3862 -0.1485  0.9288
  114MOL   O36943535   6.348   7.242   4.751 -0.0222  0.3031 -0.3459
  114MOL   H37043536   6.096   7.366   4.913 -0.6172 -0.0514 -1.1378
  114MOL   H37143537   6.082   7.283   4.769 -0.2052  1.1011 -0.5841
  114MOL   H37243538   6.262   7.425   4.789 -2.5647 -0.0294 -0.4744
  114MOL   H37343539   6.311   7.409   5.040 -3.2532  1.4239 -3.3250
  114MOL   H37443540   6.384   7.256   5.006  1.3312 -0.2350 -0.6864
  114MOL   H37543541   6.553   7.369   4.855  1.5934 -0.0303  1.2826
  114MOL   H37643542   6.479   7.528   4.898  1.4741 -0.5936  0.3660
  114MOL   H37743543   6.531   7.458   5.141 -1.8099  1.1924 -1.1703
  114MOL   H37843544   6.594   7.317   5.083 -0.1246 -0.2357 -2.4555
  114MOL   H37943545   6.794   7.445   5.097 -0.6360 -1.6304  0.2593
  114MOL   H38043546   6.760   7.465   4.932 -0.8140 -1.8823  1.1472
  114MOL   H38143547   6.711   7.597   5.038  3.3936  0.3279 -0.3926
  114MOL   H38243548   6.359   7.162   4.800 -1.0829 -0.4564 -1.3119
  115MOL     C143549   4.496   6.534   6.295 -0.5641  0.1459  0.1850
  115MOL     C243550   4.569   6.431   6.208 -0.1972 -1.0067 -0.0825
  115MOL     C343551   4.647   6.334   6.287  0.6870  0.2495  0.0655
  115MOL     C443552   4.764   6.254   6.218  0.2716  0.5107  0.0267
  115MOL     C543553   4.874   6.180   6.291  0.1747 -0.4246  0.2989
  115MOL     C643554   4.947   6.075   6.208  0.0978  0.4125 -0.0997
  115MOL     O743555   4.466   6.350   6.143 -0.5143 -0.1377  0.0595
  115MOL     H843556   4.571   6.596   6.345 -1.4137  0.6792  0.8251
  115MOL     H943557   4.447   6.497   6.386 -3.4545  0.7072 -1.0895
  115MOL    H1043558   4.638   6.477   6.138  2.1291  1.8388  3.9604
  115MOL    H1143559   4.697   6.381   6.372 -0.4296 -0.5260  1.1839
  115MOL    H1243560   4.581   6.254   6.322 -0.7322  0.5987 -1.7550
  115MOL    H1343561   4.723   6.186   6.144 -0.7331  0.1011  0.9458
  115MOL    H1443562   4.808   6.324   6.147 -0.0500 -0.0228 -0.7033
  115MOL    H1543563   4.936   6.267   6.312 -2.6047  1.4579  1.1074
  115MOL    H1643564   4.832   6.136   6.382 -0.3772  2.0049  1.2581
  115MOL    H1743565   5.045   6.058   6.253 -0.7736 -1.7197  1.0759
  115MOL    H1843566   4.893   5.980   6.205 -0.8121  0.8907  0.7475
  115MOL    H1943567   4.957   6.092   6.101 -0.0681  2.7402  0.2182
  115MOL    H2043568   4.422   6.593   6.241  0.0178 -0.3851 -1.2014
  115MOL    C2143569   4.483   6.327   6.006  0.0349 -0.1941  0.0370
  115MOL    C2243570   4.359   6.249   5.955 -0.4608  0.0066  0.5813
  115MOL    C2343571   4.335   6.279   5.811  0.0789  0.0718 -0.1250
  115MOL    C2443572   4.228   6.193   5.752  0.4895  0.5039 -0.0646
  115MOL    C2543573   4.192   6.222   5.604 -0.6557  1.1951  0.3432
  115MOL    C2643574   4.302   6.182   5.503 -0.0911  0.4912  0.6708
  115MOL    O2743575   4.390   6.110   5.963  0.1310  0.0142 -0.0786
  115MOL    H2843576   4.498   6.423   5.955 -2.1817 -0.4249 -1.1165
  115MOL    H2943577   4.575   6.273   5.988  0.0620  0.2832 -1.3200
  115MOL    H3043578   4.266   6.276   6.005 -0.5981  0.1777  0.2357
  115MOL    H3143579   4.429   6.255   5.762 -0.5939 -1.9260 -0.5022
  115MOL    H3243580   4.307   6.383   5.795  0.5495  0.6028  2.2723
  115MOL    H3343581   4.138   6.211   5.812 -1.5825 -0.2473 -2.8524
  115MOL    H3443582   4.258   6.090   5.771  0.6272  0.2194 -1.7673
  115MOL    H3543583   4.105   6.159   5.583 -0.0721  1.6451 -3.7988
  115MOL    H3643584   4.161   6.326   5.599  1.7893  1.9948  1.3105
  115MOL    H3743585   4.323   6.075   5.512  0.1742  0.4690 -0.1812
  115MOL    H3843586   4.395   6.233   5.530  0.4874  0.7597 -1.7125
  115MOL    H3943587   4.280   6.208   5.400  0.3364  1.0757  0.7200
  115MOL    C4043588   4.401   6.065   6.098 -0.5582 -0.1629  0.0565
  115MOL    C4143589   4.489   5.939   6.086  0.2990 -0.3196 -0.3782
  115MOL    C4243590   4.435   5.828   5.997  0.5151  0.3309  0.3893
  115MOL    C4343591   4.543   5.711   5.983  0.5021  0.9171 -0.3263
  115MOL    C4443592   4.499   5.598   5.893 -0.1555 -0.6626 -0.2054
  115MOL    C4543593   4.602   5.491   5.867 -0.0753  0.9221 -0.5152
  115MOL    O4643594   4.491   5.885   6.220 -0.7135 -0.9962  0.5025
  115MOL    H4743595   4.312   6.028   6.150  0.9666 -2.6703  0.9630
  115MOL    H4843596   4.469   6.126   6.158 -0.7972 -0.7738  0.9569
  115MOL    H4943597   4.588   5.978   6.063 -0.2573  2.1790  1.2974
  115MOL    H5043598   4.334   5.798   6.024  1.5685 -3.9304 -0.0324
  115MOL    H5143599   4.420   5.864   5.895  0.5292 -0.0192  0.2609
  115MOL    H5243600   4.563   5.682   6.086  0.9792  2.6466  0.0697
  115MOL    H5343601   4.629   5.766   5.945  0.2815  2.8290  1.8731
  115MOL    H5443602   4.414   5.551   5.942  0.4173 -0.3518  1.1130
  115MOL    H5543603   4.465   5.637   5.798  1.9639  1.7435 -0.0252
  115MOL    H5643604   4.683   5.532   5.806 -0.6563  0.0785 -1.8661
  115MOL    H5743605   4.645   5.454   5.961 -0.6872  2.4159  0.3735
  115MOL    H5843606   4.555   5.412   5.809  1.4489 -1.2175  1.0699
  115MOL    C5943607   4.607   5.915   6.299 -0.2565  0.0885  0.1299
  115MOL    C6043608   4.582   5.875   6.447  0.4027  0.1767 -0.6086
  115MOL    C6143609   4.716   5.834   6.520 -0.1608 -0.1976  0.3720
  115MOL    C6243610   4.703   5.758   6.655 -0.5175 -0.9279  0.2557
  115MOL    C6343611   4.835   5.699   6.715  0.7159 -0.5794 -0.4967
  115MOL    C6443612   4.805   5.616   6.840 -0.6768  1.1821 -0.1451
  115MOL    O6543613   4.535   5.989   6.518 -0.1057 -0.0061  0.0172
  115MOL    H6643614   4.633   6.021   6.297 -1.4991  0.3710 -1.7323
  115MOL    H6743615   4.689   5.864   6.250 -0.6546 -1.4416  1.0035
  115MOL    H6843616   4.514   5.790   6.443  0.7196 -0.2355  1.9113
  115MOL    H6943617   4.786   5.918   6.517  0.8297 -1.0555 -1.5487
  115MOL    H7043618   4.767   5.761   6.457 -1.7111 -1.8711  1.0217
  115MOL    H7143619   4.625   5.682   6.651 -1.6892  0.1487  2.1067
  115MOL    H7243620   4.663   5.827   6.728 -2.9781 -2.8443  0.7866
  115MOL    H7343621   4.904   5.777   6.744  1.8219 -0.8114 -2.3905
  115MOL    H7443622   4.881   5.649   6.629 -0.7250 -0.0081 -1.6301
  115MOL    H7543623   4.724   5.545   6.824  2.2648 -2.6014  1.1802
  115MOL    H7643624   4.891   5.562   6.879 -1.8089  0.1848  1.0227
  115MOL    H7743625   4.773   5.680   6.923  0.7155 -1.2789  2.3482
  115MOL    C7843626   4.403   6.023   6.492 -0.7744  0.0197 -0.0100
  115MOL    C7943627   4.379   6.158   6.549 -0.5150 -0.4526 -0.4075
  115MOL    C8043628   4.389   6.157   6.706  0.1564 -0.2812 -0.0975
  115MOL    C8143629   4.441   6.288   6.764 -0.7920  0.6179  0.0870
  115MOL    C8243630   4.446   6.285   6.921 -0.6278 -0.4917 -0.3763
  115MOL    C8343631   4.514   6.400   6.991 -0.4742 -0.2305 -0.1962
  115MOL    O8443632   4.251   6.206   6.511 -0.2397 -0.0026  0.0890
  115MOL    H8543633   4.332   5.947   6.523 -0.0324 -1.0336 -0.8938
  115MOL    H8643634   4.391   6.023   6.384  0.8847  2.5604 -0.2525
  115MOL    H8743635   4.459   6.224   6.517  0.4510 -1.0668  0.7159
  115MOL    H8843636   4.290   6.129   6.743  0.2955 -0.2751  0.2757
  115MOL    H8943637   4.460   6.076   6.724 -1.3620 -1.2609  1.7720
  115MOL    H9043638   4.390   6.370   6.714 -2.0774 -1.1085 -1.4782
  115MOL    H9143639   4.543   6.303   6.728 -0.1952  0.6756  1.7243
  115MOL    H9243640   4.347   6.272   6.965 -2.3177  2.2667 -3.1946
  115MOL    H9343641   4.508   6.199   6.949  1.3806  1.4586  1.3286
  115MOL    H9443642   4.605   6.424   6.934 -0.4494  0.7155  0.2231
  115MOL    H9543643   4.533   6.381   7.096  0.1894 -1.6153 -0.5610
  115MOL    H9643644   4.450   6.488   6.980 -1.7021 -1.0842  0.1526
  115MOL    C9743645   4.239   6.284   6.392  0.0936  0.4681  0.7073
  115MOL    C9843646   4.102   6.261   6.321  0.5962 -0.3595 -0.9823
  115MOL    C9943647   4.063   6.383   6.234  0.1905  0.1221 -0.4659
  115MOL   C10043648   3.915   6.387   6.198 -0.1666  0.4788  0.5196
  115MOL   C10143649   3.862   6.502   6.110  0.3752  0.3524 -0.2613
  115MOL   C10243650   3.714   6.488   6.088 -0.0444 -0.0853  0.1306
  115MOL   O10343651   4.099   6.148   6.244 -0.1693  0.4551 -0.2187
  115MOL   H10443652   4.322   6.264   6.323 -1.4984  1.1701 -1.4687
  115MOL   H10543653   4.241   6.387   6.426 -0.9684  0.5552  0.5167
  115MOL   H10643654   4.036   6.251   6.407  1.5935  0.2408 -0.1275
  115MOL   H10743655   4.115   6.406   6.141  2.6794 -2.1015  0.3013
  115MOL   H10843656   4.074   6.481   6.279  2.1874  0.3898 -1.4571
  115MOL   H10943657   3.854   6.381   6.288 -0.0078  2.5518  0.7978
  115MOL   H11043658   3.884   6.298   6.144  0.3179  0.9338 -0.5121
  115MOL   H11143659   3.906   6.494   6.010 -0.7457  2.9409 -0.9893
  115MOL   H11243660   3.885   6.599   6.153 -1.9920  1.0688 -0.5873
  115MOL   H11343661   3.685   6.550   6.003 -2.5403  0.3580  1.2371
  115MOL   H11443662   3.680   6.386   6.075  1.2407 -0.4106 -0.7259
  115MOL   H11543663   3.654   6.520   6.174  0.6540 -1.2973  1.0855
  115MOL   C11643664   4.076   6.024   6.318 -0.2975 -0.0248 -0.3368
  115MOL   C11743665   3.947   5.961   6.264  0.0149  0.1852  0.2457
  115MOL   C11843666   3.968   5.924   6.122 -0.3894 -0.5183 -0.2482
  115MOL   C11943667   3.848   5.856   6.058  0.3342  0.9726 -0.3420
  115MOL   C12043668   3.868   5.838   5.905  0.7724 -0.4788 -0.5490
  115MOL   C12143669   3.831   5.958   5.815  0.2698  0.0445 -0.2222
  115MOL   O12243670   3.833   6.049   6.283  0.0873  0.4769  0.1620
  115MOL   H12343671   4.165   5.960   6.318 -1.1621 -1.2978 -2.2450
  115MOL   H12443672   4.043   6.043   6.420 -1.5080 -1.4397 -0.4471
  115MOL   H12543673   3.928   5.867   6.317  1.4516  0.3317  1.0540
  115MOL   H12643674   3.995   6.018   6.073 -0.6170  0.2006  0.9989
  115MOL   H12743675   4.059   5.864   6.119 -0.3502 -0.3825 -2.8237
  115MOL   H12843676   3.755   5.911   6.075  1.3163  2.2634  0.9363
  115MOL   H12943677   3.859   5.753   6.091  0.1324  0.9999 -0.1905
  115MOL   H13043678   3.970   5.805   5.883  0.3833 -2.3091  0.2653
  115MOL   H13143679   3.799   5.758   5.876 -1.1807  0.8203  0.4236
  115MOL   H13243680   3.724   5.965   5.791  0.0283  0.4582  0.9333
  115MOL   H13343681   3.840   6.049   5.874 -2.2931  2.1279 -2.8987
  115MOL   H13443682   3.883   5.965   5.720 -2.7356  1.2512 -1.8585
  115MOL   C13543683   3.767   6.019   6.399 -0.0596  0.3882  0.4268
  115MOL   C13643684   3.656   6.128   6.431 -0.5009 -0.5585  0.8784
  115MOL   C13743685   3.626   6.149   6.580 -0.1800 -0.6117  0.4761
  115MOL   C13843686   3.530   6.273   6.600  0.4025  0.1782 -0.1791
  115MOL   C13943687   3.529   6.321   6.742 -0.3927 -0.2361  0.0316
  115MOL   C14043688   3.413   6.413   6.776  0.3142 -0.0798 -0.0971
  115MOL   O14143689   3.532   6.086   6.371  0.4095 -0.6387 -0.4390
  115MOL   H14243690   3.716   5.923   6.385 -0.1283  0.4951 -0.0944
  115MOL   H14343691   3.832   6.005   6.485  0.9810 -0.1540 -0.4346
  115MOL   H14443692   3.691   6.223   6.392 -1.4740 -0.9278 -0.9121
  115MOL   H14543693   3.596   6.059   6.633 -2.0272 -0.6512 -0.6028
  115MOL   H14643694   3.718   6.170   6.635  0.3478  0.4301 -0.7712
  115MOL   H14743695   3.432   6.232   6.576  0.2369  0.5898 -0.1997
  115MOL   H14843696   3.540   6.359   6.535 -1.9633  0.1139 -0.6740
  115MOL   H14943697   3.621   6.379   6.747  0.3478 -1.5161  1.5953
  115MOL   H15043698   3.538   6.239   6.812 -0.2178 -2.3473 -2.3798
  115MOL   H15143699   3.434   6.515   6.744  0.3571 -0.0358  0.0703
  115MOL   H15243700   3.322   6.387   6.722 -0.2398  1.3753  0.1148
  115MOL   H15343701   3.383   6.419   6.880 -1.8159 -2.1436 -0.5498
  115MOL   C15443702   3.533   6.112   6.229  0.0324  0.1861 -0.6502
  115MOL   C15543703   3.416   6.089   6.139 -0.4855 -0.6214 -0.2981
  115MOL   C15643704   3.446   6.153   6.001 -0.7931 -0.2256  0.0377
  115MOL   C15743705   3.334   6.114   5.902  0.0066  0.4234 -0.0878
  115MOL   C15843706   3.204   6.198   5.923  0.4371  0.2641 -0.0591
  115MOL   C15943707   3.091   6.187   5.818  0.6760 -0.2261 -0.0628
  115MOL   O16043708   3.397   5.948   6.120  0.1848  0.0853  0.1496
  115MOL   H16143709   3.625   6.067   6.191 -0.1081 -1.7059  1.1628
  115MOL   H16243710   3.551   6.219   6.220 -0.5846  0.3167 -0.3736
  115MOL   H16343711   3.318   6.128   6.167  0.9056  1.8439  1.3168
  115MOL   H16443712   3.544   6.122   5.964  0.7592  0.7239  3.1840
  115MOL   H16543713   3.453   6.261   6.015  1.1006 -0.0998 -1.6570
  115MOL   H16643714   3.327   6.006   5.891 -1.3984  0.6561 -1.7183
  115MOL   H16743715   3.372   6.151   5.807  1.6599  2.6948  1.4024
  115MOL   H16843716   3.161   6.170   6.019 -0.4169  0.8405 -0.2627
  115MOL   H16943717   3.229   6.304   5.927 -0.9194  0.5839  0.5872
  115MOL   H17043718   3.057   6.087   5.794 -1.9277  0.5547  0.1669
  115MOL   H17143719   3.128   6.225   5.723  1.6830  1.3907  0.9322
  115MOL   H17243720   3.006   6.238   5.864  1.6195  1.1217  0.2380
  115MOL   C17343721   3.341   5.881   6.233  0.1622 -0.1937 -0.3430
  115MOL   C17443722   3.371   5.731   6.212 -0.3546 -0.1030 -0.2241
  115MOL   C17543723   3.526   5.707   6.184 -0.0423 -0.1243 -0.3342
  115MOL   C17643724   3.554   5.557   6.173  0.2316 -0.4744 -0.7375
  115MOL   C17743725   3.703   5.520   6.138  0.7146 -0.4858 -0.1511
  115MOL   C17843726   3.717   5.368   6.118  0.0293 -0.5838 -0.5664
  115MOL   O17943727   3.327   5.667   6.333  0.0178 -0.1960 -0.1561
  115MOL   H18043728   3.236   5.904   6.248  0.4362  0.4878  0.5791
  115MOL   H18143729   3.395   5.912   6.322 -0.3591  0.7016 -0.3401
  115MOL   H18243730   3.312   5.689   6.131  1.4066 -1.1955 -0.9696
  115MOL   H18343731   3.546   5.755   6.088  1.9101  0.9747  0.5933
  115MOL   H18443732   3.590   5.761   6.254  0.9377 -1.0261 -0.5258
  115MOL   H18543733   3.520   5.527   6.272 -1.4791  0.4516 -1.0286
  115MOL   H18643734   3.478   5.523   6.103 -1.1161  1.4972 -0.2695
  115MOL   H18743735   3.724   5.571   6.044  0.6149 -0.8050 -0.3478
  115MOL   H18843736   3.785   5.557   6.199 -0.2050 -0.6521  1.2087
  115MOL   H18943737   3.819   5.344   6.088  0.8270  0.3902  1.2861
  115MOL   H19043738   3.638   5.348   6.046 -0.9481 -1.0260  0.6144
  115MOL   H19143739   3.700   5.317   6.213  0.4677 -2.3330 -1.4085
  115MOL   C19243740   3.185   5.632   6.326 -0.0350  0.3231  0.5319
  115MOL   C19343741   3.158   5.548   6.451  0.1414 -0.0846 -0.1553
  115MOL   C19443742   3.044   5.445   6.432 -0.2551 -0.1519 -0.8044
  115MOL   C19543743   3.034   5.359   6.560 -0.1203 -0.6220  0.5621
  115MOL   C19643744   2.923   5.250   6.551 -0.0381 -0.3637  0.4441
  115MOL   C19743745   2.775   5.296   6.558  0.1370 -0.8854 -0.1095
  115MOL   O19843746   3.119   5.642   6.556 -0.5757  0.2975 -0.3962
  115MOL   H19943747   3.128   5.725   6.317 -0.6147 -0.3169 -2.6532
  115MOL   H20043748   3.157   5.568   6.243 -1.4529  0.7409  0.6719
  115MOL   H20143749   3.251   5.495   6.471 -0.0605 -0.2219  0.4323
  115MOL   H20243750   2.951   5.496   6.408  0.2732  1.1060 -0.2485
  115MOL   H20343751   3.085   5.384   6.352  3.0595  1.1111 -0.1402
  115MOL   H20443752   3.018   5.420   6.649  2.7344  0.9537  0.0781
  115MOL   H20543753   3.133   5.319   6.582  2.2054  2.4316 -3.6615
  115MOL   H20643754   2.920   5.191   6.460  4.0667  1.7310 -1.1668
  115MOL   H20743755   2.930   5.173   6.629 -1.6985  0.4284  1.4007
  115MOL   H20843756   2.758   5.364   6.642  0.2800  0.5780 -1.2388
  115MOL   H20943757   2.738   5.334   6.462 -1.2444 -2.8200 -0.3582
  115MOL   H21043758   2.709   5.215   6.588  0.7163 -0.3288  2.8276
  115MOL   C21143759   3.217   5.732   6.594  0.1793 -0.0265 -0.4761
  115MOL   C21243760   3.178   5.800   6.730 -0.7822  0.0588  0.2248
  115MOL   C21343761   3.292   5.901   6.766 -0.2232 -0.2803 -0.2983
  115MOL   C21443762   3.252   5.964   6.902  0.1316 -0.3071  0.9505
  115MOL   C21543763   3.330   6.091   6.926 -0.3870  0.0249  0.0337
  115MOL   C21643764   3.314   6.141   7.069 -0.0736 -0.3970  0.0479
  115MOL   O21743765   3.164   5.703   6.837  0.8422  0.0755  0.2946
  115MOL   H21843766   3.228   5.815   6.524 -2.7719  1.3571  0.5978
  115MOL   H21943767   3.313   5.681   6.591  0.0364 -0.3319  0.2118
  115MOL   H22043768   3.083   5.848   6.709 -0.6897 -0.6237 -1.9109
  115MOL   H22143769   3.387   5.848   6.768  0.5286  1.0669  0.2413
  115MOL   H22243770   3.299   5.981   6.691 -0.4264 -0.3743 -0.4164
  115MOL   H22343771   3.146   5.991   6.901  0.8085  2.4507 -1.5239
  115MOL   H22443772   3.281   5.900   6.986 -0.8687 -1.2676  0.5806
  115MOL   H22543773   3.437   6.076   6.918 -0.3564  1.3229 -2.3930
  115MOL   H22643774   3.280   6.161   6.859 -1.4949 -0.3756  0.4199
  115MOL   H22743775   3.373   6.232   7.071 -0.2399 -0.2796 -0.3662
  115MOL   H22843776   3.336   6.072   7.150 -1.3529 -3.1197 -1.7949
  115MOL   H22943777   3.209   6.170   7.070  0.4449  1.4984  0.4181
  115MOL   C23043778   3.037   5.641   6.855 -0.1855  0.6258  0.1125
  115MOL   C23143779   2.971   5.687   6.984  0.3374  0.0055  0.0325
  115MOL   C23243780   3.072   5.703   7.101  0.7897 -0.5116 -0.1005
  115MOL   C23343781   3.007   5.787   7.215 -0.0133  0.4365  0.2414
  115MOL   C23443782   3.100   5.797   7.339 -0.4100  0.3539  0.4097
  115MOL   C23543783   3.225   5.888   7.327  0.4694  0.3079  0.0436
  115MOL   O23643784   2.865   5.602   7.025 -0.0798  0.1716 -0.1953
  115MOL   H23743785   2.976   5.642   6.765 -0.6261 -1.7602  0.3632
  115MOL   H23843786   3.068   5.539   6.874 -1.8263 -0.0472 -0.7793
  115MOL   H23943787   2.924   5.783   6.960 -0.8116 -0.4633  0.3491
  115MOL   H24043788   3.167   5.745   7.069  1.5891 -1.4517  0.9817
  115MOL   H24143789   3.099   5.605   7.141 -0.5366  0.1253  2.4149
  115MOL   H24243790   2.913   5.740   7.241  0.2086 -0.1314  0.0221
  115MOL   H24343791   2.967   5.882   7.179 -0.0369  0.4450  0.2898
  115MOL   H24443792   3.047   5.836   7.426  0.3624 -0.3891  1.2195
  115MOL   H24543793   3.128   5.699   7.376  0.9654  0.5658 -0.0607
  115MOL   H24643794   3.255   5.883   7.222  1.4616  0.6634  0.3034
  115MOL   H24743795   3.310   5.852   7.385 -0.3035 -1.7166 -0.0635
  115MOL   H24843796   3.213   5.993   7.355 -1.3881  0.3611 -0.9147
  115MOL   C24943797   2.755   5.602   6.940 -0.3792  0.1457 -0.5301
  115MOL   C25043798   2.639   5.532   7.020  0.8731 -0.2300  0.1058
  115MOL   C25143799   2.542   5.453   6.923 -0.0091 -0.7542  0.4830
  115MOL   C25243800   2.407   5.403   6.994 -0.2835 -1.2003 -0.1184
  115MOL   C25343801   2.347   5.283   6.926  0.2712  0.5241 -0.3632
  115MOL   C25443802   2.239   5.219   7.011 -0.3961  0.1595 -0.0929
  115MOL   O25543803   2.555   5.634   7.073 -0.9182 -0.3386  0.0618
  115MOL   H25643804   2.723   5.705   6.926 -2.0680 -0.2548  0.1994
  115MOL   H25743805   2.779   5.562   6.841  1.1442 -1.1703  0.3545
  115MOL   H25843806   2.686   5.467   7.094  0.1229 -0.6393  0.2230
  115MOL   H25943807   2.508   5.522   6.847  0.8503 -1.7473 -0.8193
  115MOL   H26043808   2.597   5.374   6.871  1.8232 -0.0126  1.2226
  115MOL   H26143809   2.406   5.393   7.102 -0.3238 -0.0132 -0.0102
  115MOL   H26243810   2.336   5.485   6.988  2.4670  1.4463  1.7727
  115MOL   H26343811   2.314   5.303   6.824 -0.3544  1.8902  0.1045
  115MOL   H26443812   2.420   5.202   6.929 -2.9148 -2.4069  0.5452
  115MOL   H26543813   2.160   5.285   7.046  0.1688  1.2713 -0.8716
  115MOL   H26643814   2.272   5.166   7.100 -1.0221 -0.5365 -0.2727
  115MOL   H26743815   2.186   5.153   6.943 -0.6653 -0.5349  0.7921
  115MOL   C26843816   2.624   5.706   7.172 -0.0386 -0.7732 -0.1469
  115MOL   C26943817   2.535   5.804   7.253 -0.3937  0.5236  0.4234
  115MOL   C27043818   2.513   5.937   7.179 -0.7339  0.0964 -0.4892
  115MOL   C27143819   2.441   6.055   7.253  1.2037 -0.3861 -0.2297
  115MOL   C27243820   2.378   6.169   7.162 -0.6311  0.2013 -0.1370
  115MOL   C27343821   2.322   6.291   7.238 -0.2342 -0.1281  0.0749
  115MOL   O27443822   2.602   5.848   7.367 -0.2975  0.2021  0.0605
  115MOL   H27543823   2.704   5.766   7.128 -0.8357 -0.3113 -0.9956
  115MOL   H27643824   2.670   5.625   7.227 -0.3177 -2.1840 -1.9493
  115MOL   H27743825   2.437   5.765   7.279 -0.7960  1.6754  0.6722
  115MOL   H27843826   2.610   5.974   7.144 -0.9343  0.5080 -0.5988
  115MOL   H27943827   2.454   5.917   7.090  1.9131  1.7685 -2.7147
  115MOL   H28043828   2.356   6.003   7.298  0.0906  0.0327 -1.8102
  115MOL   H28143829   2.508   6.084   7.334 -0.4443  0.7737  0.7545
  115MOL   H28243830   2.453   6.194   7.087 -0.6852 -2.0475 -0.9881
  115MOL   H28343831   2.294   6.128   7.106 -0.7704  0.4602 -0.1165
  115MOL   H28443832   2.280   6.357   7.162 -1.2970 -0.9647 -0.0652
  115MOL   H28543833   2.235   6.261   7.297  0.0155 -0.8337  0.0899
  115MOL   H28643834   2.396   6.352   7.291 -1.2703  0.5247  0.7889
  115MOL   C28743835   2.590   5.762   7.476 -0.2220  0.0948  0.0491
  115MOL   C28843836   2.659   5.815   7.603 -0.4026  0.0366 -0.0635
  115MOL   C28943837   2.680   5.715   7.715  0.6113  0.7373 -0.7926
  115MOL   C29043838   2.783   5.610   7.695  0.3776 -0.2820  0.3007
  115MOL   C29143839   2.803   5.517   0.028  0.6620 -0.2421 -0.1818
  115MOL   C29243840   2.833   5.592   0.165 -0.1156  0.5632 -0.7387
  115MOL   O29343841   2.572   5.902   7.687 -0.7995  0.1591  0.2769
  115MOL   H29443842   2.636   5.665   7.455  0.9480  0.6187  0.1461
  115MOL   H29543843   2.486   5.738   7.497 -0.4773  0.9888 -0.1950
  115MOL   H29643844   2.756   5.856   7.578 -0.7216  0.3353 -0.8374
  115MOL   H29743845   2.703   5.762   0.026 -0.1508 -1.4367  0.4968
  115MOL   H29843846   2.585   5.667   7.741  0.0887  1.7546 -0.8046
  115MOL   H29943847   2.760   5.543   7.613 -2.2969 -0.9663  1.5462
  115MOL   H30043848   2.878   5.657   7.668 -0.3120  1.1296  0.2862
  115MOL   H30143849   2.882   5.442   0.033 -0.0602 -0.9407  1.1094
  115MOL   H30243850   2.714   5.455   0.040  0.5838  0.2183  1.8194
  115MOL   H30343851   2.739   5.629   0.206 -0.5385 -0.2364 -0.9751
  115MOL   H30443852   2.874   5.543   0.253  0.4829 -0.6868 -1.6951
  115MOL   H30543853   2.898   5.679   0.152 -1.4398  1.4537 -1.5198
  115MOL   C30643854   2.597   6.034   7.645  0.0692  0.7595 -0.0806
  115MOL   C30743855   2.494   6.131   7.700  0.5752 -0.7069  0.4400
  115MOL   C30843856   2.479   6.251   7.606 -0.3734 -0.6557  0.5504
  115MOL   C30943857   2.379   6.356   7.668 -0.7403 -0.5684  0.9409
  115MOL   C31043858   2.342   6.458   7.562  0.7432 -0.1150  0.1638
  115MOL   C31143859   2.228   6.549   7.606  0.0926 -0.5709  0.0412
  115MOL   O31243860   2.520   6.193   0.042 -0.4029  0.2241  0.0444
  115MOL   H31343861   2.696   6.061   7.682 -0.1201  3.0199 -1.1374
  115MOL   H31443862   2.619   6.047   7.540 -2.5428  1.0405 -0.6369
  115MOL   H31543863   2.399   6.078   7.705 -1.0548  2.0704 -0.0830
  115MOL   H31643864   2.442   6.214   7.511  0.9908  2.0458 -1.1008
  115MOL   H31743865   2.578   6.294   7.590 -0.2921 -0.9449  0.2795
  115MOL   H31843866   2.288   6.311   7.706 -0.8769 -0.1500  1.1125
  115MOL   H31943867   2.418   6.409   7.755 -0.1516 -0.3169  0.5230
  115MOL   H32043868   2.293   6.403   7.482  0.8025 -0.8066  0.5982
  115MOL   H32143869   2.432   6.507   7.525  0.3136  1.9091  1.7370
  115MOL   H32243870   2.141   6.501   7.650  0.0832 -0.6384 -0.0506
  115MOL   H32343871   2.268   6.619   7.679  0.3130 -1.7710  1.0837
  115MOL   H32443872   2.180   6.605   7.525  1.3868  1.9308  0.9390
  115MOL   C32543873   2.486   6.116   0.156  0.1044 -0.0416 -0.2690
  115MOL   C32643874   2.564   6.189   0.268 -0.0495 -0.0665 -0.8630
  115MOL   C32743875   2.633   6.099   0.367 -0.1366  0.5070 -0.6365
  115MOL   C32843876   2.755   6.031   0.303  0.0336  0.4055 -0.4863
  115MOL   C32943877   2.831   5.934   0.403 -0.6108 -0.4861 -0.2338
  115MOL   C33043878   2.978   5.920   0.350 -0.2522  0.0116  0.1684
  115MOL   O33143879   2.467   6.253   0.354  0.4651 -0.1689  0.4248
  115MOL   H33243880   2.532   6.019   0.137 -0.7460 -0.5229  0.1009
  115MOL   H33343881   2.379   6.110   0.173  0.2580  0.8579  1.1087
  115MOL   H33443882   2.627   6.268   0.226  0.8605 -0.4286 -0.1772
  115MOL   H33543883   2.669   6.155   0.453  0.0630 -1.2673  0.4374
  115MOL   H33643884   2.564   6.029   0.413 -0.2032  0.6015 -0.5922
  115MOL   H33743885   2.720   5.974   0.217 -0.8464  1.2834 -0.7239
  115MOL   H33843886   2.822   6.109   0.268  0.9196  0.0479  0.3822
  115MOL   H33943887   2.846   5.983   0.499 -1.8389 -0.9859  0.2303
  115MOL   H34043888   2.773   5.842   0.399 -0.6151 -0.4613 -0.8095
  115MOL   H34143889   3.028   5.832   0.390  2.5192  1.2037 -0.5505
  115MOL   H34243890   2.966   5.917   0.242 -2.2075  2.1123  0.2871
  115MOL   H34343891   3.037   6.006   0.380  0.1176 -0.6122  1.2476
  115MOL   C34443892   2.433   6.388   0.321 -0.1364 -0.0033  0.6047
  115MOL   C34543893   2.281   6.411   0.357  0.1868  0.1180  0.0473
  115MOL   C34643894   2.258   6.563   0.336 -0.5212  0.4610  0.2087
  115MOL   C34743895   2.121   6.611   0.365  0.1940  0.2791 -0.6454
  115MOL   C34843896   2.095   6.759   0.348 -0.8195  0.2477  0.5703
  115MOL   C34943897   2.082   6.791   0.198  0.0518 -0.2452  0.2286
  115MOL   O35043898   2.196   6.355   0.263  0.0618  0.5325 -0.4225
  115MOL   H35143899   2.445   6.404   0.214  0.7525 -2.7023  0.2489
  115MOL   H35243900   2.495   6.457   0.378 -2.2941  1.4185  1.2697
  115MOL   H35343901   2.261   6.376   0.458 -0.4376 -0.7071 -0.3580
  115MOL   H35443902   2.298   6.599   0.241 -1.5940  1.3792  0.0978
  115MOL   H35543903   2.328   6.605   0.409  0.5936 -1.1667  0.1114
  115MOL   H35643904   2.079   6.569   0.457 -0.3857  0.6584 -0.7366
  115MOL   H35743905   2.058   6.565   0.289 -0.0976 -0.1028 -0.1810
  115MOL   H35843906   2.166   6.824   0.400  0.3264  1.0539 -1.8934
  115MOL   H35943907   1.999   6.780   0.395  1.1052  1.7414  4.0247
  115MOL   H36043908   2.054   6.896   0.197  0.6463 -0.0885  0.0557
  115MOL   H36143909   2.005   6.730   0.151 -0.2772  0.4090 -0.0856
  115MOL   H36243910   2.171   6.771   0.139  0.5560  0.1993  0.8190
  115MOL   C36343911   2.098   6.263   0.303  0.4034 -0.6641  0.0118
  115MOL   C36443912   2.006   6.242   0.176  0.4046  0.4287  0.1521
  115MOL   C36543913   1.936   6.371   0.120  0.9303 -0.2777 -0.1281
  115MOL   C36643914   1.818   6.420   0.213  0.0653 -0.3386  0.1700
  115MOL   C36743915   1.728   6.521   0.135  0.1799 -0.0088  0.2957
  115MOL   C36843916   1.668   6.621   0.241  0.0788  0.1821 -0.4336
  115MOL   O36943917   2.093   6.194   0.076  0.0686 -0.3932 -0.4643
  115MOL   H37043918   2.040   6.313   0.381 -1.3167  0.1368 -1.7464
  115MOL   H37143919   2.156   6.179   0.340  2.5086 -0.2369 -2.1771
  115MOL   H37243920   1.933   6.167   0.206  1.1783 -0.5106 -0.3219
  115MOL   H37343921   2.011   6.445   0.090  1.8026 -1.6788 -1.4850
  115MOL   H37443922   1.897   6.335   0.025  0.3893  0.4556 -0.1911
  115MOL   H37543923   1.764   6.328   0.234  0.1091 -0.5560 -0.6453
  115MOL   H37643924   1.858   6.457   0.308 -1.3254  0.0729  0.5974
  115MOL   H37743925   1.786   6.573   0.059 -0.9068  1.7615  0.6603
  115MOL   H37843926   1.654   6.472   0.071  0.1194  1.8050 -1.0656
  115MOL   H37943927   1.590   6.682   0.196 -0.3387 -1.3748 -1.8686
  115MOL   H38043928   1.612   6.563   0.314  0.5897  0.7891  0.4596
  115MOL   H38143929   1.732   6.696   0.290 -1.7387  1.5930 -0.1789
  115MOL   H38243930   2.148   6.270   0.068  0.4109 -0.1961  2.9319
  116MOL     C143931   6.935   5.267   3.197  0.5816 -0.5897 -0.0248
  116MOL     C243932   6.791   5.316   3.206  0.1914  0.0579 -0.0780
  116MOL     C343933   6.776   5.465   3.164  0.5734 -0.2365 -1.4308
  116MOL     C443934   6.630   5.501   3.202 -0.0846 -0.1280 -0.0154
  116MOL     C543935   6.602   5.639   3.143  0.0834  0.0391  0.2179
  116MOL     C643936   6.465   5.693   3.184  0.5261 -0.7321 -0.5939
  116MOL     O743937   6.713   5.230   3.122  0.3839  0.0119 -0.0899
  116MOL     H843938   6.997   5.350   3.230  0.0502 -0.6803  1.2145
  116MOL     H943939   6.967   5.256   3.093  0.3128 -1.9143  0.0163
  116MOL    H1043940   6.755   5.290   3.305  0.9159  1.4359  0.5577
  116MOL    H1143941   6.849   5.516   3.226 -0.1311 -4.1659  2.8635
  116MOL    H1243942   6.796   5.473   3.057 -0.5047 -1.9545 -1.7765
  116MOL    H1343943   6.562   5.432   3.153 -1.7385  1.4161  0.0847
  116MOL    H1443944   6.605   5.509   3.307  2.2353  1.4296  0.4510
  116MOL    H1543945   6.671   5.718   3.174 -0.7064  0.7390  0.2007
  116MOL    H1643946   6.610   5.649   3.035  0.1853  0.3167  0.2515
  116MOL    H1743947   6.436   5.779   3.123 -0.9488  1.2138  2.7276
  116MOL    H1843948   6.393   5.611   3.184  0.0932 -0.3620  0.7016
  116MOL    H1943949   6.456   5.724   3.288 -1.9619 -2.5349 -0.2302
  116MOL    H2043950   6.949   5.175   3.254 -1.2728 -0.6291  0.3940
  116MOL    C2143951   6.718   5.091   3.130 -0.2070 -0.1540  0.0761
  116MOL    C2243952   6.589   5.029   3.083 -0.1726  0.1444 -0.0724
  116MOL    C2343953   6.602   4.883   3.040  0.2866 -0.2621  0.6608
  116MOL    C2443954   6.704   4.857   2.935 -0.3227 -0.3051  0.0612
  116MOL    C2543955   6.698   4.707   2.895 -0.6048 -0.1010 -0.4141
  116MOL    C2643956   6.813   4.675   2.800  0.5319 -0.1667 -0.2645
  116MOL    O2743957   6.498   5.034   3.185  0.0663 -0.0655 -0.4751
  116MOL    H2843958   6.801   5.061   3.066 -1.6688 -1.4363 -1.2783
  116MOL    H2943959   6.732   5.058   3.233 -2.0651 -0.0564  0.3825
  116MOL    H3043960   6.559   5.085   2.995 -1.1710 -2.8680 -1.7277
  116MOL    H3143961   6.505   4.849   3.003  0.3237  2.2106 -1.8874
  116MOL    H3243962   6.628   4.831   3.132 -2.2020 -0.5925  1.2295
  116MOL    H3343963   6.804   4.877   2.973 -0.3911 -0.3173  0.2483
  116MOL    H3443964   6.696   4.916   2.843  1.8021 -0.6000 -0.3430
  116MOL    H3543965   6.711   4.643   2.982 -1.0663 -0.6292 -0.7316
  116MOL    H3643966   6.604   4.682   2.847 -0.3268 -0.3417 -0.8430
  116MOL    H3743967   6.788   4.584   2.745 -1.4345 -0.1023  0.4770
  116MOL    H3843968   6.908   4.679   2.852  0.6782  2.1227 -0.6690
  116MOL    H3943969   6.820   4.744   2.716  0.8637  0.3726  0.2026
  116MOL    C4043970   6.359   5.023   3.165 -0.1494  0.1979  0.0682
  116MOL    C4143971   6.288   5.043   3.298  0.4516  0.0727  0.5581
  116MOL    C4243972   6.299   5.179   3.358  0.4051 -0.4150 -0.3954
  116MOL    C4343973   6.228   5.204   3.494 -0.7526  0.1606 -0.7229
  116MOL    C4443974   6.248   5.343   3.557  0.6079 -0.7699  0.1892
  116MOL    C4543975   6.178   5.458   3.485  0.2053  0.0947  0.1232
  116MOL    O4643976   6.334   4.945   3.386 -0.0093  0.4795 -0.1342
  116MOL    H4743977   6.328   4.927   3.124 -0.6463  0.7195 -0.8093
  116MOL    H4843978   6.326   5.108   3.105 -0.2618  0.9226  1.1386
  116MOL    H4943979   6.181   5.027   3.291  0.4321 -0.8617  2.6406
  116MOL    H5043980   6.404   5.196   3.381  0.3077 -0.1787 -0.1120
  116MOL    H5143981   6.283   5.250   3.277 -3.2530 -0.8263 -0.1367
  116MOL    H5243982   6.243   5.130   3.571  2.0528  1.9812  0.5577
  116MOL    H5343983   6.126   5.193   3.455 -1.4166  2.4762  0.2593
  116MOL    H5443984   6.207   5.347   3.658  1.9245  4.0105  0.6648
  116MOL    H5543985   6.355   5.358   3.568  0.2327  2.2654  0.2051
  116MOL    H5643986   6.077   5.431   3.454 -0.5746  0.1178  2.4995
  116MOL    H5743987   6.179   5.549   3.545 -0.3469  1.0640 -1.3213
  116MOL    H5843988   6.235   5.475   3.394  0.4977 -3.0736 -0.3363
  116MOL    C5943989   6.261   4.826   3.392 -0.2793 -0.3662 -0.2202
  116MOL    C6043990   6.321   4.720   3.478 -0.5844  0.3495  0.7477
  116MOL    C6143991   6.229   4.627   3.552 -0.5954 -0.1108  0.4964
  116MOL    C6243992   6.314   4.529   3.633 -0.2195 -0.2529  0.3278
  116MOL    C6343993   6.229   4.446   3.732  1.1974  0.4162 -0.3845
  116MOL    C6443994   6.132   4.349   3.663  0.8436 -0.6822 -0.1990
  116MOL    O6543995   6.397   4.637   3.392  0.0661 -0.0012 -0.1379
  116MOL    H6643996   6.230   4.783   3.297  0.8547  1.3784 -1.4203
  116MOL    H6743997   6.162   4.840   3.437  0.0565 -1.8213  1.0466
  116MOL    H6843998   6.382   4.762   3.558 -3.1619  0.3160  2.8198
  116MOL    H6943999   6.173   4.571   3.476  0.5452  1.1761 -1.3428
  116MOL    H7044000   6.161   4.675   3.622 -1.0387 -0.8638  0.5953
  116MOL    H7144001   6.397   4.581   3.681  0.1930  2.1186 -2.8424
  116MOL    H7244002   6.361   4.455   3.568 -3.6161 -1.5749 -0.6971
  116MOL    H7344003   6.171   4.498   3.808 -0.4407  0.3969 -1.5935
  116MOL    H7444004   6.297   4.375   3.779  0.4556  0.8616  1.4032
  116MOL    H7544005   6.076   4.289   3.735  0.4094  0.4690  0.4359
  116MOL    H7644006   6.064   4.401   3.595 -0.1863 -0.6141  0.8557
  116MOL    H7744007   6.198   4.283   3.607 -2.3526 -1.1861 -3.5426
  116MOL    C7844008   6.521   4.687   3.332 -0.1494 -0.7176 -0.4735
  116MOL    C7944009   6.640   4.627   3.404 -0.5126  0.4313 -0.0423
  116MOL    C8044010   6.758   4.724   3.408  0.2037  0.3767 -0.1935
  116MOL    C8144011   6.861   4.669   3.517 -0.2478  0.0640 -1.0245
  116MOL    C8244012   6.802   4.663   3.662 -0.3144 -0.3995  0.5099
  116MOL    C8344013   6.912   4.657   3.770 -0.1702 -0.0754 -0.3731
  116MOL    O8444014   6.683   4.509   3.331  0.0007  0.1295  0.1015
  116MOL    H8544015   6.532   4.794   3.351  0.2178 -0.9639  0.7645
  116MOL    H8644016   6.522   4.667   3.225  0.2750  0.2499 -0.6566
  116MOL    H8744017   6.603   4.591   3.500 -2.0133  0.0345 -0.7431
  116MOL    H8844018   6.806   4.711   3.311 -1.3024 -2.0537 -0.6605
  116MOL    H8944019   6.729   4.827   3.431  0.9645  0.6842 -0.5759
  116MOL    H9044020   6.934   4.749   3.504 -0.3945  0.4573  0.5408
  116MOL    H9144021   6.898   4.572   3.483  1.0311  0.0837  0.2980
  116MOL    H9244022   6.743   4.754   3.668 -1.6945 -1.3143  1.0413
  116MOL    H9344023   6.730   4.583   3.678  0.2227 -0.5700  2.2216
  116MOL    H9444024   6.999   4.712   3.732  0.1018  1.7534  2.7008
  116MOL    H9544025   6.937   4.557   3.805 -0.0972  0.7878  2.1208
  116MOL    H9644026   6.887   4.717   3.858  1.4239  1.1429 -0.7125
  116MOL    C9744027   6.624   4.391   3.368 -0.5631 -0.3558 -0.4778
  116MOL    C9844028   6.522   4.344   3.262  0.2904 -0.1580 -0.0582
  116MOL    C9944029   6.577   4.323   3.117 -0.2966  0.1012  0.6011
  116MOL   C10044030   6.468   4.302   3.007  0.4189  0.2632  0.0010
  116MOL   C10144031   6.522   4.308   2.858 -0.1524  0.0906 -0.1880
  116MOL   C10244032   6.633   4.209   2.818 -0.0125 -0.0164  0.0622
  116MOL   O10344033   6.484   4.216   3.316  0.1138  0.3959 -0.1124
  116MOL   H10444034   6.568   4.389   3.462 -1.1100 -2.1639 -0.8218
  116MOL   H10544035   6.706   4.321   3.374 -1.2791 -1.1886 -0.2997
  116MOL   H10644036   6.440   4.415   3.269 -0.2299 -0.8800  1.4289
  116MOL   H10744037   6.657   4.250   3.110 -1.8250 -1.4060 -1.4447
  116MOL   H10844038   6.633   4.412   3.088  1.1236 -1.0626 -0.2708
  116MOL   H10944039   6.395   4.381   3.022 -0.1727 -0.1771 -0.5534
  116MOL   H11044040   6.412   4.210   3.024 -1.0132  0.6543 -2.4493
  116MOL   H11144041   6.564   4.406   2.834 -0.7648  1.1669  2.8672
  116MOL   H11244042   6.438   4.291   2.790 -1.6970  2.6037  1.0130
  116MOL   H11344043   6.668   4.240   2.720 -1.2608  3.1746  0.5519
  116MOL   H11444044   6.724   4.220   2.876 -0.2817  0.9932  0.3020
  116MOL   H11544045   6.617   4.102   2.824  1.3273 -0.2178  0.1313
  116MOL   C11644046   6.343   4.193   3.318 -0.4599  0.9434  0.2834
  116MOL   C11744047   6.311   4.045   3.352 -0.5357 -0.2491 -0.3114
  116MOL   C11844048   6.187   3.997   3.280 -0.1066 -0.3622  0.4884
  116MOL   C11944049   6.166   3.847   3.280  0.5203 -0.3964  0.2625
  116MOL   C12044050   6.053   3.808   3.180  0.0291  0.2479  0.3334
  116MOL   C12144051   5.977   3.688   3.228 -0.2080  0.0454  0.1267
  116MOL   O12244052   6.300   4.025   3.491  0.0634  0.4129  0.1185
  116MOL   H12344053   6.304   4.262   3.393  0.0910 -0.6261  2.0699
  116MOL   H12444054   6.297   4.217   3.222  1.6878  0.4209 -0.9091
  116MOL   H12544055   6.401   4.007   3.304 -1.6167 -1.9708 -1.0345
  116MOL   H12644056   6.096   4.049   3.309  0.0601  1.7078 -2.4783
  116MOL   H12744057   6.188   4.023   3.174  0.3433  1.0156  0.8198
  116MOL   H12844058   6.140   3.828   3.384  0.5716  1.4889  0.6406
  116MOL   H12944059   6.260   3.795   3.261  1.0698  0.9335 -0.6709
  116MOL   H13044060   5.987   3.895   3.185  0.4920  0.5882  0.5243
  116MOL   H13144061   6.087   3.809   3.076 -0.3535 -0.1013  0.2014
  116MOL   H13244062   6.041   3.600   3.221 -0.2491  0.0093  0.2007
  116MOL   H13344063   5.943   3.701   3.331 -2.7024 -1.8855 -0.4143
  116MOL   H13444064   5.889   3.662   3.169  1.3735 -2.9629 -1.0075
  116MOL   C13544065   6.426   4.049   3.564  0.3190 -0.3090 -0.1865
  116MOL   C13644066   6.518   3.925   3.548  0.1684  0.3500 -0.3538
  116MOL   C13744067   6.447   3.801   3.607  0.2347 -0.1112 -0.6177
  116MOL   C13844068   6.528   3.675   3.578 -0.2416  0.1584 -0.2699
  116MOL   C13944069   6.457   3.540   3.610  0.2727  0.1435  0.3211
  116MOL   C14044070   6.318   3.536   3.547  0.7310  0.3922 -1.1919
  116MOL   O14144071   6.639   3.943   3.619 -0.0835 -0.2798 -0.3427
  116MOL   H14244072   6.475   4.143   3.540 -0.0423 -0.2535 -0.7192
  116MOL   H14344073   6.407   4.040   3.671  2.3450  0.4495  0.2463
  116MOL   H14444074   6.540   3.906   3.443  0.3181  3.3427 -0.9163
  116MOL   H14544075   6.422   3.814   3.712 -0.3023 -2.1659 -0.4540
  116MOL   H14644076   6.352   3.789   3.555 -0.9183 -2.4641  1.8776
  116MOL   H14744077   6.624   3.673   3.630 -0.5584 -0.7588  0.2864
  116MOL   H14844078   6.554   3.681   3.472  1.1697 -3.1430 -0.1815
  116MOL   H14944079   6.439   3.521   3.716  0.4607 -1.2058  0.1232
  116MOL   H15044080   6.518   3.460   3.568 -0.3674 -0.7191  1.0202
  116MOL   H15144081   6.331   3.574   3.445  2.9634 -0.3199 -1.2023
  116MOL   H15244082   6.292   3.430   3.541  0.5441  0.1749  2.3924
  116MOL   H15344083   6.243   3.589   3.606  1.4660  1.9535 -1.6422
  116MOL   C15444084   6.726   4.054   3.580 -0.6101 -0.6862  0.1292
  116MOL   C15544085   6.802   4.115   3.707 -0.1681 -0.4249  0.3545
  116MOL   C15644086   6.911   4.212   3.672  0.0501  0.1077  0.1985
  116MOL   C15744087   6.971   4.272   3.795 -0.5993  0.2866  0.0848
  116MOL   C15844088   7.023   4.173   3.896 -0.3235  0.3736  0.1646
  116MOL   C15944089   7.104   4.250   4.003  0.1149 -0.1468 -0.5700
  116MOL   O16044090   6.700   4.187   3.779 -0.0628  0.2783  0.0117
  116MOL   H16144091   6.679   4.131   3.520 -2.6049 -0.1938  2.2611
  116MOL   H16244092   6.800   4.002   3.519  0.6587 -0.7917  1.7094
  116MOL   H16344093   6.853   4.040   3.767 -2.4817  0.4402  3.5328
  116MOL   H16444094   6.881   4.284   3.596 -0.5749 -1.2974 -0.9270
  116MOL   H16544095   6.991   4.155   3.625  0.1114  0.7483 -0.4845
  116MOL   H16644096   6.886   4.323   3.841 -1.1812  0.4626 -1.1512
  116MOL   H16744097   7.050   4.340   3.761 -0.0120 -1.0585 -1.2838
  116MOL   H16844098   6.942   4.120   3.946  0.9962 -0.3720  1.5408
  116MOL   H16944099   7.088   4.100   3.846 -0.3524  0.8330 -0.5447
  116MOL   H17044100   7.144   4.186   4.081 -1.8756  0.3211  0.8766
  116MOL   H17144101   7.039   4.327   4.043 -0.5156 -0.9907  0.0443
  116MOL   H17244102   7.189   4.299   3.955  0.2624 -0.9845 -1.1824
  116MOL   C17344103   6.637   4.108   3.878  0.0804  0.6786 -0.7126
  116MOL   C17444104   6.517   4.195   3.914  0.8258  0.3574 -0.5094
  116MOL   C17544105   6.415   4.112   3.990 -0.2069  0.8393 -0.1579
  116MOL   C17644106   6.322   4.210   4.050  0.2981  0.0603 -0.1708
  116MOL   C17744107   6.203   4.137   4.118  0.1791 -1.0425  0.8515
  116MOL   C17844108   6.103   4.250   4.155 -0.1572  0.4262 -0.2786
  116MOL   O17944109   6.568   4.300   4.010 -0.1929 -0.1157  0.1987
  116MOL   H18044110   6.698   4.093   3.967  1.0098 -0.2537 -1.4940
  116MOL   H18144111   6.593   4.014   3.844  1.2045  0.3107 -1.1495
  116MOL   H18244112   6.484   4.253   3.828 -1.5515 -0.4022 -0.1605
  116MOL   H18344113   6.368   4.041   3.921 -0.4234  0.4812  0.3535
  116MOL   H18444114   6.468   4.052   4.064 -1.0411 -0.9990 -0.9930
  116MOL   H18544115   6.363   4.265   4.134  1.3224 -3.1879  1.5014
  116MOL   H18644116   6.281   4.269   3.968 -0.6752 -0.5528 -0.1274
  116MOL   H18744117   6.146   4.071   4.053 -1.5921 -0.0390  1.3387
  116MOL   H18844118   6.231   4.086   4.210  0.7345 -1.5320  0.4148
  116MOL   H18944119   6.150   4.329   4.213 -0.6624  1.2756 -1.0165
  116MOL   H19044120   6.016   4.203   4.202  1.6563 -1.8730  0.8884
  116MOL   H19144121   6.075   4.295   4.060 -1.0187  2.6179  0.9805
  116MOL   C19244122   6.577   4.429   3.950  0.0170 -0.6088 -0.3729
  116MOL   C19344123   6.592   4.550   4.053 -0.6125 -0.6311 -0.2882
  116MOL   C19444124   6.544   4.681   3.993 -0.0513 -0.7263  0.1160
  116MOL   C19544125   6.538   4.796   4.089  0.3282  0.3149  0.2516
  116MOL   C19644126   6.485   4.927   4.031 -0.7039  0.4189 -0.0880
  116MOL   C19744127   6.454   5.022   4.148  0.4623  0.0305 -0.5561
  116MOL   O19844128   6.728   4.561   4.099  0.0873  0.3607 -0.2207
  116MOL   H19944129   6.650   4.445   3.871 -2.5167  2.4812 -2.2289
  116MOL   H20044130   6.477   4.443   3.907 -0.3755 -2.6441 -0.1983
  116MOL   H20144131   6.523   4.539   4.136  0.7759  1.0451  1.1128
  116MOL   H20244132   6.612   4.707   3.911 -2.6716  0.3297 -1.7933
  116MOL   H20344133   6.449   4.672   3.941 -0.9265  1.9272  1.1832
  116MOL   H20444134   6.637   4.804   4.133  1.6672 -2.5634 -2.1043
  116MOL   H20544135   6.469   4.763   4.167 -0.4477 -1.8235 -1.2774
  116MOL   H20644136   6.565   4.965   3.968  0.8994 -0.9986  1.0622
  116MOL   H20744137   6.398   4.925   3.966 -0.7018  0.1294 -0.0802
  116MOL   H20844138   6.542   5.041   4.209  2.1694 -1.2953 -2.5566
  116MOL   H20944139   6.442   5.122   4.108  2.5573  0.6711  0.3654
  116MOL   H21044140   6.361   4.992   4.196  1.3383  1.5966  2.2321
  116MOL   C21144141   6.772   4.456   4.191 -0.1962 -0.7937 -0.2080
  116MOL   C21244142   6.878   4.505   4.287 -0.1352 -0.1913  0.9894
  116MOL   C21344143   6.846   4.642   4.343 -0.6329 -0.4522 -0.5343
  116MOL   C21444144   6.899   4.690   4.480  0.2132 -0.1443  0.6944
  116MOL   C21544145   6.846   4.830   4.517 -0.3782 -0.4581 -0.3195
  116MOL   C21644146   6.917   4.938   4.436 -0.0628  0.2702  0.0273
  116MOL   O21744147   7.006   4.492   4.222 -0.2049  0.3064  0.1833
  116MOL   H21844148   6.801   4.365   4.138  0.1307 -0.0140 -1.4020
  116MOL   H21944149   6.691   4.434   4.261 -0.6026 -0.0455 -0.4426
  116MOL   H22044150   6.875   4.435   4.371 -0.6825  1.1130  2.0738
  116MOL   H22144151   6.856   4.720   4.268  0.0560 -1.1381 -1.1664
  116MOL   H22244152   6.743   4.633   4.376  0.0239 -0.4111  1.5962
  116MOL   H22344153   6.871   4.619   4.558  0.1775  0.6024  1.3697
  116MOL   H22444154   7.008   4.688   4.485  0.2924  0.8652 -0.3623
  116MOL   H22544155   6.738   4.840   4.508 -0.3849  0.1818  0.4686
  116MOL   H22644156   6.869   4.842   4.623  1.6220 -2.8436 -0.4305
  116MOL   H22744157   6.896   5.038   4.476 -1.5451  1.0510 -2.5724
  116MOL   H22844158   6.874   4.929   4.336 -3.1038  1.7004  1.1581
  116MOL   H22944159   7.026   4.929   4.443 -0.0679  1.0492  1.2356
  116MOL   C23044160   7.132   4.513   4.289  0.2693  0.1802 -0.0237
  116MOL   C23144161   7.252   4.513   4.203  0.1567  0.6277  0.0762
  116MOL   C23244162   7.385   4.506   4.278 -0.1430 -0.0747  0.7196
  116MOL   C23344163   7.515   4.511   4.199  0.1087 -0.2764 -0.6636
  116MOL   C23444164   7.648   4.495   4.277 -0.5787  0.7737 -0.1862
  116MOL   C23544165   7.767   4.459   4.191  0.0891  0.2494  0.4017
  116MOL   O23644166   7.254   4.631   4.133 -0.0935 -0.6822 -0.8699
  116MOL   H23744167   7.123   4.606   4.345  0.2548  0.0039  0.2721
  116MOL   H23844168   7.139   4.437   4.367  1.4285 -0.5678 -0.8358
  116MOL   H23944169   7.245   4.428   4.135  0.4899  0.7596 -0.1242
  116MOL   H24044170   7.388   4.409   4.327  0.3637  0.0993  1.0358
  116MOL   H24144171   7.392   4.577   4.360  4.0372 -0.2815  0.6455
  116MOL   H24244172   7.525   4.611   4.158  2.5369  0.5903  1.8935
  116MOL   H24344173   7.509   4.439   4.117 -0.4602 -2.5309  1.3007
  116MOL   H24444174   7.666   4.582   4.340 -2.9435  0.1094  1.4860
  116MOL   H24544175   7.639   4.406   4.340  1.6182  0.3716 -0.3935
  116MOL   H24644176   0.060   4.417   4.253  1.6492 -0.5503 -2.0484
  116MOL   H24744177   0.019   4.533   4.120 -2.3445 -0.2848 -1.5330
  116MOL   H24844178   7.735   4.373   4.133  0.0126 -0.5637  1.6346
  116MOL   C24944179   7.160   4.651   4.028  0.4406  0.2628 -0.1430
  116MOL   C25044180   7.211   4.790   3.966 -0.6091 -0.2408  0.2462
  116MOL   C25144181   7.364   4.809   3.938 -1.0626  0.4855  0.4146
  116MOL   C25244182   7.399   4.940   3.858  0.3027  0.3254  0.5026
  116MOL   C25344183   7.554   4.943   3.817 -0.0761 -0.6327 -1.0494
  116MOL   C25444184   7.619   5.084   3.821 -0.2684  1.1489  0.1656
  116MOL   O25544185   7.189   4.892   4.063  0.5882 -0.2473 -0.0094
  116MOL   H25644186   7.163   4.575   3.951  0.6604  0.7457 -0.6146
  116MOL   H25744187   7.054   4.660   4.051  0.3051  1.2322 -1.1397
  116MOL   H25844188   7.158   4.814   3.874 -0.9561 -1.7249  0.0590
  116MOL   H25944189   7.412   4.807   4.036 -0.3436 -2.9647  0.0772
  116MOL   H26044190   7.395   4.723   3.878 -0.8596  2.0713 -1.8234
  116MOL   H26144191   7.338   4.935   3.768  1.3181 -0.5908 -0.1526
  116MOL   H26244192   7.365   5.024   3.918  2.7162  0.1650  2.1786
  116MOL   H26344193   7.604   4.877   3.888 -0.8918  2.5206  2.6775
  116MOL   H26444194   7.572   4.900   3.719  0.4148  0.6176 -1.5173
  116MOL   H26544195   7.560   5.153   3.761  1.6494  2.1632 -0.6142
  116MOL   H26644196   7.720   5.080   3.781 -0.6770 -0.6785 -0.7269
  116MOL   H26744197   7.627   5.116   3.925 -1.4495  0.0740  0.5932
  116MOL   C26844198   7.061   4.945   4.057 -0.3258  0.4317 -0.2554
  116MOL   C26944199   7.079   5.097   4.093  0.2638 -0.7018  0.1147
  116MOL   C27044200   6.954   5.177   4.123 -0.9536  0.6887  0.2995
  116MOL   C27144201   6.855   5.188   4.008 -0.3696  0.3331  0.2046
  116MOL   C27244202   6.749   5.304   4.023  0.8998  0.4168 -0.4496
  116MOL   C27344203   6.675   5.329   3.885 -0.0939  0.3902 -0.6968
  116MOL   O27444204   7.134   5.174   3.986 -0.0978 -0.0818 -0.0500
  116MOL   H27544205   6.991   4.896   4.124 -0.9426  1.3223 -0.2352
  116MOL   H27644206   7.019   4.951   3.956 -0.3038  2.0078 -0.1805
  116MOL   H27744207   7.128   5.110   4.190  0.6917 -0.1122 -0.1794
  116MOL   H27844208   6.900   5.123   4.200  0.4556 -1.0016  0.1221
  116MOL   H27944209   6.980   5.274   4.166  1.3292  0.8505 -1.3332
  116MOL   H28044210   6.902   5.205   3.911 -0.3653  2.4487  0.5514
  116MOL   H28144211   6.793   5.099   3.997  0.1853 -0.0452  0.1014
  116MOL   H28244212   6.677   5.283   4.103 -0.1809 -0.6447 -1.6928
  116MOL   H28344213   6.811   5.388   4.055  1.6142  0.0280 -0.8023
  116MOL   H28444214   6.750   5.326   3.806  1.9807 -0.0706  1.2138
  116MOL   H28544215   6.608   5.243   3.874  0.1895  0.0688  0.0216
  116MOL   H28644216   6.616   5.420   3.884  0.5079  0.9147  2.7455
  116MOL   C28744217   7.241   5.261   4.026  0.1128 -0.0491  0.1777
  116MOL   C28844218   7.291   5.357   3.918 -0.3214 -0.7758  0.3508
  116MOL   C28944219   7.425   5.405   3.965  0.8573 -0.6101 -0.2294
  116MOL   C29044220   7.517   5.460   3.850  0.0269  0.5703  0.2274
  116MOL   C29144221   7.661   5.493   3.908  0.6103  0.5352  0.2426
  116MOL   C29244222   7.755   5.373   3.912  0.4046  0.6114  0.3290
  116MOL   O29344223   7.210   5.474   3.896 -0.1215  0.1650 -0.1327
  116MOL   H29444224   7.317   5.186   4.048 -1.1713 -0.9050  1.7847
  116MOL   H29544225   7.222   5.322   4.114 -0.5532  0.5934 -0.3993
  116MOL   H29644226   7.313   5.304   3.826  0.2102 -0.5544  0.3502
  116MOL   H29744227   7.407   5.479   4.043 -1.5089 -0.9578 -0.3867
  116MOL   H29844228   7.489   5.324   3.998  1.7066  0.6198  1.1641
  116MOL   H29944229   7.525   5.395   3.763  1.2336 -1.0543  1.5039
  116MOL   H30044230   7.476   5.548   3.802 -3.5311 -1.1128  0.0254
  116MOL   H30144231   7.658   5.531   4.010 -1.8670 -0.0654  0.4013
  116MOL   H30244232   7.710   5.557   3.834 -1.0982  0.4258 -1.0051
  116MOL   H30344233   7.763   5.317   3.818  2.2264  1.4574 -0.0379
  116MOL   H30444234   0.068   5.397   3.951 -0.0107  0.7906  1.2985
  116MOL   H30544235   7.717   5.296   3.980  1.2038  0.4461  0.5950
  116MOL   C30644236   7.081   5.451   3.843 -0.2590 -0.5581 -0.4048
  116MOL   C30744237   7.040   5.564   3.739 -0.4610  0.3085  0.4643
  116MOL   C30844238   6.894   5.580   3.724 -0.4863 -0.1887 -0.6094
  116MOL   C30944239   6.841   5.677   3.620  0.0127 -0.5838 -0.7287
  116MOL   C31044240   6.689   5.693   3.610 -0.6549  0.0648  0.5719
  116MOL   C31144241   6.654   5.807   3.507  0.6750  0.5290 -0.3705
  116MOL   O31244242   7.099   5.537   3.608  0.6375  0.1595  0.4028
  116MOL   H31344243   7.068   5.355   3.794 -0.4502 -0.8891  0.2884
  116MOL   H31444244   7.018   5.437   3.932 -0.5610  0.3747 -0.4660
  116MOL   H31544245   7.077   5.662   3.771 -1.1364  0.4226  0.9166
  116MOL   H31644246   6.849   5.617   3.816  1.5155 -1.6321  0.9849
  116MOL   H31744247   6.850   5.481   3.716  0.6103 -0.7493  0.2095
  116MOL   H31844248   6.884   5.776   3.624 -2.1359  0.3014  1.4158
  116MOL   H31944249   6.871   5.641   3.522 -0.5294  0.4114 -1.2683
  116MOL   H32044250   6.647   5.701   3.710 -0.8547  1.0971  0.4097
  116MOL   H32144251   6.647   5.599   3.575  0.2469  0.2200 -0.9676
  116MOL   H32244252   6.546   5.816   3.515  0.6032 -1.2218  1.0124
  116MOL   H32344253   6.689   5.909   3.524 -0.3814  0.6206  1.3788
  116MOL   H32444254   6.683   5.777   3.407 -1.6828  0.2662 -0.9937
  116MOL   C32544255   7.240   5.538   3.599 -0.0281  0.3701  0.0180
  116MOL   C32644256   7.282   5.535   3.449  1.1407  0.8469 -0.3576
  116MOL   C32744257   7.177   5.610   3.354  0.9977 -0.3492  0.3677
  116MOL   C32844258   7.192   5.766   3.361 -0.0042 -0.2972  0.7819
  116MOL   C32944259   7.095   5.851   3.266 -0.3813  0.5466  0.1310
  116MOL   C33044260   6.944   5.845   3.293  0.6259  0.0403 -0.7407
  116MOL   O33144261   7.285   5.404   3.395 -0.3089 -0.1129  0.0985
  116MOL   H33244262   7.287   5.470   3.670 -3.0177 -0.3846  1.3272
  116MOL   H33344263   7.276   5.636   3.630  1.3448 -0.7257  1.9879
  116MOL   H33444264   7.379   5.581   3.426  2.6025 -1.8305  0.2807
  116MOL   H33544265   7.206   5.577   3.254 -0.9443  1.6780 -0.9037
  116MOL   H33644266   7.075   5.571   3.355 -0.1346  2.4997  0.0853
  116MOL   H33744267   7.172   5.794   3.464  0.7375 -0.3084  0.9344
  116MOL   H33844268   7.295   5.798   3.346 -0.6776  0.8903 -1.5197
  116MOL   H33944269   7.116   5.957   3.278  1.1431  0.3119 -0.3360
  116MOL   H34044270   7.119   5.818   3.164  0.5313 -1.6054  1.0108
  116MOL   H34144271   6.905   5.895   3.381 -1.8039  0.5210 -2.0466
  116MOL   H34244272   6.880   5.888   3.216 -0.5072 -1.2667 -0.5423
  116MOL   H34344273   6.907   5.743   3.303  2.2526 -0.5762 -0.8580
  116MOL   C34444274   7.404   5.332   3.429  0.0548  0.0474  0.0162
  116MOL   C34544275   7.389   5.184   3.410  0.2771 -0.2127  0.3239
  116MOL   C34644276   7.531   5.124   3.412 -0.3829 -0.0696 -1.0662
  116MOL   C34744277   7.528   4.973   3.392 -0.3119 -0.0146  0.4500
  116MOL   C34844278   7.664   4.914   3.381 -0.4290 -0.2196  0.2980
  116MOL   C34944279   7.658   4.766   3.349  0.2530 -0.1561  0.5542
  116MOL   O35044280   7.316   5.120   3.512  0.5468 -0.1095 -0.2465
  116MOL   H35144281   7.439   5.344   3.532  2.0473  2.5483 -0.9010
  116MOL   H35244282   7.485   5.371   3.368  0.4769  0.4861  0.8411
  116MOL   H35344283   7.328   5.167   3.321  0.6491 -0.5607  0.1327
  116MOL   H35444284   7.582   5.144   3.506 -1.6586 -1.6689 -0.0024
  116MOL   H35544285   7.602   5.163   3.339 -1.1193  1.2679 -1.0866
  116MOL   H35644286   7.466   4.938   3.309  0.6334  2.0383 -1.1742
  116MOL   H35744287   7.488   4.931   3.484  2.6319 -4.2532 -0.0786
  116MOL   H35844288   7.727   4.921   3.470 -0.2959  0.8463  0.1162
  116MOL   H35944289   7.716   4.970   3.304  1.3904 -0.3995  1.3562
  116MOL   H36044290   7.751   4.717   3.379  0.5552  0.4158  0.5654
  116MOL   H36144291   7.648   4.752   3.242 -1.4080  0.6385  0.5902
  116MOL   H36244292   7.574   4.715   3.395 -0.1129 -0.4700 -0.4550
  116MOL   C36344293   7.184   5.171   3.523 -0.5330  0.0021  0.0897
  116MOL   C36444294   7.083   5.076   3.585  0.4302 -0.4370  0.3567
  116MOL   C36544295   6.947   5.134   3.584 -0.0152  0.2048 -0.1017
  116MOL   C36644296   6.832   5.045   3.629  0.4898  0.0980  0.4296
  116MOL   C36744297   6.691   5.103   3.593  0.2548 -0.5991  0.1077
  116MOL   C36844298   6.574   5.005   3.633  0.8803 -0.0231  0.2334
  116MOL   O36944299   7.091   4.973   3.498 -0.1929 -0.1825 -0.0639
  116MOL   H37044300   7.144   5.205   3.427 -0.5645  1.5373  0.6263
  116MOL   H37144301   7.185   5.266   3.575 -0.4205 -0.5668  1.1245
  116MOL   H37244302   7.106   5.049   3.688 -1.3473 -2.9845  0.1244
  116MOL   H37344303   6.951   5.218   3.654  1.1170 -0.8014  1.0768
  116MOL   H37444304   6.928   5.167   3.482  1.2461  1.1329 -0.0506
  116MOL   H37544305   6.858   4.945   3.593 -0.6119 -0.5638  1.4283
  116MOL   H37644306   6.833   5.016   3.734  1.7361 -0.6258  0.2265
  116MOL   H37744307   6.661   5.203   3.623  0.7447  0.0173 -1.4032
  116MOL   H37844308   6.689   5.132   3.488 -2.3985 -0.6695  0.1087
  116MOL   H37944309   6.591   4.902   3.603  0.0118 -0.3008  0.6815
  116MOL   H38044310   6.563   4.998   3.742 -1.1304  0.0961  0.0446
  116MOL   H38144311   6.476   5.032   3.596 -0.4195 -1.4741  2.5035
  116MOL   H38244312   7.180   4.942   3.492  0.0284  0.5430 -0.5938
  117MOL     C144313   2.714   0.075   0.199 -0.6382  0.2625 -0.0149
  117MOL     C244314   2.827   0.166   0.166  0.0073 -0.7997 -0.3250
  117MOL     C344315   2.855   0.154   0.010 -0.6111 -1.0906 -0.0733
  117MOL     C444316   2.730   0.171   7.704  0.3045 -0.0935 -0.1359
  117MOL     C544317   2.765   0.155   7.554 -0.0797  0.8066  0.8474
  117MOL     C644318   2.641   0.148   7.467 -0.3146  0.1019  0.1244
  117MOL     O744319   2.796   0.303   0.191 -0.3217  0.1021  0.0219
  117MOL     H844320   2.719   7.753   0.189  1.4965  0.3741 -0.5582
  117MOL     H944321   2.621   0.094   0.146  0.5078 -0.1009 -2.2248
  117MOL    H1044322   2.920   0.137   0.215  0.1901  0.4294  0.0639
  117MOL    H1144323   2.920   0.239   7.775 -4.7142  2.2593  0.1449
  117MOL    H1244324   2.914   0.064   7.776 -0.6388 -0.8062 -1.5386
  117MOL    H1344325   2.660   0.090   7.725  0.7345 -0.9885 -2.0989
  117MOL    H1444326   2.686   0.268   7.727  2.3520  0.7570  0.3200
  117MOL    H1544327   2.832   0.236   7.526  2.3081 -0.3171  3.1657
  117MOL    H1644328   2.822   0.062   7.547 -2.2288 -0.3878 -1.8141
  117MOL    H1744329   2.657   0.107   7.367 -0.8647 -2.1777  0.9426
  117MOL    H1844330   2.550   0.100   7.503 -0.5883  0.8182  0.4124
  117MOL    H1944331   2.609   0.251   7.449  1.0498  0.7738  1.4459
  117MOL    H2044332   2.701   0.091   0.306 -0.2391 -0.4156  0.1318
  117MOL    C2144333   2.789   0.342   0.326 -0.1329 -0.7688  0.8784
  117MOL    C2244334   2.745   0.484   0.350 -0.1655 -0.7492  0.0824
  117MOL    C2344335   2.589   0.509   0.358  0.4966 -0.2863  0.3234
  117MOL    C2444336   2.519   0.448   0.234 -0.1898 -0.2374 -0.0965
  117MOL    C2544337   2.368   0.501   0.204 -0.1634  0.2799  0.6913
  117MOL    C2644338   2.304   0.438   0.079  0.0464  0.1497 -0.5915
  117MOL    O2744339   2.794   0.524   0.482 -0.1979 -0.8445  0.9051
  117MOL    H2844340   2.708   0.281   0.365 -2.0533  2.3525  2.0286
  117MOL    H2944341   2.876   0.310   0.384 -0.3279 -0.7345  1.1884
  117MOL    H3044342   2.784   0.556   0.278  1.6082  0.2117  1.9283
  117MOL    H3144343   2.568   0.615   0.369 -0.6025 -0.3340 -1.1690
  117MOL    H3244344   2.538   0.461   0.442 -0.9968 -2.1222 -1.5640
  117MOL    H3344345   2.513   0.339   0.241  0.9120 -0.2515  0.6991
  117MOL    H3444346   2.579   0.481   0.149 -0.9866 -0.9898 -0.9694
  117MOL    H3544347   2.306   0.471   0.288 -0.9486  0.2937  0.1234
  117MOL    H3644348   2.358   0.610   0.198  3.2634  0.6159  0.3436
  117MOL    H3744349   2.254   0.516   0.020 -1.5423 -0.9446 -0.7346
  117MOL    H3844350   2.241   0.350   0.089  0.0599  0.0281 -1.5883
  117MOL    H3944351   2.381   0.409   0.008  1.2489 -0.3938  0.9201
  117MOL    C4044352   2.914   0.600   0.485 -0.3121  0.0804  0.2247
  117MOL    C4144353   2.930   0.641   0.632 -0.5927  0.5605 -0.1599
  117MOL    C4244354   2.874   0.783   0.650 -0.1947  0.0011  0.9094
  117MOL    C4344355   2.847   0.809   0.799 -0.4364  0.0077 -0.3011
  117MOL    C4444356   2.847   0.959   0.822 -0.0583 -0.0973 -0.4279
  117MOL    C4544357   2.750   1.039   0.734 -0.1776 -0.2475  0.9398
  117MOL    O4644358   3.067   0.652   0.675 -0.0790  0.3164  0.0876
  117MOL    H4744359   2.917   0.684   0.416 -1.8817  1.6195  1.9838
  117MOL    H4844360   3.000   0.541   0.456 -1.2062 -0.6420 -1.0363
  117MOL    H4944361   2.875   0.568   0.692  3.7772 -1.8172  1.1318
  117MOL    H5044362   2.943   0.855   0.605 -0.2580 -1.5768 -1.8253
  117MOL    H5144363   2.782   0.801   0.595  0.9569  0.8921 -0.7902
  117MOL    H5244364   2.913   0.759   0.869  1.1615 -1.7986 -3.0212
  117MOL    H5344365   2.745   0.779   0.823 -0.3716 -0.3210 -0.4322
  117MOL    H5444366   2.825   0.981   0.926 -0.8258 -0.7655 -0.4461
  117MOL    H5544367   2.944   1.003   0.797 -0.6719  1.7000  0.2479
  117MOL    H5644368   2.782   1.042   0.630 -0.1241  0.7810  0.9849
  117MOL    H5744369   2.650   0.998   0.750  0.6421 -2.6226  0.2496
  117MOL    H5844370   2.716   1.138   0.763  0.3467  0.5520 -1.1474
  117MOL    C5944371   3.115   0.520   0.712 -0.2146 -0.9855 -0.1937
  117MOL    C6044372   3.098   0.489   0.861  0.3564  0.8088  0.1014
  117MOL    C6144373   3.108   0.335   0.888  0.3461  0.9962  0.9482
  117MOL    C6244374   3.121   0.290   1.039 -0.2656 -0.7847 -0.0546
  117MOL    C6344375   3.159   0.152   1.069 -1.0050  0.7910 -0.5648
  117MOL    C6444376   3.061   0.049   1.020  0.4741 -0.7916 -0.0169
  117MOL    O6544377   3.205   0.545   0.935  0.6093  0.1938  0.3855
  117MOL    H6644378   3.220   0.505   0.689  0.0972 -0.0095  0.5116
  117MOL    H6744379   3.051   0.447   0.663 -1.2947 -0.6881  0.7448
  117MOL    H6844380   2.998   0.520   0.891  0.5733  0.4138  1.2702
  117MOL    H6944381   3.201   0.291   0.850 -0.4041 -0.3262  0.6204
  117MOL    H7044382   3.037   0.276   0.830  1.4398  2.5738 -2.1043
  117MOL    H7144383   3.030   0.316   1.094 -0.5934  1.6540 -1.6854
  117MOL    H7244384   3.190   0.363   1.081 -3.1548  1.2113  1.4386
  117MOL    H7344385   3.170   0.151   1.177 -0.7763 -1.4252 -0.5882
  117MOL    H7444386   3.253   0.133   1.017  0.6084  3.0682  1.4404
  117MOL    H7544387   3.027   0.066   0.917 -1.3157  0.5303  0.7605
  117MOL    H7644388   3.107   7.737   1.012  2.0493  0.1256 -2.8046
  117MOL    H7744389   2.972   0.039   1.082 -0.4483  0.3085 -1.1085
  117MOL    C7844390   3.178   0.668   0.994 -1.1465  0.2476  0.0811
  117MOL    C7944391   3.301   0.745   1.036  0.3165  0.0544  0.1067
  117MOL    C8044392   3.267   0.851   1.139 -0.1005  0.1790 -0.3262
  117MOL    C8144393   3.181   0.968   1.078 -0.3465 -0.1022 -0.4969
  117MOL    C8244394   3.131   1.082   1.177 -0.3346  0.2199 -0.9295
  117MOL    C8344395   2.977   1.056   1.210  0.1032 -0.4150  0.6849
  117MOL    O8444396   3.376   0.797   0.921  0.0435 -0.2142 -0.0816
  117MOL    H8544397   3.109   0.638   1.073 -2.3701 -2.1742 -1.8303
  117MOL    H8644398   3.118   0.730   0.927  0.8143  0.2618 -1.7362
  117MOL    H8744399   3.375   0.679   1.082 -2.2582 -1.4526  2.2798
  117MOL    H8844400   3.221   0.800   1.223 -2.2027 -0.5805 -1.8839
  117MOL    H8944401   3.351   0.899   1.188 -0.3743 -2.5788  2.9504
  117MOL    H9044402   3.099   0.926   1.019 -0.7101 -0.7028  0.4152
  117MOL    H9144403   3.246   1.009   1.001  2.2418 -0.1120  1.6060
  117MOL    H9244404   3.185   1.082   1.272 -0.7492  3.2908 -0.6609
  117MOL    H9344405   3.138   1.181   1.133 -0.6017 -1.3238 -4.5615
  117MOL    H9444406   2.914   1.041   1.123 -1.2934  1.6103  1.3358
  117MOL    H9544407   2.929   1.133   1.269  1.8651  1.0714  0.2418
  117MOL    H9644408   2.963   0.966   1.270  0.7357  0.5916  2.3679
  117MOL    C9744409   3.449   0.704   0.838 -0.2650 -0.0685  0.7125
  117MOL    C9844410   3.541   0.772   0.738  0.1221  0.3516 -0.2352
  117MOL    C9944411   3.647   0.678   0.679 -0.2257 -0.2753  0.2223
  117MOL   C10044412   3.750   0.758   0.602  0.3198 -0.0287 -0.1510
  117MOL   C10144413   3.825   0.659   0.519  0.2104 -0.1147  0.1440
  117MOL   C10244414   3.928   0.730   0.443 -0.5272 -0.1177 -1.0130
  117MOL   O10344415   3.472   0.834   0.633  0.3641  0.5010  0.0361
  117MOL   H10444416   3.380   0.642   0.781 -1.5948  0.3722  1.8196
  117MOL   H10544417   3.508   0.639   0.903  2.3495  0.2483 -1.2814
  117MOL   H10644418   3.582   0.852   0.799  1.8456 -0.6125 -0.0946
  117MOL   H10744419   3.594   0.611   0.611  0.9317 -1.7049  0.6871
  117MOL   H10844420   3.686   0.605   0.750  0.6853 -0.2904 -0.2745
  117MOL   H10944421   3.820   0.808   0.670  2.0104 -0.7374 -1.3221
  117MOL   H11044422   3.716   0.843   0.543 -2.2023 -2.3562 -2.2047
  117MOL   H11144423   3.762   0.609   0.445  2.0216 -0.6688 -1.0682
  117MOL   H11244424   3.878   0.583   0.576  2.0346  1.0700  0.0448
  117MOL   H11344425   3.888   0.806   0.376  2.3513  1.3333 -1.1046
  117MOL   H11444426   4.006   0.766   0.509 -0.3330 -1.5334 -0.4474
  117MOL   H11544427   3.987   0.667   0.375 -0.3354 -0.7079 -0.3046
  117MOL   C11644428   3.387   0.940   0.670  0.0560 -0.2612  0.0144
  117MOL   C11744429   3.351   1.030   0.552 -0.2795 -0.3701 -0.4994
  117MOL   C11844430   3.307   1.174   0.593  0.2223 -1.0331 -0.4794
  117MOL   C11944431   3.176   1.171   0.686  0.4782 -0.4602  0.1624
  117MOL   C12044432   3.134   1.311   0.735 -0.6818 -0.2643 -0.5402
  117MOL   C12144433   3.001   1.309   0.809 -0.0012  0.1362  0.0062
  117MOL   O12244434   3.239   0.974   0.479  0.2941  0.2207  0.4611
  117MOL   H12344435   3.295   0.909   0.721 -0.0020  1.5052  1.0302
  117MOL   H12444436   3.432   1.007   0.743  1.6516  0.8890 -1.9819
  117MOL   H12544437   3.434   1.046   0.483  0.7260 -1.4970  0.4331
  117MOL   H12644438   3.390   1.212   0.652  0.1230 -2.3816  0.5752
  117MOL   H12744439   3.285   1.240   0.510 -1.0957 -1.7649 -0.7280
  117MOL   H12844440   3.190   1.100   0.768  0.4494 -1.0471 -0.3359
  117MOL   H12944441   3.090   1.128   0.636  0.0165  1.0919 -0.4149
  117MOL   H13044442   3.207   1.344   0.809 -0.1209 -2.3892 -0.1212
  117MOL   H13144443   3.139   1.395   0.665 -0.7460 -0.5959 -0.9427
  117MOL   H13244444   3.003   1.213   0.861 -1.0415  0.1931  0.1684
  117MOL   H13344445   2.983   1.393   0.876  0.7572  0.4655 -0.2051
  117MOL   H13444446   2.931   1.315   0.725 -2.6388 -0.2322  2.1118
  117MOL   C13544447   3.274   0.886   0.382 -0.0661 -0.0328  0.3817
  117MOL   C13644448   3.150   0.868   0.276  0.9863 -1.0924  0.2079
  117MOL   C13744449   3.142   0.722   0.214 -0.0744 -0.3481 -0.5174
  117MOL   C13844450   3.035   0.707   0.107  0.0217  0.0253  0.3291
  117MOL   C13944451   3.019   0.559   0.045  0.1743  0.7845  0.2471
  117MOL   C14044452   2.908   0.545   7.724  0.2285 -0.0560 -1.1993
  117MOL   O14144453   3.167   0.963   0.172  0.1580  0.4990 -0.0101
  117MOL   H14244454   3.361   0.932   0.336 -0.2001  1.4442  1.5938
  117MOL   H14344455   3.303   0.789   0.423 -0.6939 -0.9046 -1.1621
  117MOL   H14444456   3.056   0.884   0.329 -0.1060  0.0908 -2.0011
  117MOL   H14544457   3.236   0.688   0.172  0.0982 -0.1577 -0.2837
  117MOL   H14644458   3.133   0.647   0.294 -0.4375 -1.8360 -1.9186
  117MOL   H14744459   3.052   0.778   0.027  0.6519 -0.9784 -0.4424
  117MOL   H14844460   2.945   0.741   0.159  0.2086 -1.2031  1.5034
  117MOL   H14944461   2.990   0.489   0.123 -1.8533  0.7585 -0.5065
  117MOL   H15044462   3.114   0.517   0.011 -1.0019 -1.4142 -0.4539
  117MOL   H15144463   2.810   0.523   7.767  0.5725  0.5601 -0.0922
  117MOL   H15244464   2.897   0.623   7.649 -0.3852 -0.9277 -2.0291
  117MOL   H15344465   2.944   0.468   7.655 -1.0663  0.3107 -2.3023
  117MOL   C15444466   3.148   1.094   0.211 -0.5001 -0.6909  0.0815
  117MOL   C15544467   3.173   1.189   0.091  0.2588  0.4654  0.7799
  117MOL   C15644468   3.315   1.161   0.034 -0.1753  0.3706  0.3872
  117MOL   C15744469   3.423   1.200   0.135  0.7317  0.7198  0.4544
  117MOL   C15844470   3.568   1.194   0.081  0.2681  0.1894  0.0254
  117MOL   C15944471   3.666   1.253   0.185 -0.8508 -0.1855 -0.6918
  117MOL   O16044472   3.079   1.169   7.772 -0.0178 -0.0273  0.4832
  117MOL   H16144473   3.218   1.125   0.288 -1.8776 -1.0656  1.5070
  117MOL   H16244474   3.049   1.110   0.255 -0.3942 -0.5280  0.2626
  117MOL   H16344475   3.157   1.290   0.129 -1.7031  0.3371  0.3690
  117MOL   H16444476   3.341   1.217   7.730 -0.3921  0.1256  0.1699
  117MOL   H16544477   3.329   1.055   0.011 -0.4357  0.1958  1.0140
  117MOL   H16644478   3.417   1.125   0.213 -0.5191 -0.8053 -1.0644
  117MOL   H16744479   3.402   1.299   0.177  0.3999 -0.0259  2.0765
  117MOL   H16844480   3.598   1.089   0.073 -1.0221 -0.1525 -0.4741
  117MOL   H16944481   3.566   1.239   7.767 -0.6040  0.4980  0.1768
  117MOL   H17044482   3.770   1.251   0.154 -1.2946 -0.8727 -2.2352
  117MOL   H17144483   3.656   1.186   0.270  1.4879 -0.3882 -0.5567
  117MOL   H17244484   3.638   1.353   0.217  0.5842 -0.6180  2.0662
  117MOL   C17344485   3.062   1.272   7.677  0.2105 -0.0229  0.3754
  117MOL   C17444486   2.920   1.283   7.621 -0.0567  0.0985  0.2614
  117MOL   C17544487   2.879   1.426   7.593  0.3573 -0.4876  0.4282
  117MOL   C17644488   2.961   1.496   7.476 -0.1263 -0.6923  0.0956
  117MOL   C17744489   2.929   1.644   7.438  0.1990 -0.3983 -0.3165
  117MOL   C17844490   3.003   1.690   7.308 -0.1758 -0.0329 -0.4340
  117MOL   O17944491   2.904   1.208   7.504  0.5805 -0.4817 -0.2980
  117MOL   H18044492   3.130   1.272   7.593  2.3540  0.9108  2.0806
  117MOL   H18144493   3.070   1.365   7.732 -1.1536  0.8748 -0.8957
  117MOL   H18244494   2.854   1.231   7.691  0.3493 -2.0782 -0.9250
  117MOL   H18344495   2.771   1.429   7.577  0.3449 -0.3070  0.5477
  117MOL   H18444496   2.894   1.494   7.677 -0.4462  1.4491 -0.9601
  117MOL   H18544497   3.068   1.489   7.497  0.3973  3.7194 -0.7069
  117MOL   H18644498   2.941   1.443   7.383 -0.6662 -1.3566  0.5894
  117MOL   H18744499   2.821   1.646   7.421 -0.0513 -0.6187  1.2178
  117MOL   H18844500   2.950   1.709   7.522  0.6054  0.4768 -1.0872
  117MOL   H18944501   2.970   1.792   7.289 -1.0361  0.0836  1.5688
  117MOL   H19044502   2.963   1.637   7.221 -1.6709 -1.2235  0.9393
  117MOL   H19144503   3.111   1.680   7.308 -0.1774 -0.1862  1.2413
  117MOL   C19244504   2.908   1.059   7.525 -0.6936  0.6492  0.1306
  117MOL   C19344505   2.842   0.987   7.407  0.5374 -0.4258  0.0284
  117MOL   C19444506   2.820   0.840   7.441 -0.2863  0.1029  0.0482
  117MOL   C19544507   2.773   0.762   7.323  0.4675 -0.4499  0.3703
  117MOL   C19644508   2.737   0.616   7.361 -0.0745 -1.3559  0.8282
  117MOL   C19744509   2.710   0.529   7.233  0.5485 -0.3800  0.0887
  117MOL   O19844510   2.926   0.996   7.296  0.3815  0.1645 -0.6149
  117MOL   H19944511   3.007   1.014   7.518 -1.0715  0.0003 -1.2121
  117MOL   H20044512   2.866   1.030   7.621  0.7688  0.0265  0.6007
  117MOL   H20144513   2.742   1.031   7.403  1.1340  0.8333 -2.7205
  117MOL   H20244514   2.899   0.795   7.501  0.3838  0.9237 -0.2117
  117MOL   H20344515   2.746   0.838   7.521 -1.3229  1.6365 -0.8386
  117MOL   H20444516   2.849   0.773   7.246  0.1034  2.1596  0.3265
  117MOL   H20544517   2.682   0.811   7.287 -0.0109 -0.9388  0.9040
  117MOL   H20644518   2.820   0.576   7.420  0.8798 -0.8765 -0.1757
  117MOL   H20744519   2.649   0.615   7.425 -1.9071 -0.4226 -1.6189
  117MOL   H20844520   2.800   0.524   7.172 -0.2063  2.1852 -1.2995
  117MOL   H20944521   2.672   0.427   7.246 -0.9977 -0.0776 -1.8080
  117MOL   H21044522   2.634   0.567   7.164 -1.0343 -0.8100  1.5617
  117MOL   C21144523   2.931   1.123   7.239 -0.3685  0.2158 -0.1792
  117MOL   C21244524   2.930   1.109   7.088 -0.1404 -0.1284 -0.0755
  117MOL   C21344525   2.923   1.246   7.016 -0.1703 -0.0760 -0.1639
  117MOL   C21444526   2.920   1.254   6.859  0.3761 -0.1761 -0.4039
  117MOL   C21544527   3.059   1.204   6.798 -0.0967  0.0457 -0.3080
  117MOL   C21644528   3.183   1.289   6.840 -0.0853 -0.3819  0.0282
  117MOL   O21744529   2.807   1.036   7.066  0.0416  0.0223  0.0008
  117MOL   H21844530   3.021   1.169   7.278 -1.2361  0.8724  1.0918
  117MOL   H21944531   2.849   1.187   7.273  0.4299  1.3655 -0.4208
  117MOL   H22044532   3.022   1.062   7.053  0.3456 -0.1836  1.2322
  117MOL   H22144533   2.826   1.288   7.043  0.0199 -1.5151  3.0340
  117MOL   H22244534   3.008   1.293   7.066  0.9974 -2.2910 -0.0035
  117MOL   H22344535   2.835   1.196   6.823  0.1779  0.7206 -1.3903
  117MOL   H22444536   2.898   1.353   6.819  0.7147  0.1497  0.2151
  117MOL   H22544537   3.076   1.097   6.808 -2.0054 -0.1577  1.0185
  117MOL   H22644538   3.047   1.218   6.691  1.8196 -3.1989 -0.9930
  117MOL   H22744539   3.277   1.273   6.787 -0.7237  2.3863 -2.0892
  117MOL   H22844540   3.218   1.271   6.941 -0.9698  2.8434  0.9884
  117MOL   H22944541   3.164   1.396   6.835 -3.1457 -0.8606  0.3610
  117MOL   C23044542   2.810   0.930   6.967 -0.0009  0.2450 -0.1338
  117MOL   C23144543   2.672   0.870   6.936  0.4463 -0.0254  0.3431
  117MOL   C23244544   2.689   0.723   6.878 -0.1434  0.0809  0.2749
  117MOL   C23344545   2.555   0.651   6.852 -0.2177 -0.4954  0.4682
  117MOL   C23444546   2.587   0.510   6.807  0.6597  0.4405  0.2154
  117MOL   C23544547   2.469   0.429   6.757 -0.0844  0.3464  0.6416
  117MOL   O23644548   2.594   0.953   6.843  0.2155  0.7978 -0.1126
  117MOL   H23744549   2.830   0.971   6.868 -0.1275 -1.1660 -0.7547
  117MOL   H23844550   2.881   0.853   6.996 -0.6041 -0.2527  0.0230
  117MOL   H23944551   2.617   0.856   7.029 -0.3020 -1.2807 -0.2713
  117MOL   H24044552   2.746   0.670   6.954  0.3473 -1.8905 -1.4536
  117MOL   H24144553   2.752   0.724   6.789  1.8894  0.4887  1.6994
  117MOL   H24244554   2.502   0.711   6.777  0.3786 -0.2152  0.2679
  117MOL   H24344555   2.481   0.646   6.932 -1.2421 -0.7041 -0.4749
  117MOL   H24444556   2.659   0.515   6.725  1.8151  2.4452  1.3236
  117MOL   H24544557   2.624   0.454   6.893 -0.6108 -1.5179 -0.4667
  117MOL   H24644558   2.389   0.431   6.832 -1.2967 -0.5314 -0.5990
  117MOL   H24744559   2.490   0.325   6.732  0.1845  1.0400 -2.2421
  117MOL   H24844560   2.432   0.480   6.668 -0.5476 -0.0918  0.5794
  117MOL   C24944561   2.521   1.058   6.916  0.1538  0.3582  0.0388
  117MOL   C25044562   2.384   1.090   6.853  0.0734  0.0596 -0.5569
  117MOL   C25144563   2.287   0.990   6.899  0.5728  0.5248 -0.2604
  117MOL   C25244564   2.149   1.013   6.845  0.3492  0.2082  0.9627
  117MOL   C25344565   2.043   0.925   6.913  0.7148  0.2164 -0.3060
  117MOL   C25444566   1.921   0.908   6.826 -0.0013  0.6237  0.1966
  117MOL   O25544567   2.397   1.096   6.710 -0.2389 -0.6301  0.1910
  117MOL   H25644568   2.502   1.044   7.023  0.1424 -0.1558 -0.0273
  117MOL   H25744569   2.588   1.143   6.917 -0.9556  1.2434  0.4722
  117MOL   H25844570   2.348   1.182   6.898  0.7674 -1.3032  2.9777
  117MOL   H25944571   2.331   0.896   6.866 -2.0993 -0.2766 -1.6451
  117MOL   H26044572   2.283   0.981   7.008  1.9830 -0.6321 -0.2850
  117MOL   H26144573   2.123   1.118   6.858  0.3453  0.6906 -2.5198
  117MOL   H26244574   2.137   0.991   6.739  2.0596 -0.7403  0.9480
  117MOL   H26344575   2.077   0.829   6.952  0.8756  0.1244 -0.6655
  117MOL   H26444576   2.015   0.987   6.998  2.5263 -0.2294  0.6411
  117MOL   H26544577   1.843   0.858   6.883  0.0388  1.6285  1.1571
  117MOL   H26644578   1.942   0.837   6.747 -1.7111 -0.7967  1.0009
  117MOL   H26744579   1.879   1.000   6.783  0.9212  0.7320 -0.4842
  117MOL   C26844580   2.428   1.220   6.662  0.4192  0.1177  0.5881
  117MOL   C26944581   2.421   1.211   6.501 -0.2220  0.2300 -0.5740
  117MOL   C27044582   2.514   1.313   6.430  0.0980  0.0305  0.7727
  117MOL   C27144583   2.517   1.287   6.279  0.4690 -0.6575 -0.6290
  117MOL   C27244584   2.617   1.379   6.208 -0.4423  0.3992  0.4068
  117MOL   C27344585   2.544   1.516   6.180 -0.3169  0.3607  0.2616
  117MOL   O27444586   2.283   1.222   6.452 -0.6281 -0.4446 -0.2106
  117MOL   H27544587   2.531   1.241   6.692  1.2235  0.2889 -2.2184
  117MOL   H27644588   2.367   1.306   6.690 -0.9484 -0.8313  0.5567
  117MOL   H27744589   2.453   1.113   6.465 -1.2384 -0.9334  1.5896
  117MOL   H27844590   2.475   1.412   6.456  0.0187 -0.1633  1.3870
  117MOL   H27944591   2.616   1.298   6.465  1.4179  2.8159 -1.6697
  117MOL   H28044592   2.556   1.187   6.261  0.0768 -0.8373 -0.4741
  117MOL   H28144593   2.418   1.302   6.236  1.1069  1.1152 -1.5256
  117MOL   H28244594   2.709   1.398   6.263 -0.2472  0.2410  0.1361
  117MOL   H28344595   2.639   1.340   6.109 -3.9174  1.0562 -0.6776
  117MOL   H28444596   2.594   1.570   6.099 -1.4670  1.6249  0.3896
  117MOL   H28544597   2.444   1.500   6.138 -0.1880  0.0502  0.0732
  117MOL   H28644598   2.527   1.573   6.271 -1.0381  0.3503  0.1384
  117MOL   C28744599   2.182   1.140   6.512  0.0738  0.8704  0.4365
  117MOL   C28844600   2.065   1.155   6.418  1.0002 -0.2715 -0.6837
  117MOL   C28944601   1.935   1.126   6.495 -0.5990  0.1112  0.3694
  117MOL   C29044602   1.804   1.131   6.408  0.5090 -0.0983  0.5027
  117MOL   C29144603   1.695   1.048   6.473 -0.2724 -0.0732 -0.4183
  117MOL   C29244604   1.556   1.089   6.430  0.3002  0.5056 -0.3532
  117MOL   O29344605   2.073   1.062   6.312 -0.2913 -0.5807 -0.5534
  117MOL   H29444606   2.149   1.169   6.611 -0.1045  1.0928  0.3114
  117MOL   H29544607   2.204   1.033   6.509 -0.1070  0.8351  0.3629
  117MOL   H29644608   2.056   1.259   6.387 -0.0763  0.0569  0.6640
  117MOL   H29744609   1.950   1.022   6.524  1.5554 -0.4613 -2.5972
  117MOL   H29844610   1.924   1.176   6.591  1.9312 -0.5478  1.0368
  117MOL   H29944611   1.787   1.239   6.412 -2.5777 -0.6079  2.1701
  117MOL   H30044612   1.815   1.115   6.300  0.8417 -0.6384  0.6164
  117MOL   H30144613   1.705   1.056   6.581 -0.9705 -0.1697 -0.3380
  117MOL   H30244614   1.711   0.943   6.449 -0.2884  0.6735 -3.8694
  117MOL   H30344615   1.475   1.026   6.466  1.8155 -2.7537 -2.4008
  117MOL   H30444616   1.534   1.194   6.447  0.3371  0.1735  1.9633
  117MOL   H30544617   1.537   1.062   6.326  1.1139  1.1967 -0.6870
  117MOL   C30644618   2.177   1.102   6.222  0.2562  0.3155 -0.2360
  117MOL   C30744619   2.167   1.044   6.083 -0.4330  0.0866  0.4349
  117MOL   C30844620   2.292   1.069   5.990  0.1986 -0.0951 -0.5455
  117MOL   C30944621   2.266   1.008   5.851 -0.6569 -1.0071  0.2446
  117MOL   C31044622   2.375   1.048   5.756 -0.6690 -0.6872 -0.0295
  117MOL   C31144623   2.375   0.964   5.630  1.0506  0.3569 -0.0925
  117MOL   O31244624   2.043   1.101   6.021 -0.0116 -0.2789  0.1328
  117MOL   H31344625   2.181   1.210   6.208  0.1721  0.4647  0.8186
  117MOL   H31444626   2.273   1.064   6.257 -0.8495 -0.1677  2.3715
  117MOL   H31544627   2.158   0.936   6.095  3.7647 -0.2078  1.9964
  117MOL   H31644628   2.375   1.017   6.037  0.3868  0.4389 -0.2735
  117MOL   H31744629   2.316   1.175   5.975  1.2386 -0.3033 -0.3326
  117MOL   H31844630   2.277   0.900   5.854 -0.7444 -1.0277 -0.2046
  117MOL   H31944631   2.167   1.030   5.811  0.5340 -0.0779 -2.2542
  117MOL   H32044632   2.474   1.032   5.798 -0.6653 -1.7402 -0.4187
  117MOL   H32144633   2.369   1.154   5.728  0.3694 -1.0163 -1.5609
  117MOL   H32244634   2.281   0.974   5.575  0.6988  1.0991  0.6193
  117MOL   H32344635   2.457   0.990   5.562  3.0317 -1.5257  1.5378
  117MOL   H32444636   2.401   0.866   5.669  2.5450  0.6334 -0.3665
  117MOL   C32544637   1.926   1.012   6.027 -0.2176 -0.0786  0.6611
  117MOL   C32644638   1.792   1.080   5.968  1.0168  1.0345  0.3425
  117MOL   C32744639   1.668   1.011   6.029  0.3170 -0.0085  0.5555
  117MOL   C32844640   1.674   0.851   6.009  0.1134  0.3095 -0.2015
  117MOL   C32944641   1.534   0.777   6.007  1.3063 -0.5499 -0.1477
  117MOL   C33044642   1.539   0.630   6.042 -0.4921  0.7150  0.3921
  117MOL   O33144643   1.787   1.057   5.825  0.1264 -0.2305 -0.1968
  117MOL   H33244644   1.915   0.997   6.134 -0.3662 -0.6456  0.5676
  117MOL   H33344645   1.952   0.923   5.970  0.2830  0.7971 -0.5179
  117MOL   H33444646   1.784   1.187   5.982 -0.3383  1.0864 -0.7079
  117MOL   H33544647   1.671   1.031   6.136 -0.9533 -0.6527  0.7236
  117MOL   H33644648   1.577   1.058   5.991  1.9284  1.4653 -1.6452
  117MOL   H33744649   1.722   0.837   5.913 -0.3145  1.1888 -0.5504
  117MOL   H33844650   1.734   0.812   6.091 -2.7341 -0.2101  1.7097
  117MOL   H33944651   1.469   0.822   6.083 -1.0109 -1.0473 -1.7955
  117MOL   H34044652   1.479   0.798   5.915  2.1754 -0.2057 -0.5942
  117MOL   H34144653   1.591   0.581   5.960 -0.9645 -1.5608  1.4268
  117MOL   H34244654   1.588   0.611   6.137  0.7144 -0.1807 -0.3945
  117MOL   H34344655   1.438   0.591   6.033 -0.3761  0.5826 -0.4181
  117MOL   C34444656   1.871   1.147   5.758 -0.1690 -0.3752 -0.2166
  117MOL   C34544657   1.790   1.207   5.637 -0.4467 -0.2507 -0.0748
  117MOL   C34644658   1.663   1.291   5.682  0.1243 -0.4039  0.2695
  117MOL   C34744659   1.590   1.356   5.561 -0.0716 -0.0935 -0.1666
  117MOL   C34844660   1.454   1.417   5.610 -0.4582 -0.2435  0.0899
  117MOL   C34944661   1.344   1.313   5.624 -0.4454  0.4142  0.0380
  117MOL   O35044662   1.873   1.291   5.553  0.0942 -0.2817  0.1284
  117MOL   H35144663   1.953   1.087   5.720  0.6300 -0.3897  1.4729
  117MOL   H35244664   1.919   1.226   5.815 -0.4909 -0.6206  0.4030
  117MOL   H35344665   1.760   1.118   5.581  1.6762 -1.1739  0.1867
  117MOL   H35444666   1.691   1.359   5.762  1.2517  0.2348 -0.6476
  117MOL   H35544667   1.596   1.220   5.731  0.1236  0.1327  1.0554
  117MOL   H35644668   1.558   1.285   5.485  0.8633  0.6958 -1.3083
  117MOL   H35744669   1.655   1.427   5.510 -2.3958  2.8854  0.8661
  117MOL   H35844670   1.426   1.496   5.541 -1.0327  0.4689  1.1379
  117MOL   H35944671   1.470   1.467   5.705 -2.7173  0.0666  0.3411
  117MOL   H36044672   1.356   1.266   5.723  0.0498 -1.3940 -0.8462
  117MOL   H36144673   1.347   1.237   5.546  2.3962  0.7794 -0.2719
  117MOL   H36244674   1.247   1.362   5.625 -0.8819 -0.4380  1.1992
  117MOL   C36344675   1.946   1.230   5.452 -0.2441  0.0240 -1.0367
  117MOL   C36444676   2.086   1.289   5.448 -0.1754 -0.3103  0.5104
  117MOL   C36544677   2.184   1.215   5.358  0.0018 -0.1125  0.5252
  117MOL   C36644678   2.333   1.259   5.373  0.4788  0.4648  0.0121
  117MOL   C36744679   2.442   1.154   5.327  1.0601 -0.5240  0.5856
  117MOL   C36844680   2.470   1.160   5.174 -0.2132  0.1270 -0.1361
  117MOL   O36944681   2.079   1.425   5.398 -0.4710  0.4802  0.2791
  117MOL   H37044682   1.896   1.222   5.355  0.3089  0.8750 -1.3977
  117MOL   H37144683   1.956   1.126   5.483 -0.0241  0.5243  0.6007
  117MOL   H37244684   2.124   1.290   5.551 -0.7064 -1.6036  0.7301
  117MOL   H37344685   2.185   1.113   5.398  0.4365 -0.4818 -0.4034
  117MOL   H37444686   2.150   1.204   5.255 -2.5329 -0.5503  1.3792
  117MOL   H37544687   2.352   1.357   5.330  0.1129  0.8727  0.7855
  117MOL   H37644688   2.349   1.277   5.479 -3.0670 -0.7381  0.8465
  117MOL   H37744689   2.540   1.170   5.370  0.4725  0.4704  1.5856
  117MOL   H37844690   2.401   1.066   5.377  0.0796 -0.2268  0.3259
  117MOL   H37944691   2.543   1.087   5.139 -0.6136  0.0739 -0.8792
  117MOL   H38044692   2.382   1.132   5.115  0.8409 -2.5593 -0.5137
  117MOL   H38144693   2.492   1.265   5.153 -0.9778  0.4224  0.5130
  117MOL   H38244694   1.995   1.443   5.439  0.3285 -1.0622  2.7748
  118MOL     C144695   0.038   1.832   1.079  0.7733 -0.2893 -0.0453
  118MOL     C244696   0.161   1.744   1.077  0.2922  0.4346 -0.1451
  118MOL     C344697   0.133   1.621   1.168 -0.2983 -0.2545  0.0439
  118MOL     C444698   0.036   1.508   1.126 -0.5193 -0.7230  0.2621
  118MOL     C544699   0.067   1.375   1.203  0.6791 -0.3733 -0.1512
  118MOL     C644700   7.782   1.263   1.131 -0.6679 -0.1210 -0.0469
  118MOL     O744701   0.187   1.689   0.948 -0.3099  0.6394 -0.2868
  118MOL     H844702   0.025   1.897   0.992  0.1697  0.4993  0.6162
  118MOL     H944703   0.039   1.891   1.171  1.3541 -0.4237  0.0311
  118MOL    H1044704   0.248   1.793   1.121 -1.2462  2.5451  0.6708
  118MOL    H1144705   0.230   1.574   1.186  0.4652  2.1509  2.4571
  118MOL    H1244706   0.101   1.650   1.268 -0.0501 -0.6289  0.2338
  118MOL    H1344707   7.719   1.542   1.141 -0.0452  1.2367 -0.6602
  118MOL    H1444708   0.049   1.492   1.019 -0.2188 -1.4339  0.4025
  118MOL    H1544709   0.174   1.355   1.218  0.0963 -2.9902  0.7929
  118MOL    H1644710   0.029   1.387   1.304  0.7996  1.9179 -0.3596
  118MOL    H1744711   0.008   1.268   1.023 -0.0266  1.3783  0.0697
  118MOL    H1844712   0.052   1.178   1.169  0.5929  1.4277  1.6635
  118MOL    H1944713   7.676   1.254   1.155 -0.5997  1.1281  0.7827
  118MOL    H2044714   7.730   1.775   1.082  0.1632  0.6481 -0.7321
  118MOL    C2144715   0.257   1.779   0.857 -0.9883  0.5895 -0.8696
  118MOL    C2244716   0.264   1.710   0.718  0.1688  0.2874 -0.0708
  118MOL    C2344717   0.267   1.816   0.602 -0.2370 -0.0220  0.3184
  118MOL    C2444718   0.274   1.746   0.468 -0.2279  0.5330  0.2898
  118MOL    C2544719   0.228   1.841   0.350 -0.1648 -0.2583  0.4691
  118MOL    C2644720   0.337   1.946   0.326 -0.1112 -0.4002  0.0831
  118MOL    O2744721   0.385   1.644   0.699 -0.0487  0.4791 -0.3306
  118MOL    H2844722   0.219   1.881   0.862 -0.5624  0.7737 -1.2271
  118MOL    H2944723   0.359   1.792   0.893 -0.8950 -0.2939 -0.8153
  118MOL    H3044724   0.174   1.649   0.707  2.2138 -2.5983 -1.4448
  118MOL    H3144725   0.348   1.888   0.602 -0.3197  0.0719  0.0618
  118MOL    H3244726   0.176   1.875   0.610 -0.3547  0.0182 -1.1415
  118MOL    H3344727   0.208   1.659   0.469  0.3809  0.0810  1.5349
  118MOL    H3444728   0.376   1.711   0.449 -0.6873 -0.6697 -0.0337
  118MOL    H3544729   0.217   1.785   0.258  1.9640 -1.8957  1.1533
  118MOL    H3644730   0.135   1.894   0.370 -1.2515 -3.4984  4.6366
  118MOL    H3744731   0.341   2.030   0.396  1.4410 -0.4245  0.0525
  118MOL    H3844732   0.320   1.994   0.230  1.1964  0.3912  0.2339
  118MOL    H3944733   0.439   1.907   0.324 -0.0549 -0.1600 -2.0770
  118MOL    C4044734   0.388   1.516   0.752  0.2365 -0.1826  0.0438
  118MOL    C4144735   0.530   1.457   0.759  0.5259  0.5699  0.2754
  118MOL    C4244736   0.515   1.304   0.767 -0.3777  0.1691 -0.3234
  118MOL    C4344737   0.643   1.216   0.759  0.4757  0.4424  0.1435
  118MOL    C4444738   0.612   1.073   0.722 -0.2849 -0.2947  0.2458
  118MOL    C4544739   0.737   0.991   0.689  0.0907  0.1747  0.0547
  118MOL    O4644740   0.605   1.499   0.867 -0.1494  0.3837 -0.6040
  118MOL    H4744741   0.323   1.451   0.693  1.6773 -2.0580  0.4900
  118MOL    H4844742   0.353   1.515   0.855 -0.7757 -0.0034 -0.2892
  118MOL    H4944743   0.578   1.489   0.666  0.1923 -1.4197 -0.6127
  118MOL    H5044744   0.454   1.278   0.854 -0.3730  0.3131 -0.2769
  118MOL    H5144745   0.462   1.277   0.676  0.6992  0.2617 -0.9836
  118MOL    H5244746   0.699   1.217   0.853 -1.4601 -1.1855  1.3569
  118MOL    H5344747   0.716   1.261   0.693  1.1677 -0.6607  0.1402
  118MOL    H5444748   0.565   1.029   0.811  1.0410  1.5334  1.8941
  118MOL    H5544749   0.545   1.067   0.637  0.6574  1.8447 -0.6751
  118MOL    H5644750   0.713   0.890   0.657  1.0136 -0.1070  0.2408
  118MOL    H5744751   0.784   1.028   0.597  0.0369  1.6992  0.6165
  118MOL    H5844752   0.821   0.985   0.758  0.5209  1.6379 -0.3157
  118MOL    C5944753   0.665   1.624   0.852 -0.5979 -0.0983 -0.1558
  118MOL    C6044754   0.771   1.644   0.961  0.4107  1.3408  0.4704
  118MOL    C6144755   0.725   1.610   1.110  0.6564 -1.0743 -0.3524
  118MOL    C6244756   0.608   1.690   1.171  0.1917  0.5320 -0.0623
  118MOL    C6344757   0.645   1.833   1.215  0.7150 -0.1393 -0.1527
  118MOL    C6444758   0.524   1.905   1.271 -0.8986  0.0976 -0.4425
  118MOL    O6544759   0.908   1.594   0.935 -0.5867 -0.3865  0.1557
  118MOL    H6644760   0.586   1.700   0.853  0.0660  0.6388 -1.9281
  118MOL    H6744761   0.717   1.638   0.757 -0.4008  1.1732  0.1272
  118MOL    H6844762   0.799   1.750   0.964  0.8197  1.2268  0.6186
  118MOL    H6944763   0.809   1.615   1.180 -2.2315  1.4625  3.1169
  118MOL    H7044764   0.699   1.504   1.115  0.7853 -1.0430  1.1605
  118MOL    H7144765   0.567   1.639   1.258  0.1927  0.6949  0.0333
  118MOL    H7244766   0.529   1.692   1.097 -1.4914  2.1891  1.7436
  118MOL    H7344767   0.685   1.891   1.132 -0.0424 -0.5260 -0.7925
  118MOL    H7444768   0.721   1.821   1.292 -0.1724 -0.0622  0.7466
  118MOL    H7544769   0.542   2.009   1.296 -0.8971 -0.2877  1.2064
  118MOL    H7644770   0.442   1.899   1.200 -0.8268 -2.3056 -0.3728
  118MOL    H7744771   0.493   1.850   1.360 -0.8978  2.8886  1.3281
  118MOL    C7844772   0.924   1.454   0.931  0.9120  1.3203 -0.0002
  118MOL    C7944773   1.057   1.419   0.863 -0.1498  0.3436  0.2581
  118MOL    C8044774   1.179   1.483   0.927  0.0175  0.0507  0.3687
  118MOL    C8144775   1.308   1.399   0.895  0.3449  0.1857  0.4246
  118MOL    C8244776   1.445   1.470   0.913  0.1477  0.4415  0.1681
  118MOL    C8344777   1.574   1.401   0.879 -0.0516 -0.3079  0.2959
  118MOL    O8444778   1.078   1.436   0.722 -0.5696  0.3233 -0.8009
  118MOL    H8544779   0.838   1.410   0.880  1.6689  1.6561 -1.6173
  118MOL    H8644780   0.932   1.418   1.033 -0.2018 -1.4915 -0.8336
  118MOL    H8744781   1.054   1.312   0.881  0.7720  0.2086 -0.3401
  118MOL    H8844782   1.185   1.575   0.869  1.0564 -1.7930 -2.5646
  118MOL    H8944783   1.163   1.511   1.031  0.9283 -2.4312  1.2101
  118MOL    H9044784   1.299   1.359   0.793 -2.0951 -0.0952  0.7117
  118MOL    H9144785   1.308   1.308   0.956 -0.8628 -0.2466 -0.1931
  118MOL    H9244786   1.432   1.561   0.853 -1.6442  0.0885 -0.0264
  118MOL    H9344787   1.448   1.507   1.016 -0.9592  0.0861  0.3343
  118MOL    H9444788   1.630   1.359   0.962  0.9788  2.3526  0.9901
  118MOL    H9544789   1.639   1.477   0.835 -1.6029  0.5389 -0.5914
  118MOL    H9644790   1.558   1.321   0.806  1.7648 -1.9970  1.7106
  118MOL    C9744791   0.979   1.374   0.656  0.7557 -0.8042 -0.2228
  118MOL    C9844792   1.014   1.363   0.503 -0.6511 -0.6636 -0.2799
  118MOL    C9944793   0.906   1.284   0.432  0.0511  0.5250  0.2423
  118MOL   C10044794   0.915   1.297   0.279 -0.2822 -0.9566 -0.3926
  118MOL   C10144795   0.792   1.255   0.200  0.2140  0.1568 -0.0581
  118MOL   C10244796   0.734   1.117   0.242 -0.1598  0.7561  0.4113
  118MOL   O10344797   1.015   1.507   0.454 -0.4188  0.7613  0.0682
  118MOL   H10444798   0.886   1.430   0.655  1.6558  0.7361  0.1389
  118MOL   H10544799   0.967   1.269   0.680 -0.6807 -0.7288 -0.6004
  118MOL   H10644800   1.113   1.317   0.497  0.5410  1.6042  1.1369
  118MOL   H10744801   0.809   1.317   0.471 -0.4518  0.9423 -1.3394
  118MOL   H10844802   0.919   1.178   0.455  2.4153  0.9140  0.8449
  118MOL   H10944803   1.005   1.244   0.247  1.1987  1.7009 -0.7793
  118MOL   H11044804   0.942   1.398   0.248 -0.9731 -0.4927  0.4832
  118MOL   H11144805   0.811   1.257   0.092 -0.3757 -0.4796 -0.1742
  118MOL   H11244806   0.714   1.330   0.213  0.5876  0.7103 -0.9365
  118MOL   H11344807   0.632   1.101   0.208  0.0922 -0.4549  0.1995
  118MOL   H11444808   0.810   1.046   0.210  0.7395  1.8467  0.0549
  118MOL   H11544809   0.725   1.101   0.349  0.5034  0.0167  0.3574
  118MOL   C11644810   1.146   1.533   0.399 -0.6486 -0.2695  0.3761
  118MOL   C11744811   1.246   1.596   0.498 -0.0285 -0.3368  0.2998
  118MOL   C11844812   1.221   1.745   0.532 -0.1470  0.7145  0.2308
  118MOL   C11944813   1.298   1.799   0.653 -0.2245  0.3200 -0.4156
  118MOL   C12044814   1.269   1.952   0.675  0.3446 -0.2334 -0.2941
  118MOL   C12144815   1.345   2.003   0.796  0.2238  0.1543  0.4638
  118MOL   O12244816   1.370   1.576   0.436  0.2286 -0.1355  0.0165
  118MOL   H12344817   1.191   1.452   0.341  0.8117 -0.9180  2.3447
  118MOL   H12444818   1.120   1.611   0.328  1.2779 -1.0782 -1.2943
  118MOL   H12544819   1.235   1.545   0.593  1.5726 -1.6063 -0.1844
  118MOL   H12644820   1.253   1.790   0.438  0.2018 -0.2114 -0.0944
  118MOL   H12744821   1.114   1.767   0.538 -0.5922 -0.8297 -1.5070
  118MOL   H12844822   1.405   1.795   0.635  0.2220  0.8379  1.9594
  118MOL   H12944823   1.273   1.746   0.746  0.2396 -0.0957 -0.5273
  118MOL   H13044824   1.276   2.009   0.582 -1.3719  2.2336  1.0285
  118MOL   H13144825   1.163   1.959   0.701  0.1981 -0.3716 -0.8388
  118MOL   H13244826   1.309   2.099   0.833  1.4310  0.5413  0.6601
  118MOL   H13344827   1.336   1.937   0.883  1.8305  0.3672  0.8043
  118MOL   H13444828   1.449   2.029   0.778 -0.2940  1.1347 -1.2000
  118MOL   C13544829   1.436   1.448   0.465  0.0538 -0.0495  0.7613
  118MOL   C13644830   1.588   1.452   0.442  0.5090  0.0160 -0.4071
  118MOL   C13744831   1.658   1.310   0.446  0.7024  0.2995 -0.2808
  118MOL   C13844832   1.801   1.305   0.391 -0.1716 -0.3297  0.0152
  118MOL   C13944833   1.904   1.348   0.490 -0.1124 -0.2128  0.5825
  118MOL   C14044834   1.945   1.236   0.588 -0.5112  0.8916 -0.0955
  118MOL   O14144835   1.655   1.525   0.542 -0.0535  0.3728 -0.0271
  118MOL   H14244836   1.406   1.416   0.565  0.4333 -0.7089  0.6649
  118MOL   H14344837   1.397   1.377   0.392  0.3414  0.7061 -0.1250
  118MOL   H14444838   1.614   1.497   0.346 -1.2515  1.0522 -0.4225
  118MOL   H14544839   1.659   1.277   0.550  2.4073 -0.6378 -0.5781
  118MOL   H14644840   1.590   1.248   0.387  0.2299  0.6797 -0.1438
  118MOL   H14744841   1.810   1.364   0.300  3.1763 -2.1892 -0.9383
  118MOL   H14844842   1.815   1.199   0.370  0.0537 -0.1502 -0.7470
  118MOL   H14944843   1.870   1.431   0.553 -0.9925 -1.6624  2.0644
  118MOL   H15044844   1.986   1.393   0.435 -0.8765 -0.0556 -0.4519
  118MOL   H15144845   2.005   1.279   0.669  0.1508 -0.8056  0.3336
  118MOL   H15244846   1.863   1.188   0.642  1.2645  0.3721  2.2228
  118MOL   H15344847   2.002   1.161   0.534  0.5698  0.3187  1.8137
  118MOL   C15444848   1.627   1.658   0.572 -0.5587 -0.4319  0.4568
  118MOL   C15544849   1.759   1.733   0.572 -0.1961 -0.7704  0.4934
  118MOL   C15644850   1.742   1.883   0.555 -0.8965  0.2594  0.2908
  118MOL   C15744851   1.697   1.924   0.414 -0.1008  0.1281  0.5773
  118MOL   C15844852   1.642   2.063   0.414  0.0919 -0.0024  0.0682
  118MOL   C15944853   1.579   2.103   0.273  0.1067 -0.6079 -0.1465
  118MOL   O16044854   1.832   1.723   0.694  0.5676 -0.1385 -0.6627
  118MOL   H16144855   1.581   1.665   0.671  0.7889  0.1134  1.0451
  118MOL   H16244856   1.558   1.697   0.496 -0.3856 -1.1502 -0.0718
  118MOL   H16344857   1.820   1.693   0.491  1.3007 -1.2243  1.8099
  118MOL   H16444858   1.829   1.934   0.594 -0.9597  1.8241 -1.5091
  118MOL   H16544859   1.659   1.910   0.621  0.2017  0.4530  1.6146
  118MOL   H16644860   1.619   1.856   0.379 -0.7988  1.0786  0.2503
  118MOL   H16744861   1.778   1.912   0.343  0.5614  1.7130  1.0378
  118MOL   H16844862   1.571   2.078   0.495 -0.2228  0.4247 -0.2826
  118MOL   H16944863   1.719   2.138   0.434  0.1831 -0.0763 -0.0053
  118MOL   H17044864   1.659   2.085   0.202  0.3751 -1.4576  0.3596
  118MOL   H17144865   1.552   2.208   0.273  0.8934 -0.4083 -0.3057
  118MOL   H17244866   1.498   2.040   0.236  0.3205  0.0505 -1.7453
  118MOL   C17344867   1.979   1.706   0.676 -0.0027 -0.1554 -0.2336
  118MOL   C17444868   2.035   1.678   0.814 -0.0253 -0.8955 -0.2155
  118MOL   C17544869   1.979   1.549   0.879  0.2429  0.0823  0.8289
  118MOL   C17644870   2.046   1.504   1.003  0.4876 -0.2051 -0.2201
  118MOL   C17744871   1.973   1.398   1.083 -0.5325 -0.0829 -0.2844
  118MOL   C17844872   1.919   1.274   1.002  0.0274 -0.0451 -0.5268
  118MOL   O17944873   2.176   1.651   0.816 -0.2769 -0.2299  0.2371
  118MOL   H18044874   2.021   1.798   0.636  0.1329 -0.0955  0.0394
  118MOL   H18144875   2.021   1.632   0.608  0.1761 -1.1880  0.9802
  118MOL   H18244876   2.006   1.759   0.880  1.1531  0.7339 -1.6257
  118MOL   H18344877   1.880   1.565   0.920 -0.5474 -1.6652 -0.3001
  118MOL   H18444878   1.967   1.476   0.798 -0.4667 -0.1321  1.1227
  118MOL   H18544879   2.133   1.452   0.964 -0.8857 -2.1856 -0.7353
  118MOL   H18644880   2.070   1.588   1.068  1.9648 -0.3413 -0.5857
  118MOL   H18744881   2.039   1.353   1.158  0.0530  2.0388  0.5059
  118MOL   H18844882   1.898   1.444   1.148 -0.1026 -1.6529  1.3699
  118MOL   H18944883   1.832   1.295   0.939  0.5763 -0.4431 -1.4182
  118MOL   H19044884   1.890   1.192   1.068  0.2057  0.3299  0.0200
  118MOL   H19144885   2.000   1.239   0.938 -0.2824 -0.8896 -0.4601
  118MOL   C19244886   2.267   1.738   0.748  0.2034  0.9012 -0.6253
  118MOL   C19344887   2.412   1.692   0.767  0.7315 -0.2492 -0.7814
  118MOL   C19444888   2.507   1.810   0.732 -0.1215 -0.3094  0.3587
  118MOL   C19544889   2.659   1.794   0.766 -0.0071 -0.0093 -0.0234
  118MOL   C19644890   2.741   1.906   0.702  0.4328  0.5017 -0.2594
  118MOL   C19744891   2.892   1.913   0.755 -0.5087 -0.2701 -0.3738
  118MOL   O19844892   2.447   1.587   0.680 -0.0058  0.4130 -0.5528
  118MOL   H19944893   2.249   1.736   0.641  3.3840  2.1852 -1.2412
  118MOL   H20044894   2.246   1.841   0.777 -0.3655  1.2226 -2.1237
  118MOL   H20144895   2.422   1.672   0.874  0.9996 -0.2554 -0.8060
  118MOL   H20244896   2.500   1.821   0.623  2.1227 -3.1709 -0.1317
  118MOL   H20344897   2.479   1.906   0.774  1.1278  0.0894  0.2766
  118MOL   H20444898   2.682   1.692   0.736  2.3433  0.1684  1.0596
  118MOL   H20544899   2.673   1.792   0.874  2.1583 -0.9730 -0.2920
  118MOL   H20644900   2.739   1.901   0.593 -1.3636 -1.8363 -0.1712
  118MOL   H20744901   2.692   2.000   0.725  0.3596 -0.0864  2.0669
  118MOL   H20844902   2.901   1.962   0.853 -0.7927 -0.2904 -0.3379
  118MOL   H20944903   2.933   1.812   0.761 -0.5153 -0.1787  1.8515
  118MOL   H21044904   2.960   1.970   0.691 -0.8726 -0.9708 -1.3972
  118MOL   C21144905   2.422   1.463   0.743 -0.2259  0.3860 -0.1737
  118MOL   C21244906   2.486   1.360   0.642 -0.2515  0.3512  0.3381
  118MOL   C21344907   2.418   1.225   0.650  0.8320  0.6433  0.4635
  118MOL   C21444908   2.432   1.135   0.520  0.7101 -0.3197  0.1725
  118MOL   C21544909   2.372   0.999   0.526  0.4058  0.0234  0.0480
  118MOL   C21644910   2.402   0.917   0.395  0.1167 -0.1587 -0.6819
  118MOL   O21744911   2.622   1.334   0.663 -0.4192  0.2715 -0.1905
  118MOL   H21844912   2.316   1.443   0.754 -0.1014 -0.7406 -0.8863
  118MOL   H21944913   2.464   1.463   0.843  2.7833 -0.0203 -1.3563
  118MOL   H22044914   2.459   1.392   0.542  0.3522  2.3013  0.7611
  118MOL   H22144915   2.464   1.165   0.729  0.0141  0.6508  0.9516
  118MOL   H22244916   2.310   1.234   0.666  0.7364  0.7437 -0.2261
  118MOL   H22344917   2.387   1.181   0.433 -0.4742  1.1683  1.5311
  118MOL   H22444918   2.534   1.125   0.483  1.6822 -2.0524  3.1247
  118MOL   H22544919   2.411   0.959   0.619 -0.7221 -1.7407 -0.2297
  118MOL   H22644920   2.264   1.001   0.542  0.1531  2.0971 -1.6442
  118MOL   H22744921   2.508   0.915   0.368 -0.3677 -1.7555 -2.6041
  118MOL   H22844922   2.354   0.942   0.300 -0.5747  0.4240 -0.1824
  118MOL   H22944923   2.378   0.811   0.400  0.6001 -0.3912 -2.8198
  118MOL   C23044924   2.712   1.415   0.590  0.1599 -0.0870  0.0713
  118MOL   C23144925   2.797   1.342   0.483 -0.0030 -0.4787  0.0355
  118MOL   C23244926   2.896   1.439   0.412 -0.1475 -0.0258  0.1645
  118MOL   C23344927   2.824   1.539   0.332  0.1739  0.1619  0.5473
  118MOL   C23444928   2.901   1.667   0.291 -0.4352 -0.1767 -0.8063
  118MOL   C23544929   2.989   1.650   0.170  0.9414 -0.0982  0.0327
  118MOL   O23644930   2.707   1.297   0.378 -0.1459  0.1942 -0.3634
  118MOL   H23744931   2.658   1.499   0.547 -0.9503 -0.4622  0.6837
  118MOL   H23844932   2.775   1.451   0.672 -1.2083  0.3739  0.9431
  118MOL   H23944933   2.859   1.264   0.527  0.1374  0.0152  0.7276
  118MOL   H24044934   2.970   1.392   0.348 -0.7184 -0.8927  0.1234
  118MOL   H24144935   2.962   1.479   0.489  1.0630 -0.9026 -0.4011
  118MOL   H24244936   2.746   1.587   0.391  1.1377 -0.0501  2.0311
  118MOL   H24344937   2.766   1.503   0.247 -0.1767  2.3386 -0.1678
  118MOL   H24444938   2.840   1.753   0.263  1.7498  2.0653  1.1423
  118MOL   H24544939   2.963   1.710   0.369  0.1062  0.2729 -1.4785
  118MOL   H24644940   3.040   1.746   0.160 -0.7316  0.7760 -0.3038
  118MOL   H24744941   2.939   1.626   0.076  1.7607 -0.5567 -0.2955
  118MOL   H24844942   3.066   1.574   0.185  0.4350 -0.8563 -1.0757
  118MOL   C24944943   2.759   1.198   0.295  0.3257  0.5919 -0.4470
  118MOL   C25044944   2.654   1.137   0.208  0.4295  0.0551  0.4159
  118MOL   C25144945   2.695   0.991   0.168  0.0417  0.4990  0.3588
  118MOL   C25244946   2.593   0.914   0.080  1.1733 -0.1073  0.3474
  118MOL   C25344947   2.637   0.770   0.050  0.2469  0.6725 -0.4673
  118MOL   C25444948   2.538   0.707   7.735 -0.4776  0.0032  0.0326
  118MOL   O25544949   2.626   1.206   0.089 -0.1332  0.1134 -0.4364
  118MOL   H25644950   2.844   1.242   0.242  2.0539  0.0434  1.7961
  118MOL   H25744951   2.793   1.115   0.356 -1.7405  0.6978  0.8858
  118MOL   H25844952   2.557   1.127   0.257 -0.3260  0.5837 -0.9374
  118MOL   H25944953   2.793   1.004   0.122  0.6033 -0.6136  1.2154
  118MOL   H26044954   2.710   0.935   0.260  0.1053  1.6792  1.0734
  118MOL   H26144955   2.496   0.914   0.130  2.1519  0.3468  2.3308
  118MOL   H26244956   2.581   0.981   7.781  0.4596  1.1962  1.4684
  118MOL   H26344957   2.733   0.771   7.783  0.4376 -1.2524 -0.2018
  118MOL   H26444958   2.662   0.705   0.134  2.0185  0.4638 -1.1256
  118MOL   H26544959   2.575   0.610   7.702 -2.3163 -1.1389  1.2158
  118MOL   H26644960   2.516   0.760   7.642 -1.1179 -0.2729  0.0253
  118MOL   H26744961   2.443   0.700   0.001 -1.2614  1.0914 -1.2210
  118MOL   C26844962   2.524   1.310   0.098 -0.2287  0.2631  0.3281
  118MOL   C26944963   2.500   1.385   7.751 -0.7637  0.0935 -0.1967
  118MOL   C27044964   2.453   1.535   7.772  0.1988  0.5134  0.0349
  118MOL   C27144965   2.442   1.620   7.640 -0.5419 -0.2902 -0.1416
  118MOL   C27244966   2.397   1.761   7.664  0.3819 -0.3089 -0.1375
  118MOL   C27344967   2.354   1.837   7.536 -0.3868 -0.1963 -0.3836
  118MOL   O27444968   2.401   1.315   7.669 -0.3541 -0.1210 -0.6507
  118MOL   H27544969   2.578   1.387   0.153 -0.1425  0.4451 -0.0077
  118MOL   H27644970   2.433   1.274   0.147 -0.7463 -0.6717 -1.2957
  118MOL   H27744971   2.595   1.401   7.701 -1.6111  0.1046 -1.8439
  118MOL   H27844972   2.358   1.525   0.039 -0.1445 -0.2394 -0.7188
  118MOL   H27944973   2.519   1.581   0.059  1.4503 -0.1603 -0.6602
  118MOL   H28044974   2.535   1.619   7.584 -0.0372  0.3853  0.6741
  118MOL   H28144975   2.372   1.571   7.572 -1.1756  0.8739 -0.3551
  118MOL   H28244976   2.320   1.741   7.739  1.9430 -0.9362  1.3107
  118MOL   H28344977   2.473   1.812   7.723 -0.6242  0.5054  0.4787
  118MOL   H28444978   2.305   1.769   7.467 -1.8829  0.0390  0.4166
  118MOL   H28544979   2.291   1.923   7.558 -2.5232 -1.3305 -1.9026
  118MOL   H28644980   2.445   1.879   7.494  1.2445 -1.2108  2.0046
  118MOL   C28744981   2.456   1.219   7.582 -0.0753 -0.3391 -0.2501
  118MOL   C28844982   2.353   1.132   7.499 -0.3412  0.2032 -0.1800
  118MOL   C28944983   2.412   1.002   7.443 -0.2134  0.0305  0.8244
  118MOL   C29044984   2.324   0.923   7.343  0.1079  0.2167  0.0993
  118MOL   C29144985   2.396   0.805   7.274  0.3608 -0.6248  0.5703
  118MOL   C29244986   2.311   0.713   7.190 -0.2312 -0.2165 -1.0823
  118MOL   O29344987   2.311   1.210   7.384 -0.3462  0.9026 -0.2267
  118MOL   H29444988   2.516   1.153   7.645  0.3100  1.1698  0.9928
  118MOL   H29544989   2.534   1.259   7.517  0.6238 -0.4701  0.4884
  118MOL   H29644990   2.265   1.108   7.558  1.1023  1.3105  2.5511
  118MOL   H29744991   2.502   1.029   7.388  1.2300 -2.3763  1.9276
  118MOL   H29844992   2.436   0.934   7.525  0.4797 -0.5658  0.1387
  118MOL   H29944993   2.245   0.882   7.405 -0.8659 -1.7307 -2.3411
  118MOL   H30044994   2.281   0.983   7.263 -1.6104 -0.4042  0.5438
  118MOL   H30144995   2.449   0.745   7.348  1.2207 -1.0096 -0.3450
  118MOL   H30244996   2.470   0.856   7.212 -1.0348  1.2175  0.3731
  118MOL   H30344997   2.368   0.659   7.114 -1.1535  1.1233 -2.7695
  118MOL   H30444998   2.242   0.653   7.248 -0.3896  0.3954 -0.6329
  118MOL   H30544999   2.247   0.780   7.132  0.5116  0.9656 -0.5717
  118MOL   C30645000   2.244   1.329   7.417  0.5062 -0.7076  0.0869
  118MOL   C30745001   2.145   1.365   7.307  0.0284 -0.6402  0.6454
  118MOL   C30845002   2.119   1.515   7.292 -0.0237  0.1063 -0.0005
  118MOL   C30945003   2.022   1.547   7.175 -0.1299 -0.0118 -0.2659
  118MOL   C31045004   1.992   1.701   7.163 -0.0340  0.9434 -0.7528
  118MOL   C31145005   1.933   1.738   7.032  0.4030 -0.0474  0.9905
  118MOL   O31245006   2.024   1.300   7.321  0.2174 -0.1148  0.3238
  118MOL   H31345007   2.181   1.315   7.505  1.9332 -0.2909  1.1958
  118MOL   H31445008   2.313   1.410   7.441 -1.1938 -0.0868  3.1207
  118MOL   H31545009   2.200   1.340   7.216  0.2423  2.2061 -0.0483
  118MOL   H31645010   2.212   1.572   7.283  0.3217 -0.5808 -0.9222
  118MOL   H31745011   2.075   1.550   7.385  0.6013  1.5653 -0.2430
  118MOL   H31845012   2.069   1.517   7.081  2.3643  0.0293  0.9421
  118MOL   H31945013   1.926   1.497   7.181  1.4971 -3.2026  0.1403
  118MOL   H32045014   2.086   1.756   7.160 -1.5803  3.6774 -1.1509
  118MOL   H32145015   1.937   1.741   7.248  1.9058  0.8919  0.5490
  118MOL   H32245016   1.987   1.720   6.939 -1.9804 -1.8196 -0.1401
  118MOL   H32345017   1.841   1.679   7.021  0.0371  0.4321  1.4354
  118MOL   H32445018   1.907   1.843   7.018  0.1188 -0.3377 -0.7996
  118MOL   C32545019   2.024   1.163   7.296 -0.0617 -0.0113  0.5787
  118MOL   C32645020   1.883   1.105   7.322 -0.7280 -0.3157  0.9542
  118MOL   C32745021   1.878   0.962   7.378  0.2191  0.7957  0.5047
  118MOL   C32845022   1.756   0.928   7.466  0.4551  0.4025 -0.8927
  118MOL   C32945023   1.618   0.950   7.401 -0.3772 -0.0770 -0.2017
  118MOL   C33045024   1.502   0.914   7.488  0.4238 -0.6659 -0.4676
  118MOL   O33145025   1.812   1.096   7.193 -0.7135 -0.3681 -0.1466
  118MOL   H33245026   2.088   1.107   7.364 -1.7996 -0.6363  1.7353
  118MOL   H33345027   2.061   1.131   7.198 -0.4562  1.0577  0.0793
  118MOL   H33445028   1.827   1.178   7.380 -1.7132 -0.1907 -0.1324
  118MOL   H33545029   1.877   0.891   7.295 -0.9613 -0.9758  2.0075
  118MOL   H33645030   1.964   0.935   7.440  0.5881 -0.0792 -0.3622
  118MOL   H33745031   1.754   0.828   7.508  0.2080  0.8309  0.1199
  118MOL   H33845032   1.768   0.995   7.551 -1.6020  1.1220 -1.1317
  118MOL   H33945033   1.613   1.055   7.369  2.5018  0.3222  0.5267
  118MOL   H34045034   1.611   0.896   7.307 -1.2305  0.6929 -0.5925
  118MOL   H34145035   1.412   0.906   7.427  1.7384 -0.5844 -2.4617
  118MOL   H34245036   1.514   0.819   7.540  3.0948  0.5559  1.2310
  118MOL   H34345037   1.479   0.994   7.557 -2.1770 -2.3894  0.7676
  118MOL   C34445038   1.793   1.218   7.121 -0.1344  0.3010 -1.0554
  118MOL   C34545039   1.647   1.267   7.133 -0.1957  0.5326  0.1047
  118MOL   C34645040   1.625   1.420   7.126  0.4954  0.8233 -0.3400
  118MOL   C34745041   1.481   1.462   7.127  0.1061 -0.1676  0.5555
  118MOL   C34845042   1.471   1.613   7.121 -0.9187 -0.7381  0.1639
  118MOL   C34945043   1.334   1.676   7.132  0.7431  0.2210 -0.9982
  118MOL   O35045044   1.572   1.218   7.020  0.2096 -0.0450  0.3735
  118MOL   H35145045   1.809   1.194   7.016 -0.8225 -0.9909 -0.8764
  118MOL   H35245046   1.861   1.299   7.146 -0.0754 -0.3194  0.8785
  118MOL   H35345047   1.596   1.229   7.221  1.0830 -3.0603 -0.6441
  118MOL   H35445048   1.669   1.463   7.035 -0.4084  1.8860 -0.2836
  118MOL   H35545049   1.687   1.460   7.207 -0.8326  0.5960  0.8113
  118MOL   H35645050   1.438   1.436   7.224  0.2091 -1.6003  0.2288
  118MOL   H35745051   1.430   1.418   7.040  0.8302  3.8228 -2.0170
  118MOL   H35845052   1.510   1.648   7.026 -2.3794  0.5651  0.0130
  118MOL   H35945053   1.537   1.653   7.198 -1.0172 -1.5085  0.6606
  118MOL   H36045054   1.305   1.659   7.235 -2.2677 -0.8910 -1.9719
  118MOL   H36145055   1.255   1.621   7.080  0.8219 -0.4317 -0.4331
  118MOL   H36245056   1.337   1.779   7.094  1.3481  0.8159  0.6188
  118MOL   C36345057   1.541   1.080   7.025 -0.7382  0.2698  0.0855
  118MOL   C36445058   1.531   1.029   6.880 -0.9739 -0.9569  0.2004
  118MOL   C36545059   1.537   0.877   6.870  0.1489 -0.1253 -0.2620
  118MOL   C36645060   1.579   0.819   6.736  0.1466 -0.0358 -1.1667
  118MOL   C36745061   1.604   0.670   6.745 -0.1548 -0.1575  0.6880
  118MOL   C36845062   1.683   0.619   6.628 -0.0243 -0.0197  0.3371
  118MOL   O36945063   1.415   1.074   6.825  0.1588 -0.4327 -0.0905
  118MOL   H37045064   1.458   1.056   7.092 -1.0896  1.3156  0.0308
  118MOL   H37145065   1.624   1.027   7.071 -0.5308  0.0774 -0.4935
  118MOL   H37245066   1.615   1.058   6.817 -0.5905 -2.0294  0.2096
  118MOL   H37345067   1.620   0.840   6.930  1.5728 -0.1665 -2.1651
  118MOL   H37445068   1.447   0.831   6.910  1.5699 -3.6227 -0.8327
  118MOL   H37545069   1.516   0.843   6.650  2.5091 -0.2727 -3.0116
  118MOL   H37645070   1.671   0.868   6.703  0.7504  0.2055  0.8201
  118MOL   H37745071   1.650   0.637   6.838  1.3445  2.4150  0.9029
  118MOL   H37845072   1.508   0.619   6.746  1.2130 -2.8728 -0.2201
  118MOL   H37945073   1.690   0.510   6.619  0.5608  0.1440 -1.5284
  118MOL   H38045074   1.642   0.668   6.540 -0.6477 -0.5891  0.3042
  118MOL   H38145075   1.783   0.660   6.634  0.0323 -0.3617  2.0801
  118MOL   H38245076   1.417   1.168   6.819 -0.2430 -0.0048  4.6587
  119MOL     C145077   1.372   2.058   4.415  0.1746 -0.0981 -0.0882
  119MOL     C245078   1.460   2.120   4.311 -0.0223 -0.0403  0.1989
  119MOL     C345079   1.395   2.231   4.243 -0.2787 -1.0430  0.1096
  119MOL     C445080   1.269   2.201   4.159 -0.3505 -0.0848  0.3520
  119MOL     C545081   1.198   2.322   4.098  0.4787  0.2442 -0.0222
  119MOL     C645082   1.252   2.350   3.956 -0.0832  0.2991 -0.4079
  119MOL     O745083   1.583   2.165   4.369  0.0321 -0.0917  0.5333
  119MOL     H845084   1.427   1.983   4.472 -0.7795 -0.6838  0.0711
  119MOL     H945085   1.279   2.010   4.385 -1.0311  1.7550  0.6399
  119MOL    H1045086   1.467   2.049   4.229 -0.9289 -0.1784  0.2297
  119MOL    H1145087   1.363   2.301   4.321  1.8290  0.5114 -0.3681
  119MOL    H1245088   1.475   2.284   4.191 -1.9535  1.8624  0.3475
  119MOL    H1345089   1.295   2.137   4.075  1.5354  0.1309  0.7489
  119MOL    H1445090   1.198   2.168   4.235  0.5417  2.5088  2.4133
  119MOL    H1545091   1.096   2.284   4.090 -0.6631  3.0200  0.6853
  119MOL    H1645092   1.218   2.398   4.174 -0.0576 -0.5566  0.9266
  119MOL    H1745093   1.192   2.435   3.925 -1.4592 -0.8337 -0.9278
  119MOL    H1845094   1.357   2.371   3.978 -0.8899  1.1196  3.0390
  119MOL    H1945095   1.239   2.261   3.895 -0.7711  0.7071 -0.8577
  119MOL    H2045096   1.367   2.133   4.494 -0.2570 -0.9966  0.7464
  119MOL    C2145097   1.695   2.095   4.322  0.1198  0.5088 -0.0972
  119MOL    C2245098   1.813   2.133   4.407  0.0255  0.1420 -0.1508
  119MOL    C2345099   1.848   2.283   4.377  0.0809  0.0572 -0.1213
  119MOL    C2445100   1.980   2.333   4.438 -0.7967  0.3835  0.5338
  119MOL    C2545101   2.035   2.462   4.381  0.2523 -0.5015 -0.4505
  119MOL    C2645102   2.158   2.510   4.453 -0.3843 -0.0294  0.2026
  119MOL    O2745103   1.806   2.111   4.546 -0.2834  0.0243 -0.4017
  119MOL    H2845104   1.664   1.990   4.329 -2.1278  1.1980  0.7421
  119MOL    H2945105   1.704   2.122   4.217 -3.7824 -1.1393 -0.9378
  119MOL    H3045106   1.902   2.078   4.377  1.9258  2.6541  0.6878
  119MOL    H3145107   1.767   2.349   4.407 -1.1937 -0.6392 -1.9534
  119MOL    H3245108   1.851   2.303   4.270 -0.9354 -2.1030 -0.5663
  119MOL    H3345109   2.059   2.260   4.420 -0.1001  1.2541  0.0135
  119MOL    H3445110   1.964   2.331   4.546 -0.3711  0.8262  0.6044
  119MOL    H3545111   2.049   2.447   4.273  1.9140  0.5457 -0.4073
  119MOL    H3645112   1.960   2.541   4.382  1.3039  0.5066  1.1258
  119MOL    H3745113   2.168   2.618   4.465  2.0528 -0.4840  2.7293
  119MOL    H3845114   2.251   2.461   4.423 -0.3547 -0.6394  1.2655
  119MOL    H3945115   2.145   2.479   4.557 -2.2029  1.8380  0.5427
  119MOL    C4045116   1.784   1.973   4.586 -0.4513 -0.1790  0.1390
  119MOL    C4145117   1.751   1.968   4.732 -0.7284 -0.9734 -0.1036
  119MOL    C4245118   1.877   1.967   4.820  0.8891 -0.1293 -0.1325
  119MOL    C4345119   1.965   2.090   4.819  0.6879 -0.5289 -0.1730
  119MOL    C4445120   2.112   2.054   4.807  0.4720 -0.9077 -0.8420
  119MOL    C4545121   2.167   1.959   4.913  0.0800 -0.6187  0.4203
  119MOL    O4645122   1.688   1.840   4.757  0.0812 -0.2332  0.1479
  119MOL    H4745123   1.859   1.901   4.554  0.9020  1.3860 -0.2707
  119MOL    H4845124   1.688   1.944   4.545 -1.1352 -0.1822  1.6853
  119MOL    H4945125   1.686   2.049   4.765 -1.3746 -0.6580 -2.0895
  119MOL    H5045126   1.857   1.944   4.925  1.1702 -0.5207 -0.1652
  119MOL    H5145127   1.933   1.882   4.780 -1.5250 -0.6950 -2.4643
  119MOL    H5245128   1.958   2.153   4.908 -0.7501  0.2835 -0.8301
  119MOL    H5345129   1.935   2.156   4.737  2.5782  0.1594 -0.3518
  119MOL    H5445130   2.131   2.014   4.707  1.4465  2.4894 -2.1144
  119MOL    H5545131   2.179   2.140   4.808 -1.1384  0.3398  0.9231
  119MOL    H5645132   2.273   1.969   4.934  0.3886  0.0851 -1.3723
  119MOL    H5745133   2.125   1.968   5.014  0.8831  1.4716  0.5938
  119MOL    H5845134   2.137   1.858   4.887 -0.4682 -0.2794 -0.2961
  119MOL    C5945135   1.608   1.835   4.879 -0.6657  0.5036 -0.0009
  119MOL    C6045136   1.492   1.730   4.860 -0.1306  0.0330 -0.1127
  119MOL    C6145137   1.416   1.772   4.741 -1.0597  0.1026  0.9803
  119MOL    C6245138   1.320   1.659   4.702  0.1460 -0.1996 -0.5835
  119MOL    C6345139   1.202   1.701   4.611  0.2700 -0.2826 -0.4234
  119MOL    C6445140   1.111   1.817   4.659  0.9621  0.4619 -0.7994
  119MOL    O6545141   1.545   1.600   4.835 -0.7605  0.2062  0.3697
  119MOL    H6645142   1.544   1.923   4.888 -0.5402  0.6133 -0.1597
  119MOL    H6745143   1.665   1.823   4.970 -2.8691  0.5758  1.4245
  119MOL    H6845144   1.433   1.724   4.952  0.8603 -1.8967  0.4247
  119MOL    H6945145   1.481   1.790   4.656  1.2624  1.9830  3.0938
  119MOL    H7045146   1.356   1.860   4.767 -2.0745 -0.3901  0.3444
  119MOL    H7145147   1.271   1.610   4.786 -0.5907  2.5864  0.6673
  119MOL    H7245148   1.382   1.592   4.642 -0.9818 -0.7476 -1.1547
  119MOL    H7345149   1.136   1.618   4.586 -0.0439  0.3443 -1.6692
  119MOL    H7445150   1.246   1.751   4.525 -1.6811  0.4005 -1.0519
  119MOL    H7545151   1.012   1.816   4.613 -0.2704 -0.3939  1.7113
  119MOL    H7645152   1.089   1.822   4.766  0.1283  0.4298 -0.9617
  119MOL    H7745153   1.156   1.914   4.640  1.1189  0.7550  0.9328
  119MOL    C7845154   1.610   1.529   4.935 -0.0539 -0.2590  0.0287
  119MOL    C7945155   1.645   1.384   4.886 -0.6638 -0.1114  0.2417
  119MOL    C8045156   1.679   1.299   5.011  0.3742  0.4082 -0.2390
  119MOL    C8145157   1.665   1.148   4.981 -0.0093  1.0542  0.1150
  119MOL    C8245158   1.681   1.061   5.100 -0.0550 -0.0810  0.0163
  119MOL    C8345159   1.557   1.052   5.196  0.0588  0.2453  0.0157
  119MOL    O8445160   1.757   1.377   4.798 -0.2738  0.0135 -0.3699
  119MOL    H8545161   1.561   1.539   5.032 -1.0124 -1.9647 -0.2518
  119MOL    H8645162   1.706   1.577   4.957  0.7272 -1.9627  0.4970
  119MOL    H8745163   1.551   1.342   4.849 -0.1066 -0.2842 -1.0022
  119MOL    H8845164   1.767   1.335   5.065  0.2726  0.7892 -0.3281
  119MOL    H8945165   1.601   1.322   5.084 -0.8639  0.0752 -1.4281
  119MOL    H9045166   1.735   1.124   4.901 -1.8699  0.3342 -1.3188
  119MOL    H9145167   1.561   1.144   4.947  0.2950 -2.0787 -0.5463
  119MOL    H9245168   1.711   0.959   5.077  1.7120  0.7939 -1.6968
  119MOL    H9345169   1.776   1.088   5.146  0.2258 -1.2372  0.1117
  119MOL    H9445170   1.572   1.006   5.294 -3.3671 -0.3314  0.3426
  119MOL    H9545171   1.476   0.997   5.148  0.2418 -1.1204  1.2294
  119MOL    H9645172   1.507   1.146   5.223 -0.7869 -0.4026  0.7466
  119MOL    C9745173   1.760   1.464   4.688  0.5866 -0.0778  0.6480
  119MOL    C9845174   1.650   1.446   4.574  0.1598  0.0955  0.1939
  119MOL    C9945175   1.657   1.571   4.485  0.3984 -0.3078 -0.5053
  119MOL   C10045176   1.552   1.574   4.377 -0.1782  0.2718 -0.2296
  119MOL   C10145177   1.590   1.672   4.266 -0.2437 -0.4203 -0.0773
  119MOL   C10245178   1.509   1.658   4.144  0.0403 -0.0116 -0.2115
  119MOL   O10345179   1.686   1.344   4.484  0.3891 -0.5469  0.1020
  119MOL   H10445180   1.861   1.458   4.648  1.3564  1.3011  2.3128
  119MOL   H10545181   1.769   1.567   4.724  1.2264 -0.1790  0.7896
  119MOL   H10645182   1.550   1.441   4.616 -0.1665  0.3585 -0.5429
  119MOL   H10745183   1.759   1.578   4.447  1.9956 -1.0450  3.3880
  119MOL   H10845184   1.650   1.669   4.534 -2.6747 -0.9923  0.5178
  119MOL   H10945185   1.465   1.609   4.433  1.2271 -0.9136  2.7866
  119MOL   H11045186   1.535   1.476   4.332 -0.7026  0.5349 -0.6119
  119MOL   H11145187   1.694   1.650   4.244 -0.1588  2.1052 -2.4144
  119MOL   H11245188   1.587   1.776   4.299  0.1627 -0.5750  0.4478
  119MOL   H11345189   1.401   1.665   4.163  0.1769 -0.6130  0.8394
  119MOL   H11445190   1.536   1.726   4.064 -0.5091  1.3174  0.7092
  119MOL   H11545191   1.522   1.557   4.105  0.8886  0.2539 -0.6104
  119MOL   C11645192   1.630   1.216   4.516  0.8202  0.1370  0.5125
  119MOL   C11745193   1.674   1.112   4.406 -0.4122 -0.0323 -0.7369
  119MOL   C11845194   1.571   0.998   4.391  0.1861 -0.4530  0.2224
  119MOL   C11945195   1.587   0.904   4.274  0.2711  0.6202 -0.0083
  119MOL   C12045196   1.546   0.761   4.297  0.5044  0.1995 -0.5529
  119MOL   C12145197   1.404   0.727   4.318  0.4789  0.3433 -0.5243
  119MOL   O12245198   1.797   1.055   4.449  0.0986  0.1675 -0.4366
  119MOL   H12345199   1.650   1.187   4.619  0.1722 -0.6554  0.4279
  119MOL   H12445200   1.521   1.215   4.508  0.7277 -1.3501  1.6093
  119MOL   H12545201   1.688   1.169   4.314  2.2035 -0.7119 -0.8112
  119MOL   H12645202   1.588   0.951   4.488  3.5520 -1.7240 -0.9259
  119MOL   H12745203   1.469   1.035   4.382 -0.3967 -1.9801  0.3734
  119MOL   H12845204   1.694   0.898   4.250  0.2066  2.2353 -0.8537
  119MOL   H12945205   1.552   0.933   4.174  1.7171  0.1453 -0.6769
  119MOL   H13045206   1.591   0.700   4.219  0.1487  3.1912 -3.2049
  119MOL   H13145207   1.603   0.721   4.382  0.1279 -1.0533 -0.8836
  119MOL   H13245208   1.380   0.723   4.424 -0.9586  3.1905 -0.6897
  119MOL   H13345209   1.337   0.801   4.274  0.1114  0.5918  0.4381
  119MOL   H13445210   1.378   0.628   4.280 -0.5046  0.5478 -0.4209
  119MOL   C13545211   1.907   1.144   4.461 -0.4516  0.1270 -0.4792
  119MOL   C13645212   2.042   1.067   4.498  0.3108  0.6505 -0.3332
  119MOL   C13745213   2.078   0.944   4.406 -0.2861  0.6338 -0.1586
  119MOL   C13845214   2.003   0.817   4.427 -0.3633 -0.1472 -0.0783
  119MOL   C13945215   2.050   0.705   4.331 -0.1304 -0.3427 -0.3223
  119MOL   C14045216   1.998   0.560   4.346 -0.0190 -0.2843 -0.6294
  119MOL   O14145217   2.026   1.023   4.633 -0.3896 -0.1757  0.0207
  119MOL   H14245218   1.922   1.192   4.365 -1.6273  1.5179  0.0139
  119MOL   H14345219   1.887   1.229   4.527  0.3198  2.8781 -3.6632
  119MOL   H14445220   2.123   1.140   4.495  0.5886  0.2636 -2.7005
  119MOL   H14545221   2.051   0.967   4.303  2.9244 -1.1494 -1.4725
  119MOL   H14645222   2.185   0.923   4.396 -0.6346 -1.1354 -0.2764
  119MOL   H14745223   1.898   0.841   4.418 -0.1257  1.1383  0.3869
  119MOL   H14845224   2.022   0.784   4.529 -2.4589 -1.1555  0.0098
  119MOL   H14945225   2.155   0.700   4.357 -0.2497  0.6808  0.4184
  119MOL   H15045226   2.034   0.730   4.226 -0.7824 -0.2717 -0.2105
  119MOL   H15145227   2.066   0.501   4.285  1.1785  1.3512 -0.8905
  119MOL   H15245228   1.998   0.522   4.448  1.4388 -2.8395 -1.5302
  119MOL   H15345229   1.899   0.538   4.306 -0.0375 -0.4216 -0.5059
  119MOL   C15445230   1.986   1.117   4.730 -0.8045 -1.3503 -0.3495
  119MOL   C15545231   2.044   1.100   4.873 -0.6624  0.6949  0.6362
  119MOL   C15645232   2.076   1.239   4.936 -0.1946 -0.3764 -0.7688
  119MOL   C15745233   2.170   1.338   4.865 -0.2653  0.4094 -0.6601
  119MOL   C15845234   2.313   1.300   4.838  0.3044 -0.5421 -0.3340
  119MOL   C15945235   2.405   1.408   4.782  0.3895 -0.1083  0.2558
  119MOL   O16045236   1.959   1.027   4.964 -0.3361 -0.1492 -0.8633
  119MOL   H16145237   1.877   1.109   4.731 -0.9810  0.6876 -0.3750
  119MOL   H16245238   2.016   1.215   4.693 -1.9363 -1.5619 -1.8992
  119MOL   H16345239   2.146   1.063   4.868 -1.5954 -1.9202 -0.0492
  119MOL   H16445240   2.118   1.212   5.033 -0.2005 -0.3007 -0.7444
  119MOL   H16545241   1.983   1.287   4.968 -0.5571 -2.2927  1.1918
  119MOL   H16645242   2.196   1.422   4.929  0.3423 -1.2732  1.3720
  119MOL   H16745243   2.115   1.379   4.780 -1.1144  0.9742  0.1536
  119MOL   H16845244   2.360   1.253   4.924 -0.3134  0.8423  0.7767
  119MOL   H16945245   2.321   1.212   4.774 -0.0266  1.1743 -2.8175
  119MOL   H17045246   2.482   1.380   4.711  2.2330 -0.5268  2.3522
  119MOL   H17145247   2.431   1.487   4.854 -1.9299  0.4837  0.4682
  119MOL   H17245248   2.341   1.467   4.717  1.2008  0.9432  0.3913
  119MOL   C17345249   1.953   0.885   4.924 -0.4623 -0.2204 -0.7215
  119MOL   C17445250   2.086   0.811   4.960 -0.1793  0.6843  0.5314
  119MOL   C17545251   2.095   0.812   5.116  0.1323  0.7717  0.3906
  119MOL   C17645252   2.246   0.806   5.151  0.4405  0.3020  0.1393
  119MOL   C17745253   2.271   0.779   5.303  0.8220  0.8990  0.1878
  119MOL   C17845254   2.419   0.766   5.333  0.0285 -0.3738  0.1347
  119MOL   O17945255   2.086   0.666   4.930  0.2901  0.0497  0.1578
  119MOL   H18045256   1.929   0.888   4.818  1.4686 -1.6342 -1.2154
  119MOL   H18145257   1.872   0.835   4.977 -1.3891  0.6944 -1.2533
  119MOL   H18245258   2.168   0.856   4.904  0.2631 -1.3293 -0.4888
  119MOL   H18345259   2.060   0.905   5.161 -1.2461  0.6339 -0.3538
  119MOL   H18445260   2.026   0.733   5.147 -0.3273  0.5691 -1.0955
  119MOL   H18545261   2.284   0.711   5.116  2.0871  0.0174  2.5881
  119MOL   H18645262   2.312   0.887   5.118 -0.1246  0.2197 -1.2057
  119MOL   H18745263   2.229   0.862   5.361 -0.1488  0.5106  0.0457
  119MOL   H18845264   2.218   0.689   5.335 -0.9931  1.4746 -1.1116
  119MOL   H18945265   2.461   0.679   5.281  2.1117  0.4789  0.3332
  119MOL   H19045266   2.439   0.753   5.439 -2.5095 -2.7423  0.3649
  119MOL   H19145267   2.469   0.858   5.302 -0.0019 -0.7293 -1.0175
  119MOL   C19245268   2.102   0.643   4.792 -0.1779  0.1348  0.5609
  119MOL   C19345269   2.117   0.489   4.769 -0.1924  0.0879  0.1368
  119MOL   C19445270   2.213   0.461   4.652  0.6517  0.4590  0.1457
  119MOL   C19545271   2.254   0.318   4.644  0.6058  0.5079  0.1003
  119MOL   C19645272   2.327   0.278   4.516 -0.2734  0.6970  0.4620
  119MOL   C19745273   2.326   0.127   4.483 -0.1940 -0.3094 -0.2634
  119MOL   O19845274   1.994   0.422   4.737  0.3388  1.2308 -0.1252
  119MOL   H19945275   2.012   0.678   4.741 -1.3731 -1.3819  1.5907
  119MOL   H20045276   2.181   0.702   4.744 -0.1716 -0.1328  0.2403
  119MOL   H20145277   2.160   0.445   4.859 -1.5111 -0.9752  0.2538
  119MOL   H20245278   2.172   0.489   4.555 -0.0608  0.7012  0.5153
  119MOL   H20345279   2.297   0.531   4.660  0.8323  0.0731  1.7286
  119MOL   H20445280   2.164   0.257   4.643  0.2894  0.9438  1.0971
  119MOL   H20545281   2.298   0.280   4.736 -0.7313  1.3243  1.1054
  119MOL   H20645282   2.289   0.336   4.432  0.2355 -0.5732 -0.6632
  119MOL   H20745283   2.428   0.317   4.520 -0.0279  0.1000  0.1224
  119MOL   H20845284   2.356   0.091   4.581  0.2684 -0.1423 -0.3360
  119MOL   H20945285   2.223   0.095   4.469 -1.8510  5.0526 -1.4627
  119MOL   H21045286   2.394   0.093   4.405  2.4645  0.5165  1.5998
  119MOL   C21145287   1.899   0.415   4.843  0.2195 -0.4504  1.1252
  119MOL   C21245288   1.784   0.515   4.833  0.8752  0.1571 -0.0832
  119MOL   C21345289   1.722   0.530   4.975 -0.1664 -0.0776  0.4953
  119MOL   C21445290   1.608   0.631   4.983 -0.6536 -0.9588 -0.9090
  119MOL   C21545291   1.559   0.639   5.124  0.0053  0.3551 -0.1965
  119MOL   C21645292   1.491   0.511   5.174  0.0773  0.3247  0.1115
  119MOL   O21745293   1.688   0.461   4.748 -0.5491  0.1275 -0.8506
  119MOL   H21845294   1.946   0.409   4.941  1.0559 -0.1296  0.7526
  119MOL   H21945295   1.853   0.319   4.821 -0.5145  0.1474  0.0330
  119MOL   H22045296   1.816   0.608   4.787 -2.6624  1.5896  0.2447
  119MOL   H22145297   1.701   0.430   5.012 -0.3167 -0.6745 -1.1700
  119MOL   H22245298   1.802   0.576   5.034  0.9414 -2.1831  0.6902
  119MOL   H22345299   1.642   0.730   4.954  3.2187 -1.9080  0.0501
  119MOL   H22445300   1.528   0.603   4.914 -1.3977 -0.6750 -0.1607
  119MOL   H22545301   1.635   0.669   5.196  0.1562  1.0111 -0.6194
  119MOL   H22645302   1.481   0.716   5.118 -0.3201 -0.1142 -2.6267
  119MOL   H22745303   1.434   0.534   5.263  1.7927 -0.8754  1.5559
  119MOL   H22845304   1.560   0.431   5.203  4.4086  2.9802 -2.3687
  119MOL   H22945305   1.429   0.462   5.098  0.7497  0.6575 -0.6605
  119MOL   C23045306   1.680   0.495   4.611  0.0595  0.3286 -0.6592
  119MOL   C23145307   1.557   0.410   4.557 -0.3711  0.7206  0.3619
  119MOL   C23245308   1.432   0.454   4.625  0.5938 -0.4457 -0.0479
  119MOL   C23345309   1.307   0.408   4.543  0.3248 -0.0839 -0.8368
  119MOL   C23445310   1.171   0.440   4.621 -0.2332  0.2867  0.3754
  119MOL   C23545311   1.040   0.375   4.578 -0.3113  0.0691  0.0989
  119MOL   O23645312   1.579   0.278   4.601  0.2213 -0.2169  0.7332
  119MOL   H23745313   1.670   0.600   4.587 -1.6597  0.8373  2.1506
  119MOL   H23845314   1.773   0.458   4.565  0.8729 -0.3195  1.4475
  119MOL   H23945315   1.542   0.422   4.450 -0.7576 -1.8092  0.1075
  119MOL   H24045316   1.429   0.563   4.631 -1.2213 -0.5857  1.7940
  119MOL   H24145317   1.431   0.412   4.725  0.2338 -1.4287 -0.4672
  119MOL   H24245318   1.312   0.301   4.527 -1.9242 -0.6915  2.1969
  119MOL   H24345319   1.316   0.449   4.442  1.1257  1.7760 -0.0467
  119MOL   H24445320   1.181   0.382   4.713 -1.6025  0.1158  0.4197
  119MOL   H24545321   1.153   0.544   4.649 -2.9413 -0.1537  0.3890
  119MOL   H24645322   1.009   0.417   4.483 -0.7405 -0.3988  0.0283
  119MOL   H24745323   0.967   0.417   4.648  1.7706 -3.6973  4.8262
  119MOL   H24845324   1.043   0.267   4.593  2.5737  0.1645  0.3877
  119MOL   C24945325   1.650   0.207   4.504 -0.7195 -0.2018  0.2961
  119MOL   C25045326   1.648   0.053   4.525  0.8675  0.5220 -0.0282
  119MOL   C25145327   1.504   7.781   4.541 -0.3778 -0.2121  0.0629
  119MOL   C25245328   1.427   0.000   4.406  0.0522 -0.1059 -0.0980
  119MOL   C25345329   1.288   7.723   4.424 -0.6472  0.0771  0.5888
  119MOL   C25445330   1.190   0.033   4.498  0.6315 -0.2837  0.0115
  119MOL   O25545331   1.718   0.014   4.639  0.1208  0.3206 -0.3089
  119MOL   H25645332   1.612   0.221   4.402  0.5316  1.0014 -0.0214
  119MOL   H25745333   1.750   0.251   4.499 -0.4439 -0.9674 -1.3245
  119MOL   H25845334   1.695   0.001   4.441  1.3148 -1.3287  1.3377
  119MOL   H25945335   1.497   7.680   4.581 -1.1764  0.6832  2.2348
  119MOL   H26045336   1.446   0.059   4.607 -0.8485 -0.4445 -0.1167
  119MOL   H26145337   1.417   0.106   4.382 -0.0358  0.0764  0.7347
  119MOL   H26245338   1.491   7.741   4.330 -0.9979  0.8151 -1.5735
  119MOL   H26345339   1.243   7.701   4.328  0.8346  0.2877 -0.1680
  119MOL   H26445340   1.296   7.639   4.493 -2.4803  1.9001  3.1170
  119MOL   H26545341   1.095   7.766   4.486 -0.2962  0.8422  2.2590
  119MOL   H26645342   1.171   0.123   4.439 -0.2723  0.0794  0.8495
  119MOL   H26745343   1.210   0.062   4.601 -0.7314 -0.5233  0.3517
  119MOL   C26845344   1.863   0.026   4.626 -0.1079  0.1597  0.1634
  119MOL   C26945345   1.921   7.771   4.765  0.1152 -0.2898 -0.2369
  119MOL   C27045346   2.058   0.043   4.790 -0.0925 -0.1459  0.2563
  119MOL   C27145347   2.120   7.777   4.916 -0.0313 -0.0015  0.2748
  119MOL   C27245348   2.232   0.083   4.953  0.4573  0.5832  0.3680
  119MOL   C27345349   2.292   0.038   5.083 -0.4534 -0.1637 -1.3000
  119MOL   O27445350   1.936   7.627   4.780 -0.1259 -0.0195  0.0736
  119MOL   H27545351   1.895   0.129   4.608 -1.0118 -0.0860 -3.0155
  119MOL   H27645352   1.906   7.752   4.546 -0.6776  1.7784 -1.3926
  119MOL   H27745353   1.859   0.020   4.848  1.0683  2.3828 -0.5756
  119MOL   H27845354   2.126   0.032   4.705  0.6599 -1.2532  0.9773
  119MOL   H27945355   2.038   0.149   4.800  0.3237 -0.1813  1.5478
  119MOL   H28045356   2.042   7.777   4.992 -0.4771 -4.1743 -0.0543
  119MOL   H28145357   2.149   7.674   4.898 -1.0592 -0.3817  0.7515
  119MOL   H28245358   2.305   0.082   4.872  0.6102  1.5356  0.4937
  119MOL   H28345359   2.193   0.184   4.953 -2.2828 -0.3736  4.1794
  119MOL   H28445360   2.219   0.046   5.163 -0.0738 -2.3774 -0.6757
  119MOL   H28545361   2.314   7.716   5.077  0.0498 -0.0705 -1.2223
  119MOL   H28645362   2.381   0.097   5.108 -0.9816  1.3584 -2.9204
  119MOL   C28745363   1.815   7.559   4.812  0.0566 -0.5473  0.3153
  119MOL   C28845364   1.838   7.417   4.847  0.3670 -0.1510 -0.2764
  119MOL   C28945365   1.721   7.330   4.795 -0.1774 -0.7824 -0.1730
  119MOL   C29045366   1.727   7.183   4.815 -0.3807 -0.0594  0.3567
  119MOL   C29145367   1.625   7.102   4.733 -0.2075 -0.7837 -0.3601
  119MOL   C29245368   1.623   6.950   4.761  0.1439 -0.3591  0.4009
  119MOL   O29345369   1.839   7.406   4.997  0.2175  0.1061 -0.3605
  119MOL   H29445370   1.748   7.554   4.726  1.3136  0.3159 -0.7533
  119MOL   H29545371   1.758   7.616   4.885 -1.1928 -2.6172  0.9581
  119MOL   H29645372   1.933   7.373   4.816  0.7336  1.0489 -0.9037
  119MOL   H29745373   1.631   7.369   4.844  0.5585 -0.0315  0.5930
  119MOL   H29845374   1.708   7.360   4.691 -0.0097  3.4093  0.9407
  119MOL   H29945375   1.827   7.144   4.797 -0.9252 -1.7039  0.8808
  119MOL   H30045376   1.715   7.169   4.923 -0.5165 -0.5129  0.2804
  119MOL   H30145377   1.655   7.112   4.629  2.2688  2.5885  0.5849
  119MOL   H30245378   1.525   7.147   4.727  0.2382  0.4450  1.0574
  119MOL   H30345379   1.719   6.902   4.780  0.1016 -0.5845  0.0633
  119MOL   H30445380   1.560   6.932   4.848 -1.3438 -0.1421 -0.6061
  119MOL   H30545381   1.568   6.924   4.670  0.3613  1.0787 -0.1523
  119MOL   C30645382   1.962   7.464   5.041  0.5905 -0.8971 -0.0981
  119MOL   C30745383   2.003   7.393   5.172 -0.3191  0.3950  0.2069
  119MOL   C30845384   2.129   7.454   5.227  0.3027 -0.0244  0.0168
  119MOL   C30945385   2.163   7.380   5.358 -0.1427 -0.7789 -0.0330
  119MOL   C31045386   2.290   7.428   5.426 -0.4493 -0.1489 -0.0053
  119MOL   C31145387   2.317   7.348   5.548  0.3047 -0.5179 -0.2002
  119MOL   O31245388   2.037   7.261   5.132  0.1607 -0.9743 -0.1735
  119MOL   H31345389   2.050   7.457   4.978  0.7089  0.5410 -0.0939
  119MOL   H31445390   1.953   7.571   5.057  0.2017 -1.0463  0.7230
  119MOL   H31545391   1.917   7.393   5.239 -1.4049 -0.4382 -1.1632
  119MOL   H31645392   2.108   7.560   5.242 -0.9272 -0.1310 -0.9137
  119MOL   H31745393   2.216   7.457   5.162  1.5468  0.9361  1.6746
  119MOL   H31845394   2.086   7.392   5.434 -0.0629  2.3248 -0.3704
  119MOL   H31945395   2.169   7.274   5.337 -3.6757 -0.8328 -1.0690
  119MOL   H32045396   2.297   7.534   5.451  2.6389 -0.6281  1.3632
  119MOL   H32145397   2.371   7.410   5.355 -0.3210  1.3236 -0.2567
  119MOL   H32245398   2.351   7.247   5.524 -0.4891 -1.4649  2.5098
  119MOL   H32345399   2.400   7.403   5.592  0.1460  0.6726 -1.3417
  119MOL   H32445400   2.230   7.344   5.614 -0.6203 -0.0983 -1.3676
  119MOL   C32545401   1.937   7.162   5.160 -0.1544 -0.4150  0.5099
  119MOL   C32645402   1.971   7.019   5.105  0.4071 -0.5127 -0.0701
  119MOL   C32745403   1.852   6.919   5.090 -0.5163  0.0613 -0.3154
  119MOL   C32845404   1.883   6.783   5.019 -0.3832 -0.2701  0.5481
  119MOL   C32945405   1.965   6.683   5.099 -0.2096 -0.3820  0.7029
  119MOL   C33045406   1.884   6.596   5.193 -0.0994 -0.4347  0.6125
  119MOL   O33145407   2.072   6.954   5.179  0.2659  0.3060  0.3233
  119MOL   H33245408   1.841   7.200   5.123 -0.2921  0.0122  1.2982
  119MOL   H33345409   1.924   7.151   5.268  1.3645  1.9107  0.9590
  119MOL   H33445410   2.004   7.042   5.003  1.3201  0.8229  0.5024
  119MOL   H33545411   1.807   6.902   5.188  0.5123 -3.9602 -0.4469
  119MOL   H33645412   1.780   6.979   5.034 -2.2446  1.7926  3.5823
  119MOL   H33745413   1.791   6.739   4.983  0.2650 -0.6503 -0.6829
  119MOL   H33845414   1.937   6.800   4.926  2.1595 -0.1206  2.0016
  119MOL   H33945415   2.016   6.626   5.021 -0.2519 -1.6621  1.5857
  119MOL   H34045416   2.048   6.731   5.151  0.1241 -1.3352  1.0589
  119MOL   H34145417   1.812   6.522   5.158 -0.3357 -0.5086  1.2440
  119MOL   H34245418   1.953   6.537   5.253  2.0416  1.2171 -0.1605
  119MOL   H34345419   1.834   6.669   5.257  0.1002  1.0193 -0.8668
  119MOL   C34445420   2.198   6.969   5.117  0.2397 -0.0755  0.0045
  119MOL   C34545421   2.309   6.883   5.172  0.1449 -0.7000  0.3512
  119MOL   C34645422   2.342   6.892   5.321  0.0781 -0.0848  0.5612
  119MOL   C34745423   2.458   6.806   5.357 -0.4548 -0.2773 -0.1643
  119MOL   C34845424   2.558   6.867   5.450  0.4865  0.0954  0.1645
  119MOL   C34945425   2.517   6.860   5.596  0.8335  0.0221  0.4688
  119MOL   O35045426   2.291   6.751   5.131 -0.2178  0.4176  0.5762
  119MOL   H35145427   2.217   7.076   5.124 -1.5722  0.2914 -0.2392
  119MOL   H35245428   2.186   6.946   5.012 -0.8812  1.3481 -0.2035
  119MOL   H35345429   2.398   6.910   5.115  0.3551 -0.5288  0.7564
  119MOL   H35445430   2.249   6.864   5.371  0.8667  0.0792  2.1294
  119MOL   H35545431   2.362   6.998   5.335  0.1407 -0.0680  0.3603
  119MOL   H35645432   2.511   6.783   5.264  0.2506 -0.4762  0.2814
  119MOL   H35745433   2.409   6.718   5.397 -1.4633 -0.3822 -1.5647
  119MOL   H35845434   2.589   6.967   5.420 -0.8219  0.5875  0.4100
  119MOL   H35945435   2.645   6.802   5.454 -0.7364 -1.5811 -0.1108
  119MOL   H36045436   2.423   6.915   5.593 -1.1965 -3.3489 -0.2562
  119MOL   H36145437   2.588   6.904   5.666  1.1058  0.3530 -0.0119
  119MOL   H36245438   2.493   6.759   5.628 -3.1898  0.5238 -0.6186
  119MOL   C36345439   2.324   6.715   4.996  0.4660 -0.5600  0.9378
  119MOL   C36445440   2.322   6.568   4.976  0.2127 -0.1638 -0.2884
  119MOL   C36545441   2.316   6.512   4.827  0.0174 -0.1488 -0.4378
  119MOL   C36645442   2.174   6.532   4.771  0.0468 -0.3628  0.0355
  119MOL   C36745443   2.155   6.463   4.638  0.5774 -0.7148 -0.2046
  119MOL   C36845444   2.026   6.524   4.568  0.3462  0.2803  0.7663
  119MOL   O36945445   2.439   6.528   5.044 -0.1803 -0.4538 -0.4576
  119MOL   H37045446   2.418   6.760   4.961 -0.3421  0.9431  0.6558
  119MOL   H37145447   2.237   6.755   4.944  2.3111  1.8681 -0.4234
  119MOL   H37245448   2.235   6.527   5.027  0.6688  0.1363  0.7518
  119MOL   H37345449   2.397   6.555   4.768  0.0528 -0.1930 -0.4205
  119MOL   H37445450   2.340   6.407   4.839  0.3451  0.2841  3.1062
  119MOL   H37545451   2.101   6.502   4.846 -2.0103 -0.6867 -2.0257
  119MOL   H37645452   2.163   6.638   4.750 -2.7115 -0.4787  0.7150
  119MOL   H37745453   2.244   6.481   4.577 -0.2322  1.5020 -0.8127
  119MOL   H37845454   2.153   6.356   4.656 -1.4993 -1.0907 -2.3767
  119MOL   H37945455   2.028   6.633   4.558 -4.1472  0.4066  0.4944
  119MOL   H38045456   1.992   6.492   4.470 -1.5362  0.3556  1.3851
  119MOL   H38145457   1.941   6.498   4.630  0.3650  0.5361  0.9040
  119MOL   H38245458   2.435   6.533   5.139  0.5252  1.0291 -0.5062
  120MOL     C145459   0.424   4.811   6.692  0.0282 -0.2817 -0.2169
  120MOL     C245460   0.333   4.822   6.565 -0.0769  0.0668  0.2558
  120MOL     C345461   0.334   4.970   6.525 -0.0436 -0.5995 -0.9337
  120MOL     C445462   0.223   5.002   6.416  0.3888  0.0282 -0.7367
  120MOL     C545463   0.233   5.149   6.369  0.0399 -0.3842 -0.5539
  120MOL     C645464   0.213   5.162   6.216  0.2343  0.4031  0.3742
  120MOL     O745465   0.374   4.733   6.459 -0.1427  0.4688  0.0720
  120MOL     H845466   0.392   4.872   6.777 -1.9710 -1.1754 -0.3126
  120MOL     H945467   0.517   4.854   6.653 -0.5536 -0.9974 -2.4344
  120MOL    H1045468   0.238   4.798   6.612  0.2007 -0.9469  0.2943
  120MOL    H1145469   0.308   5.029   6.613  1.1663  0.0288 -0.9834
  120MOL    H1245470   0.428   5.011   6.489 -0.8619  1.9353 -0.2823
  120MOL    H1345471   0.249   4.939   6.331  1.2258 -0.3900 -0.1719
  120MOL    H1445472   0.120   4.979   6.443  1.1139 -0.5510  1.6069
  120MOL    H1545473   0.170   5.216   6.427  0.9587  0.8957 -0.9913
  120MOL    H1645474   0.337   5.180   6.383 -0.5985  0.9449  1.4982
  120MOL    H1745475   0.200   5.265   6.181  0.9174  0.4656  0.2942
  120MOL    H1845476   0.287   5.112   6.153 -0.4111  1.0189 -0.8905
  120MOL    H1945477   0.117   5.114   6.199  0.4818  0.5309 -1.5639
  120MOL    H2045478   0.429   4.709   6.729  0.3983  0.2892  1.3394
  120MOL    C2145479   0.377   4.594   6.487  0.2038  0.0023 -0.3759
  120MOL    C2245480   0.363   4.519   6.358  0.4401  0.0387  0.7467
  120MOL    C2345481   0.471   4.549   6.248 -0.1089 -0.0396 -0.6412
  120MOL    C2445482   0.481   4.690   6.194 -0.3621  0.2159 -0.1356
  120MOL    C2545483   0.587   4.705   6.082  0.5310 -0.0744 -0.2638
  120MOL    C2645484   0.617   4.846   6.026 -0.0473  0.2186 -0.6900
  120MOL    O2745485   0.345   4.380   6.374  0.4882  0.2907  0.5587
  120MOL    H2845486   0.473   4.563   6.529  0.8257 -0.4135 -2.0796
  120MOL    H2945487   0.299   4.571   6.560  2.0630 -1.3597  1.2521
  120MOL    H3045488   0.273   4.563   6.314  0.2192 -2.4192 -1.4634
  120MOL    H3145489   0.463   4.476   6.167  2.6074 -1.8261  0.6327
  120MOL    H3245490   0.566   4.528   6.295 -0.6422  2.0956  1.4421
  120MOL    H3345491   0.515   4.762   6.269  3.3630 -1.4549 -0.0798
  120MOL    H3445492   0.388   4.729   6.153 -0.3579 -1.3217 -1.6348
  120MOL    H3545493   0.682   4.664   6.115  0.1010 -0.8043  0.0813
  120MOL    H3645494   0.558   4.652   5.991 -1.1257 -1.0903  0.8452
  120MOL    H3745495   0.527   4.904   6.009 -1.1692 -0.9039  1.1610
  120MOL    H3845496   0.667   4.850   5.929  3.1826  2.9523  0.9840
  120MOL    H3945497   0.669   4.892   6.110  0.2228 -2.0528  0.4212
  120MOL    C4045498   0.212   4.332   6.394  0.1110 -0.6001  0.1819
  120MOL    C4145499   0.196   4.179   6.383  0.5235  0.1741 -0.2209
  120MOL    C4245500   0.045   4.144   6.395 -0.2070 -0.1818  0.3475
  120MOL    C4345501   0.001   4.007   6.334  0.2996 -1.0859  0.1534
  120MOL    C4445502   7.644   3.974   6.363 -0.0621 -0.8207 -0.1291
  120MOL    C4545503   7.598   3.822   6.358  0.1119  0.0235 -0.1020
  120MOL    O4645504   0.259   4.108   6.491 -0.3666  0.1214 -0.1065
  120MOL    H4745505   0.157   4.370   6.307 -0.2321 -1.9534 -0.2015
  120MOL    H4845506   0.169   4.360   6.490 -0.3205 -4.5047  1.1845
  120MOL    H4945507   0.232   4.148   6.285 -0.8375 -0.4091 -0.5480
  120MOL    H5045508   0.019   4.155   6.500 -0.2031  0.3800  0.2919
  120MOL    H5145509   7.774   4.227   6.354 -1.0327 -0.0327  1.7804
  120MOL    H5245510   0.070   3.944   6.391 -0.0657  0.7409  2.7169
  120MOL    H5345511   0.008   3.989   6.227 -1.5443 -1.0264  0.0172
  120MOL    H5445512   7.626   4.010   6.464 -1.8147 -0.7893 -0.4314
  120MOL    H5545513   7.570   4.029   6.304  1.0884  1.4207  0.4666
  120MOL    H5645514   7.666   3.758   6.414 -0.9224  0.5775  1.8313
  120MOL    H5745515   7.499   3.814   6.402  0.1741  1.6476  0.3657
  120MOL    H5845516   7.582   3.792   6.254  1.1839 -0.0175 -0.2623
  120MOL    C5945517   0.398   4.095   6.482  0.1676  0.6084  0.4185
  120MOL    C6045518   0.451   3.995   6.587  0.5383 -0.1425 -0.0074
  120MOL    C6145519   0.566   3.914   6.534  0.2205 -0.6079  0.4541
  120MOL    C6245520   0.577   3.776   6.600  0.0567  0.0499  0.1679
  120MOL    C6345521   0.659   3.667   6.525  0.2795 -0.3330  0.7249
  120MOL    C6445522   0.659   3.533   6.587  0.1392  0.0839 -0.3129
  120MOL    O6545523   0.499   4.074   6.698 -0.4492 -0.7228 -0.0865
  120MOL    H6645524   0.447   4.192   6.493 -0.2971  0.5252  3.6226
  120MOL    H6745525   0.410   4.061   6.379 -2.6637  1.5264 -0.2682
  120MOL    H6845526   0.375   3.922   6.614 -0.7084  1.0930 -0.1045
  120MOL    H6945527   0.660   3.970   6.542  0.0902 -0.2914 -0.2387
  120MOL    H7045528   0.537   3.896   6.431 -3.1527  1.1005  1.0099
  120MOL    H7145529   0.476   3.738   6.619 -0.8887  1.0484 -2.7215
  120MOL    H7245530   0.610   3.790   6.703  0.7110 -0.4571  0.0343
  120MOL    H7345531   0.763   3.699   6.517  1.0977 -3.0060  0.2921
  120MOL    H7445532   0.616   3.653   6.426  2.9962  0.7847 -0.6771
  120MOL    H7545533   0.705   3.459   6.522 -2.1822  0.6338 -2.6680
  120MOL    H7645534   0.718   3.542   6.678  0.2237 -0.7506 -0.2782
  120MOL    H7745535   0.558   3.496   6.606 -0.1879  1.0755 -0.1064
  120MOL    C7845536   0.405   4.089   6.810  0.7560  0.5126 -0.0554
  120MOL    C7945537   0.462   4.163   6.933 -0.5434  0.6911  0.0426
  120MOL    C8045538   0.359   4.168   7.044  0.3525  0.5027  0.0159
  120MOL    C8145539   0.346   4.032   7.116  0.8063 -0.4038 -0.7599
  120MOL    C8245540   0.246   4.030   7.234 -0.1329  0.2566 -0.1460
  120MOL    C8345541   0.240   3.905   7.323  0.2191  0.4611 -0.4075
  120MOL    O8445542   0.478   4.297   6.901  0.6480  0.4744 -0.3191
  120MOL    H8545543   0.366   3.990   6.829  1.5387 -0.4210 -2.9419
  120MOL    H8645544   0.320   4.145   6.770  0.6669 -0.4990 -1.3068
  120MOL    H8745545   0.553   4.122   6.976 -0.3933  0.0603 -0.8609
  120MOL    H8845546   0.382   4.243   7.120 -1.4679 -0.5645  1.6891
  120MOL    H8945547   0.266   4.212   7.007  1.2877  3.1366  0.7203
  120MOL    H9045548   0.440   3.998   7.160  1.2443  0.1230 -1.2798
  120MOL    H9145549   0.314   3.954   7.047 -0.6560 -0.4201 -0.0854
  120MOL    H9245550   0.251   4.121   7.295 -2.2718  0.3445 -0.0762
  120MOL    H9345551   0.145   4.038   7.193  0.5535 -0.0662 -1.9257
  120MOL    H9445552   0.337   3.891   7.369  2.1007  3.4959 -3.2371
  120MOL    H9545553   0.205   3.818   7.266 -0.9599  0.0449  0.9230
  120MOL    H9645554   0.169   3.930   7.402  0.6757  2.8877 -0.7486
  120MOL    C9745555   0.601   4.337   6.838 -0.2401  0.7655 -0.8848
  120MOL    C9845556   0.630   4.482   6.882 -0.0813  0.7670  0.3102
  120MOL    C9945557   0.653   4.484   7.033 -0.1197 -0.0087 -0.3241
  120MOL   C10045558   0.668   4.635   7.074  0.2757  0.0558 -0.2572
  120MOL   C10145559   0.744   4.655   7.205  0.9288 -0.6730 -0.0532
  120MOL   C10245560   0.751   4.796   7.240  0.4379 -0.7148 -0.3999
  120MOL   O10345561   0.754   4.521   6.816  0.0427 -0.3265  0.2080
  120MOL   H10445562   0.591   4.333   6.729  0.0379  2.6289 -0.9936
  120MOL   H10545563   0.685   4.276   6.872 -2.0898 -1.1903  0.3109
  120MOL   H10645564   0.538   4.538   6.863 -2.9881 -3.7119  0.3511
  120MOL   H10745565   0.747   4.433   7.056  0.2482  0.7731 -0.0664
  120MOL   H10845566   0.577   4.428   7.087  3.4303 -2.7030  2.1244
  120MOL   H10945567   0.571   4.685   7.077  0.2288 -0.1391  2.2583
  120MOL   H11045568   0.725   4.679   6.992  1.8169  0.4314  1.0009
  120MOL   H11145569   0.840   4.605   7.196  1.5909  0.7021 -0.7858
  120MOL   H11245570   0.684   4.615   7.287 -1.8148  2.4272 -0.4284
  120MOL   H11345571   0.657   4.848   7.224  0.7818 -0.7544 -2.6998
  120MOL   H11445572   0.797   4.805   7.339  1.8109  2.6753 -1.2725
  120MOL   H11545573   0.827   4.838   7.174  1.3134  0.1131  1.0929
  120MOL   C11645574   0.737   4.569   6.684 -0.5261 -0.3361  0.6319
  120MOL   C11745575   0.872   4.624   6.620 -0.3557 -0.1958  0.0596
  120MOL   C11845576   0.842   4.654   6.473  0.6037 -0.6538 -0.4231
  120MOL   C11945577   0.770   4.785   6.452  0.1606 -0.4767 -0.1175
  120MOL   C12045578   0.849   4.911   6.483 -0.0060 -0.2815  0.4296
  120MOL   C12145579   0.762   5.038   6.480 -0.5347 -0.2631  0.5733
  120MOL   O12245580   0.972   4.535   6.633  0.4085  0.2111 -0.4328
  120MOL   H12345581   0.697   4.489   6.621 -0.8277  2.0169 -2.2453
  120MOL   H12445582   0.666   4.651   6.692  0.7531  0.8689 -0.2232
  120MOL   H12545583   0.915   4.711   6.670 -0.5737  1.7394 -3.0140
  120MOL   H12645584   0.938   4.670   6.425  0.8676  1.1348  0.6916
  120MOL   H12745585   0.793   4.574   6.417 -3.2754  0.3832  1.3127
  120MOL   H12845586   0.676   4.784   6.508 -0.1295  1.9716 -0.4978
  120MOL   H12945587   0.734   4.792   6.349  1.3442 -0.2799 -0.5174
  120MOL   H13045588   0.896   4.897   6.581  0.3455 -0.2470  0.2670
  120MOL   H13145589   0.931   4.934   6.415  0.7208  1.4812  1.8545
  120MOL   H13245590   0.812   5.133   6.494 -1.8420  0.2403  1.9083
  120MOL   H13345591   0.718   5.037   6.380  0.8851 -0.6320 -0.0658
  120MOL   H13445592   0.678   5.029   6.549 -1.1759 -1.3122 -0.3112
  120MOL   C13545593   1.103   4.586   6.646 -0.9739 -0.3146  0.0762
  120MOL   C13645594   1.219   4.480   6.639 -0.6414  0.5245 -0.2052
  120MOL   C13745595   1.355   4.529   6.708 -0.2385 -0.3217 -0.4745
  120MOL   C13845596   1.474   4.434   6.719 -0.2299 -0.0240 -0.7827
  120MOL   C13945597   1.458   4.314   6.820  0.4941 -0.5685 -0.1909
  120MOL   C14045598   1.579   4.218   6.810 -0.6104 -0.3110 -0.1599
  120MOL   O14145599   1.241   4.465   6.501 -0.7613 -0.3945  0.5383
  120MOL   H14245600   1.119   4.671   6.580  1.0070 -0.0225  0.8879
  120MOL   H14345601   1.108   4.640   6.740 -0.4376  2.8814 -1.7234
  120MOL   H14445602   1.190   4.381   6.673  2.7960  0.2553  2.2140
  120MOL   H14545603   1.377   4.624   6.659 -1.3331 -0.0501 -0.4345
  120MOL   H14645604   1.330   4.557   6.811 -1.3224 -1.5470 -0.3888
  120MOL   H14745605   1.559   4.498   6.743 -0.8969  0.9479 -0.9947
  120MOL   H14845606   1.499   4.403   6.618 -1.6122 -1.7427 -0.6208
  120MOL   H14945607   1.369   4.252   6.807 -2.0519  1.9319  4.2923
  120MOL   H15045608   1.449   4.356   6.920  1.5672 -0.3408 -0.1888
  120MOL   H15145609   1.667   4.282   6.813  0.0332 -1.2543  1.4917
  120MOL   H15245610   1.571   4.134   6.878 -1.1732 -2.0830 -2.3269
  120MOL   H15345611   1.567   4.176   6.710 -1.3765 -2.0340  0.6341
  120MOL   C15445612   1.159   4.370   6.437  0.0706  0.1202 -0.0351
  120MOL   C15545613   1.230   4.336   6.297 -0.5888  0.8285  0.3529
  120MOL   C15645614   1.191   4.208   6.226  0.1733 -0.2082  0.3040
  120MOL   C15745615   1.277   4.177   6.103 -0.5552 -0.1861 -0.0174
  120MOL   C15845616   1.224   4.051   6.038 -0.1504 -0.4009  0.1729
  120MOL   C15945617   1.249   4.062   5.886  0.3301 -0.9077 -0.1600
  120MOL   O16045618   1.197   4.427   6.197  0.7269 -0.0639 -0.8148
  120MOL   H16145619   1.056   4.402   6.421  0.1447  0.3290 -0.0869
  120MOL   H16245620   1.160   4.280   6.499  2.5849  0.5622  0.6043
  120MOL   H16345621   1.338   4.340   6.312 -0.3242  1.6036 -1.6140
  120MOL   H16445622   1.088   4.227   6.198 -0.9207 -2.4835  2.5383
  120MOL   H16545623   1.187   4.122   6.294 -0.3197 -0.1467  0.3549
  120MOL   H16645624   1.380   4.166   6.136 -1.1640 -1.3505  1.5712
  120MOL   H16745625   1.267   4.258   6.032  1.1953  1.6436  1.7442
  120MOL   H16845626   1.266   3.961   6.082  0.1210 -0.6499 -0.5919
  120MOL   H16945627   1.116   4.041   6.051 -0.0794 -1.1103  0.2032
  120MOL   H17045628   1.242   3.964   5.840 -0.1104 -1.7163  1.5976
  120MOL   H17145629   1.346   4.108   5.863 -0.6021  1.6228  0.7783
  120MOL   H17245630   1.180   4.134   5.842  2.2768  0.0189 -1.8176
  120MOL   C17345631   1.263   4.548   6.210 -0.7019 -0.2794  0.3546
  120MOL   C17445632   1.235   4.637   6.084 -0.2948 -0.6426 -0.0334
  120MOL   C17545633   1.203   4.789   6.123 -0.4403  0.0277 -0.3326
  120MOL   C17645634   1.178   4.870   5.994 -0.4972 -0.4981  0.0698
  120MOL   C17745635   1.145   5.017   6.017 -0.3001 -0.0410  0.0567
  120MOL   C17845636   1.007   5.046   6.082 -0.1392  0.2235  0.4308
  120MOL   O17945637   1.350   4.643   5.999 -0.2337  0.1250  0.0064
  120MOL   H18045638   1.369   4.537   6.230 -1.0966 -1.7105  1.7508
  120MOL   H18145639   1.219   4.592   6.300  2.2696  1.3471  1.0825
  120MOL   H18245640   1.149   4.601   6.028  0.8400  1.0331 -2.9458
  120MOL   H18345641   1.118   4.777   6.190  0.4448 -3.7653  0.2303
  120MOL   H18445642   1.275   4.839   6.187 -0.4387 -0.3648 -0.0232
  120MOL   H18545643   1.265   4.874   5.928  1.0428  0.0792  2.0624
  120MOL   H18645644   1.102   4.819   5.935  0.4080 -2.8005  0.8652
  120MOL   H18745645   1.227   5.051   6.080  1.1577 -0.7325 -1.4213
  120MOL   H18845646   1.140   5.074   5.924  0.7020  1.1990  0.7523
  120MOL   H18945647   0.986   5.153   6.083  0.8418  0.4177  1.9153
  120MOL   H19045648   1.007   4.997   6.179  1.1153  0.0969  0.3665
  120MOL   H19145649   0.924   4.999   6.029 -0.4527 -1.2930  2.1788
  120MOL   C19245650   1.387   4.519   5.953  0.0889  0.6589  0.2195
  120MOL   C19345651   1.501   4.544   5.846  0.4720  0.2389 -0.3589
  120MOL   C19445652   1.530   4.412   5.765 -0.0688 -0.5841  0.3744
  120MOL   C19545653   1.580   4.297   5.852 -0.2153 -0.5636  0.3096
  120MOL   C19645654   1.633   4.171   5.780 -0.1253  0.4556 -0.1284
  120MOL   C19745655   1.745   4.186   5.673 -0.1405  0.5220 -0.4440
  120MOL   O19845656   1.632   4.577   5.893  0.1398  0.0038  0.2813
  120MOL   H19945657   1.414   4.454   6.037  0.7538 -0.6018 -0.9641
  120MOL   H20045658   1.305   4.463   5.908 -0.4063  1.8941 -0.4449
  120MOL   H20145659   1.470   4.614   5.768  0.7912 -0.5877 -1.2381
  120MOL   H20245660   1.436   4.378   5.720 -0.2459 -0.7206  0.8444
  120MOL   H20345661   1.604   4.434   5.688 -0.3082  1.1597  0.6199
  120MOL   H20445662   1.501   4.269   5.922  0.8414 -2.7078  0.7048
  120MOL   H20545663   1.657   4.329   5.922 -1.0156 -0.6459  1.2321
  120MOL   H20645664   1.679   4.113   5.860  1.6164  0.8364 -0.8380
  120MOL   H20745665   1.546   4.118   5.742  0.4863 -2.0696  1.8552
  120MOL   H20845666   1.712   4.238   5.583  0.2597  2.4646  0.5021
  120MOL   H20945667   1.829   4.249   5.704 -0.6984  0.2213  1.7360
  120MOL   H21045668   1.779   4.085   5.650 -1.8187 -0.6160  1.8936
  120MOL   C21145669   1.654   4.705   5.948  0.2860  0.1481 -0.1396
  120MOL   C21245670   1.708   4.798   5.836 -0.8607 -0.1652 -0.4760
  120MOL   C21345671   1.591   4.840   5.746  0.3502  0.2745  0.0882
  120MOL   C21445672   1.634   4.952   5.659  0.3636 -0.8758 -0.1494
  120MOL   C21545673   1.522   4.980   5.556  0.5099 -0.0432 -0.1197
  120MOL   C21645674   1.580   5.080   5.450  0.5392 -0.3829 -0.2043
  120MOL   O21745675   1.815   4.738   5.756  0.0302 -1.0295 -0.5066
  120MOL   H21845676   1.720   4.699   6.035 -0.2947 -1.7199  0.1820
  120MOL   H21945677   1.564   4.750   5.990 -0.1964  2.4100 -3.3953
  120MOL   H22045678   1.739   4.889   5.887  1.0764 -0.5151 -0.9829
  120MOL   H22145679   1.575   4.752   5.684 -0.0529  0.2181  0.2654
  120MOL   H22245680   1.506   4.875   5.805 -1.0457  1.2851 -2.4601
  120MOL   H22345681   1.644   5.038   5.726 -0.0597 -1.4577  0.6661
  120MOL   H22445682   1.736   4.935   5.626  1.4530  1.5383  1.8073
  120MOL   H22545683   1.481   4.887   5.518 -2.3400 -0.0979  2.8499
  120MOL   H22645684   1.435   5.026   5.603  0.6982 -0.5470  0.7367
  120MOL   H22745685   1.499   5.119   5.388  1.5511 -0.2182 -1.4376
  120MOL   H22845686   1.641   5.019   5.384  0.0486 -0.3627 -0.6880
  120MOL   H22945687   1.640   5.159   5.495 -3.4472  2.5327  0.2329
  120MOL   C23045688   1.916   4.665   5.822  0.0255 -1.2582  0.3147
  120MOL   C23145689   2.063   4.703   5.783 -0.2075 -0.1265  0.0088
  120MOL   C23245690   2.149   4.580   5.758 -0.0595  0.1210  0.0225
  120MOL   C23345691   2.270   4.608   5.662 -0.2272 -0.4710 -0.5851
  120MOL   C23445692   2.343   4.477   5.645 -0.5667  0.1367 -0.6312
  120MOL   C23545693   2.461   4.486   5.553 -0.3401 -0.0246 -0.1522
  120MOL   O23645694   2.127   4.769   5.892  0.1056 -0.1942 -0.2487
  120MOL   H23745695   1.911   4.670   5.931  0.0058 -1.8137  0.3434
  120MOL   H23845696   1.895   4.567   5.778 -1.0985 -0.5879 -0.6900
  120MOL   H23945697   2.059   4.769   5.696 -1.7963  0.7342  0.7096
  120MOL   H24045698   2.091   4.504   5.706 -0.9186  2.7547 -3.0173
  120MOL   H24145699   2.192   4.542   5.851 -0.3382  0.2634  0.2063
  120MOL   H24245700   2.335   4.682   5.709  0.3201 -0.3509 -1.5314
  120MOL   H24345701   2.223   4.648   5.572 -2.0107 -1.2463 -0.0223
  120MOL   H24445702   2.380   4.451   5.745 -0.3652  0.0480 -0.7291
  120MOL   H24545703   2.278   4.393   5.621  1.1754 -1.4203 -0.0653
  120MOL   H24645704   2.527   4.400   5.562  0.2662  0.6247  1.8600
  120MOL   H24745705   2.524   4.569   5.587 -1.5711  0.7286  0.3648
  120MOL   H24845706   2.453   4.513   5.448  0.0706  1.6834  0.2274
  120MOL   C24945707   2.116   4.910   5.886  0.5139  0.1752  0.0394
  120MOL   C25045708   2.145   4.972   6.031 -0.8958 -0.6762  1.1354
  120MOL   C25145709   2.107   5.125   6.034  0.3127  0.3190 -0.3793
  120MOL   C25245710   2.093   5.188   6.169 -0.0487  0.4179  0.0949
  120MOL   C25345711   2.065   5.333   6.184  0.0866 -0.6924  0.2873
  120MOL   C25445712   2.194   5.412   6.200 -0.0693  0.2276  0.2098
  120MOL   O25545713   2.289   4.973   6.056  0.5106 -0.0443 -0.0280
  120MOL   H25645714   2.186   4.951   5.813  2.1293 -1.4171  0.6893
  120MOL   H25745715   2.012   4.926   5.856  0.1900  0.1150  1.1173
  120MOL   H25845716   2.087   4.911   6.100  0.8364  0.6301  3.8058
  120MOL   H25945717   2.196   5.172   5.993  0.3055  0.0624 -0.6952
  120MOL   H26045718   2.016   5.146   5.977 -0.3367  2.3053  1.3238
  120MOL   H26145719   2.017   5.140   6.231 -0.4250  1.6307  0.5867
  120MOL   H26245720   2.184   5.170   6.226  1.5638  4.1762 -1.1490
  120MOL   H26345721   2.001   5.363   6.101  1.0224  0.0118 -0.1801
  120MOL   H26445722   1.994   5.357   6.263  0.6576  1.4043  0.1908
  120MOL   H26545723   2.183   5.513   6.160 -0.4810 -0.4482 -1.4465
  120MOL   H26645724   2.278   5.361   6.152 -0.1569 -0.5919  0.9302
  120MOL   H26745725   2.208   5.434   6.306  0.9780  1.9879 -0.2623
  120MOL   C26845726   2.343   4.843   6.056 -0.4709  0.2540 -0.2885
  120MOL   C26945727   2.476   4.847   6.133  0.2252 -0.2559  0.4727
  120MOL   C27045728   2.538   4.707   6.106  0.7157 -0.0506 -0.3041
  120MOL   C27145729   2.669   4.694   6.184  0.8671 -0.0389  0.0328
  120MOL   C27245730   2.675   4.562   6.262 -0.1800  0.0369  0.5979
  120MOL   C27345731   2.810   4.548   6.345 -0.3146 -0.3957  0.5035
  120MOL   O27445732   2.452   4.860   6.270  0.2797 -0.1319 -0.3126
  120MOL   H27545733   2.359   4.818   5.951 -1.2419 -1.9904  0.0959
  120MOL   H27645734   2.269   4.775   6.099 -0.4028  1.2647  1.4654
  120MOL   H27745735   2.544   4.923   6.095  0.3530 -1.0513 -0.9361
  120MOL   H27845736   2.467   4.635   6.145 -0.4805  1.7955  1.0066
  120MOL   H27945737   2.556   4.689   6.000 -1.5382 -0.3444 -0.6641
  120MOL   H28045738   2.752   4.700   6.114  0.4613  0.2180 -0.4307
  120MOL   H28145739   2.676   4.772   6.260  1.3410  0.2932 -0.3495
  120MOL   H28245740   2.589   4.560   6.329 -1.4748 -1.1597 -1.0495
  120MOL   H28345741   2.667   4.478   6.193 -1.5125  1.5117 -1.0969
  120MOL   H28445742   2.902   4.541   6.286 -0.4015  1.4974  0.1095
  120MOL   H28545743   2.845   4.634   6.402  0.2332  0.2641 -0.8118
  120MOL   H28645744   2.813   4.460   6.409 -0.2346 -0.7479  0.0176
  120MOL   C28745745   2.392   4.984   6.307  0.0472 -0.1914  0.4903
  120MOL   C28845746   2.419   5.020   6.453 -0.1196 -0.2471 -0.5184
  120MOL   C28945747   2.334   5.140   6.504 -0.2424  0.5827 -0.1152
  120MOL   C29045748   2.187   5.107   6.548  0.1551  0.2593  0.3154
  120MOL   C29145749   2.107   5.237   6.580  0.2903 -0.0209 -0.0695
  120MOL   C29245750   1.972   5.218   6.656  0.2044  0.2164 -0.3790
  120MOL   O29345751   2.556   5.049   6.474 -0.6029 -0.1238  0.0055
  120MOL   H29445752   2.283   4.984   6.293  0.1438  0.6421 -0.2863
  120MOL   H29545753   2.432   5.067   6.250  2.1763 -1.8780 -0.5310
  120MOL   H29645754   2.384   4.935   6.512  0.3609 -0.1767 -0.1213
  120MOL   H29745755   2.390   5.183   6.586 -1.1641  2.4341 -0.4378
  120MOL   H29845756   2.335   5.224   6.435  1.2785  0.2369 -0.5390
  120MOL   H29945757   2.142   5.051   6.466  0.8167  1.6208 -1.0013
  120MOL   H30045758   2.170   5.037   6.630 -1.9889  2.1792  1.5749
  120MOL   H30145759   2.079   5.283   6.485  1.5701  0.5107 -0.2018
  120MOL   H30245760   2.166   5.301   6.646  0.2478  0.2396 -0.2855
  120MOL   H30345761   1.903   5.168   6.589  0.2449  0.7015 -0.7829
  120MOL   H30445762   1.982   5.151   6.742  0.2109  0.9671  0.2178
  120MOL   H30545763   1.937   5.320   6.672  0.6307  0.6149 -1.9483
  120MOL   C30645764   2.634   4.931   6.499 -0.6260  0.0985  0.5784
  120MOL   C30745765   2.649   4.900   6.645 -0.4353 -0.1822  0.2832
  120MOL   C30845766   2.756   4.798   6.679 -0.4169 -0.3415  0.1711
  120MOL   C30945767   2.898   4.850   6.642  0.5465  0.2874 -0.1758
  120MOL   C31045768   2.999   4.742   6.664  0.8945  0.2724 -0.8338
  120MOL   C31145769   3.141   4.792   6.631 -0.0051  0.0172 -0.2256
  120MOL   O31245770   2.519   4.856   6.682 -0.3682 -0.3530 -0.5764
  120MOL   H31345771   2.596   4.840   6.453  1.4221 -2.0750  3.0213
  120MOL   H31445772   2.730   4.944   6.449  0.0350  0.7375  1.9682
  120MOL   H31545773   2.666   4.995   6.696  2.5472 -0.8990  0.7392
  120MOL   H31645774   2.734   4.707   6.622  2.2175  0.0176 -1.4742
  120MOL   H31745775   2.757   4.791   6.787 -0.0372  2.4089  0.3789
  120MOL   H31845776   2.911   4.889   6.541  0.4132  0.4364 -0.1359
  120MOL   H31945777   2.920   4.924   6.720 -1.7761  1.2980 -0.4574
  120MOL   H32045778   2.977   4.649   6.612  2.2579 -0.5679  0.0465
  120MOL   H32145779   2.991   4.712   6.768  2.7941 -0.2455 -0.8058
  120MOL   H32245780   3.215   4.712   6.629  0.0817  0.0690  0.6323
  120MOL   H32345781   3.140   4.824   6.527  0.6548  1.7812  0.2874
  120MOL   H32445782   3.172   4.871   6.699  0.7846  1.4326 -2.1737
  120MOL   C32545783   2.501   4.843   6.819  0.1447  0.5885 -0.0467
  120MOL   C32645784   2.349   4.830   6.854 -0.0087 -0.5442 -0.3942
  120MOL   C32745785   2.323   4.854   7.003  0.4440  0.8772 -0.0317
  120MOL   C32845786   2.179   4.839   7.050 -0.0769  0.1296 -0.1700
  120MOL   C32945787   2.168   4.866   7.202  0.5243  0.3606 -0.3151
  120MOL   C33045788   2.026   4.829   7.250  0.2425  0.2197 -0.5131
  120MOL   O33145789   2.307   4.694   6.849 -0.4312 -0.0022  0.5109
  120MOL   H33245790   2.529   4.938   6.862  1.9986  1.3681 -2.8502
  120MOL   H33345791   2.551   4.761   6.870 -2.4568 -0.4833  0.8714
  120MOL   H33445792   2.278   4.896   6.804 -1.3175 -1.5585  0.0933
  120MOL   H33545793   2.374   4.781   7.065 -0.6620 -0.6450 -0.8835
  120MOL   H33645794   2.372   4.948   7.027  3.1460 -0.4972  0.0376
  120MOL   H33745795   2.116   4.907   6.993 -0.4899  1.4701  1.8204
  120MOL   H33845796   2.161   4.733   7.033 -1.1094  0.2560  0.0935
  120MOL   H33945797   2.243   4.816   7.263 -2.1278 -2.8854  0.4579
  120MOL   H34045798   2.170   4.972   7.225  1.7012  0.3548 -0.3801
  120MOL   H34145799   1.955   4.883   7.188  0.8727  1.1661 -0.4177
  120MOL   H34245800   1.993   4.725   7.252 -2.7258  1.1215 -0.5830
  120MOL   H34345801   2.015   4.876   7.347  1.9637  0.4207 -0.4014
  120MOL   C34445802   2.314   4.618   6.724  0.5312  0.0698  0.3204
  120MOL   C34545803   2.209   4.665   6.627  0.5367  0.2227  0.5147
  120MOL   C34645804   2.221   4.580   6.496 -0.2925  0.5626 -0.2384
  120MOL   C34745805   2.126   4.631   6.383  0.2641 -0.1339  0.0246
  120MOL   C34845806   2.142   4.542   6.259  0.3304 -0.5537  0.2963
  120MOL   C34945807   2.019   4.581   6.167  0.0811 -0.1910  0.3600
  120MOL   O35045808   2.084   4.642   6.687  0.7892  0.4837  0.1461
  120MOL   H35145809   2.308   4.510   6.738  0.4206  0.1561  0.9257
  120MOL   H35245810   2.408   4.635   6.670 -1.6078  3.5969 -2.4858
  120MOL   H35345811   2.233   4.763   6.585  1.9174 -1.3716 -2.5766
  120MOL   H35445812   2.193   4.476   6.515  0.5040  0.3824 -0.0673
  120MOL   H35545813   2.316   4.580   6.443 -0.5254  1.4990 -0.6652
  120MOL   H35645814   2.142   4.736   6.361 -1.1086  0.1820  0.5265
  120MOL   H35745815   2.022   4.645   6.412  0.4031 -0.4235  0.6652
  120MOL   H35845816   2.147   4.435   6.282 -0.4806 -0.3628  1.4307
  120MOL   H35945817   2.240   4.566   6.220 -0.4677  2.7151  0.1292
  120MOL   H36045818   1.926   4.558   6.218 -0.0490 -0.3250  0.0662
  120MOL   H36145819   2.023   4.521   6.076 -1.9380 -0.3476  0.3514
  120MOL   H36245820   2.027   4.683   6.127  2.3193 -0.7743 -0.7852
  120MOL   C36345821   2.006   4.760   6.706 -0.1546  0.5467 -0.3397
  120MOL   C36445822   1.866   4.731   6.761 -0.1714 -0.5185  0.1630
  120MOL   C36545823   1.783   4.852   6.775  0.4471  0.3038 -0.0248
  120MOL   C36645824   1.830   4.950   6.880 -0.1525  0.4253 -0.1999
  120MOL   C36745825   1.738   5.078   6.891 -0.0637  0.7197 -0.0812
  120MOL   C36845826   1.770   5.170   7.000  0.2347  0.9964 -0.0937
  120MOL   O36945827   1.811   4.646   6.658 -0.6579 -0.5370 -0.4603
  120MOL   H37045828   1.991   4.812   6.611  1.1453 -3.2641 -2.7841
  120MOL   H37145829   2.054   4.822   6.781  0.4824 -0.0265 -0.2716
  120MOL   H37245830   1.864   4.666   6.848  1.2654 -2.1445 -0.9743
  120MOL   H37345831   1.758   4.892   6.677 -0.7790 -0.9762 -0.2398
  120MOL   H37445832   1.685   4.821   6.812 -1.2101  3.1756 -1.8423
  120MOL   H37545833   1.830   4.895   6.974  0.9045  2.0794  0.7949
  120MOL   H37645834   1.936   4.969   6.863  0.4874 -3.5394 -1.0163
  120MOL   H37745835   1.732   5.130   6.796  1.5445 -0.4575 -0.8636
  120MOL   H37845836   1.634   5.047   6.898  0.0555 -0.0202 -1.4817
  120MOL   H37945837   1.873   5.201   6.980  0.9273 -1.4387 -0.3816
  120MOL   H38045838   1.699   5.253   6.996 -0.2863  0.5375 -0.3998
  120MOL   H38145839   1.756   5.116   7.093 -1.8867 -1.2993 -1.6902
  120MOL   H38245840   1.875   4.586   6.622 -1.3697 -2.5763  1.6216
  121MOL     C145841   5.559   4.996   2.127  0.2909  0.2933 -0.3065
  121MOL     C245842   5.469   5.109   2.181  0.1177 -0.4385  0.1508
  121MOL     C345843   5.319   5.068   2.182  0.5905 -0.3560  0.2765
  121MOL     C445844   5.227   5.186   2.205 -0.0388 -0.6365  0.5369
  121MOL     C545845   5.080   5.141   2.227  0.5129 -0.0456 -0.4937
  121MOL     C645846   4.995   5.258   2.272 -1.1130  0.4750 -0.1792
  121MOL     O745847   5.491   5.138   2.320  0.3452 -0.2141 -0.4629
  121MOL     H845848   5.511   4.899   2.141  1.5218  0.1205  2.9141
  121MOL     H945849   5.664   4.993   2.154  0.1396  0.4774  0.2926
  121MOL    H1045850   5.480   5.195   2.116  0.6633 -1.0062 -0.5188
  121MOL    H1145851   5.296   5.028   2.084  0.1833  0.5408  0.0043
  121MOL    H1245852   5.302   4.986   2.253 -0.4488  0.1002  0.5486
  121MOL    H1345853   5.264   5.243   2.290 -2.1787  3.2542 -0.9810
  121MOL    H1445854   5.227   5.255   2.120 -0.8383 -2.5264 -1.0147
  121MOL    H1545855   5.039   5.090   2.140 -3.5079  1.3544  0.4614
  121MOL    H1645856   5.070   5.075   2.313 -0.0366  1.0853  0.3262
  121MOL    H1745857   4.975   5.327   2.190 -0.9779  0.6825 -0.0368
  121MOL    H1845858   4.905   5.209   2.308 -0.8244 -0.1506 -0.2988
  121MOL    H1945859   5.054   5.301   2.353  0.4680 -0.8548 -0.5792
  121MOL    H2045860   5.559   5.012   2.019  1.3663  0.7850 -0.2344
  121MOL    C2145861   5.586   5.230   2.360 -0.2083 -0.0698  0.3202
  121MOL    C2245862   5.614   5.218   2.510 -1.5245  0.6618 -0.2249
  121MOL    C2345863   5.759   5.256   2.540  0.1529  0.1319 -0.5820
  121MOL    C2445864   5.803   5.399   2.501  0.1348 -0.1351  0.7551
  121MOL    C2545865   5.943   5.438   2.544  0.3272 -0.5371 -0.2238
  121MOL    C2645866   6.050   5.355   2.473  0.1564 -0.1833 -0.1394
  121MOL    O2745867   5.528   5.300   2.586 -0.3908  0.1325  0.1271
  121MOL    H2845868   5.672   5.181   2.314  0.8793  0.8719  1.3440
  121MOL    H2945869   5.574   5.335   2.332  2.1328 -0.0236 -0.6102
  121MOL    H3045870   5.598   5.115   2.539 -2.1953  1.5372  2.6739
  121MOL    H3145871   5.828   5.184   2.497  0.3240 -1.5042  2.2638
  121MOL    H3245872   5.787   5.244   2.645 -2.1266  3.3061  0.4848
  121MOL    H3345873   5.728   5.472   2.532 -0.9308 -1.2419  0.8272
  121MOL    H3445874   5.800   5.413   2.392  1.0935  0.5837  0.8186
  121MOL    H3545875   5.961   5.545   2.535  0.3879 -0.6188 -1.0879
  121MOL    H3645876   5.951   5.411   2.650 -0.8834 -0.4580 -0.0963
  121MOL    H3745877   6.014   5.253   2.458  0.9820 -0.7870  1.7774
  121MOL    H3845878   6.140   5.325   2.527 -0.8950 -0.3771  1.5332
  121MOL    H3945879   6.072   5.400   2.376 -2.0590  1.5401  0.1240
  121MOL    C4045880   5.403   5.238   2.613 -0.0710 -0.4711 -0.0467
  121MOL    C4145881   5.318   5.340   2.696 -0.5631 -0.3733  0.5821
  121MOL    C4245882   5.183   5.279   2.728 -0.1975  0.4062 -0.0522
  121MOL    C4345883   5.089   5.352   2.829  0.3579  0.5974 -0.8166
  121MOL    C4445884   4.947   5.298   2.850  0.1246 -0.5984 -0.1152
  121MOL    C4545885   4.847   5.384   2.929 -0.0998  0.2137  0.2094
  121MOL    O4645886   5.285   5.453   2.613 -0.5395 -0.2972  0.4652
  121MOL    H4745887   5.410   5.144   2.667 -1.1408  0.1787  1.2673
  121MOL    H4845888   5.353   5.226   2.517  0.1828 -0.8266 -0.1350
  121MOL    H4945889   5.370   5.371   2.786  2.1660 -0.5891 -0.8567
  121MOL    H5045890   5.130   5.259   2.635  1.0760 -0.6092 -0.5664
  121MOL    H5145891   5.207   5.178   2.761 -1.0727  0.1544 -0.1600
  121MOL    H5245892   5.087   5.460   2.815  1.7064  0.5207 -1.7026
  121MOL    H5345893   5.138   5.346   2.926  1.2931 -1.5523 -1.3829
  121MOL    H5445894   4.905   5.290   2.750  0.8567  0.2677 -0.5002
  121MOL    H5545895   4.946   5.194   2.884 -2.4405 -0.0118  1.7299
  121MOL    H5645896   4.874   5.379   3.034  0.2593 -1.3488  0.0628
  121MOL    H5745897   4.831   5.484   2.889 -1.1488  0.4000  1.0767
  121MOL    H5845898   4.756   5.323   2.923 -0.2754  0.5114 -0.1205
  121MOL    C5945899   5.362   5.572   2.631  0.6193  0.2930 -0.8541
  121MOL    C6045900   5.278   5.691   2.569 -0.0578  0.8355  0.5086
  121MOL    C6145901   5.340   5.822   2.633 -0.2812 -0.2050  0.2988
  121MOL    C6245902   5.270   5.943   2.576  0.2429  0.0391 -0.3188
  121MOL    C6345903   5.289   6.065   2.672  0.0333 -0.6757 -0.5510
  121MOL    C6445904   5.200   6.186   2.659  0.0018 -0.0458  0.7232
  121MOL    O6545905   5.302   5.699   2.428  0.3163 -0.5351  0.3458
  121MOL    H6645906   5.460   5.559   2.586  1.1360 -1.3812  0.6967
  121MOL    H6745907   5.387   5.580   2.736  0.2758  0.9105 -0.8152
  121MOL    H6845908   5.172   5.683   2.590 -0.0076 -0.6999  0.2204
  121MOL    H6945909   5.448   5.825   2.619 -0.2901 -0.8367  0.1076
  121MOL    H7045910   5.325   5.822   2.741 -1.4899  0.1762  0.1330
  121MOL    H7145911   5.162   5.925   2.567  0.4071 -1.8781  1.2749
  121MOL    H7245912   5.304   5.969   2.475 -1.0342  3.2031 -0.0006
  121MOL    H7345913   5.388   6.111   2.662 -0.5301  0.9023  0.8679
  121MOL    H7445914   5.278   6.020   2.770  2.0348 -0.5083 -0.2264
  121MOL    H7545915   5.096   6.159   2.674  0.5590 -2.6711  0.1084
  121MOL    H7645916   5.224   6.268   2.728 -0.0040  0.7794 -0.2462
  121MOL    H7745917   5.216   6.216   2.555 -1.9761 -0.8471  0.1705
  121MOL    C7845918   5.267   5.578   2.356 -0.2074  0.0693  0.1094
  121MOL    C7945919   5.215   5.607   2.211 -0.2213 -0.3075 -0.6079
  121MOL    C8045920   5.323   5.662   2.122  0.8737 -0.6990 -0.2326
  121MOL    C8145921   5.287   5.653   1.973  0.2303 -0.8548  0.1927
  121MOL    C8245922   5.416   5.665   1.889  0.1472 -0.1161  0.4808
  121MOL    C8345923   5.484   5.537   1.859 -0.1982  0.2445 -0.6166
  121MOL    O8445924   5.106   5.697   2.219  0.5533  0.0714 -0.2871
  121MOL    H8545925   5.183   5.529   2.405 -2.0696  1.8057 -1.2902
  121MOL    H8645926   5.343   5.500   2.353 -1.1140 -0.8168 -0.2191
  121MOL    H8745927   5.181   5.510   2.173 -0.0865 -1.4297  2.0264
  121MOL    H8845928   5.356   5.759   2.159  2.1447 -0.3876 -2.1083
  121MOL    H8945929   5.407   5.593   2.129  0.0257 -1.6490  0.6559
  121MOL    H9045930   5.224   5.737   1.944  1.0040 -0.5041 -0.4939
  121MOL    H9145931   5.233   5.562   1.946 -3.3553  1.1698  0.2638
  121MOL    H9245932   5.389   5.718   1.798 -1.0068 -1.6534 -0.1151
  121MOL    H9345933   5.480   5.734   1.944 -0.0781  1.7696 -1.5637
  121MOL    H9445934   5.523   5.494   1.951 -1.9268  1.5397  0.7827
  121MOL    H9545935   5.570   5.570   1.802  0.6184  1.4068  1.2373
  121MOL    H9645936   5.422   5.471   1.799  0.6242 -1.1025 -0.0026
  121MOL    C9745937   4.980   5.629   2.189  0.0221 -0.8357 -0.6725
  121MOL    C9845938   4.874   5.728   2.136 -0.2948 -0.4543  0.1670
  121MOL    C9945939   4.796   5.673   2.020  0.2219 -0.2192  1.2871
  121MOL   C10045940   4.675   5.760   1.977  0.1293 -0.2050 -0.4283
  121MOL   C10145941   4.608   5.704   1.850 -0.7526 -0.0687 -0.6538
  121MOL   C10245942   4.516   5.585   1.881 -0.3081 -0.0186 -0.1468
  121MOL   O10345943   4.794   5.772   2.241 -0.3238 -0.1094  0.1360
  121MOL   H10445944   4.948   5.565   2.271 -2.0738  1.0568  0.0231
  121MOL   H10545945   4.995   5.547   2.118  0.9746  0.0006 -1.4406
  121MOL   H10645946   4.927   5.817   2.101 -0.2510  0.3324  2.1616
  121MOL   H10745947   4.750   5.578   2.046 -0.3741 -0.8403 -1.8091
  121MOL   H10845948   4.859   5.654   1.933 -2.4711 -0.4492 -0.6558
  121MOL   H10945949   4.712   5.858   1.950  0.7890 -1.0718 -2.7493
  121MOL   H11045950   4.608   5.759   2.063  0.7256 -1.4136  0.0480
  121MOL   H11145951   4.667   5.673   1.763 -0.8187  0.5576 -0.9247
  121MOL   H11245952   4.546   5.787   1.818 -0.1869  0.1235 -1.2857
  121MOL   H11345953   4.430   5.626   1.934  0.0899  1.2449 -0.4630
  121MOL   H11445954   4.480   5.532   1.793  2.6868 -0.5690 -1.1025
  121MOL   H11545955   4.566   5.506   1.937 -1.8171  0.5152  2.0025
  121MOL   C11645956   4.869   5.850   2.340  0.2873 -0.3963 -0.1061
  121MOL   C11745957   4.773   5.895   2.456 -0.4647 -0.1221  0.1616
  121MOL   C11845958   4.680   6.013   2.413  0.0327  0.9203 -0.3578
  121MOL   C11945959   4.581   6.046   2.520 -0.2639 -0.5482 -0.1686
  121MOL   C12045960   4.481   6.145   2.468 -0.1055 -0.3058  0.1305
  121MOL   C12145961   4.372   6.188   2.574  0.2025  0.2029 -0.1411
  121MOL   O12245962   4.853   5.930   2.564 -0.5056 -0.0254 -0.2465
  121MOL   H12345963   4.956   5.802   2.385 -1.1414 -0.2466  2.9068
  121MOL   H12445964   4.912   5.931   2.282 -0.4527  0.1754  0.1454
  121MOL   H12545965   4.714   5.807   2.484 -1.6170  0.6269  0.1138
  121MOL   H12645966   4.735   6.103   2.388  1.0703  0.7403  1.2404
  121MOL   H12745967   4.628   5.972   2.326 -1.0161 -0.7485  1.0129
  121MOL   H12845968   4.619   6.086   2.614  1.1296 -0.2789 -0.8388
  121MOL   H12945969   4.522   5.955   2.529  1.5117 -1.4800  2.8413
  121MOL   H13045970   4.537   6.229   2.427  0.6904 -0.6994  0.4020
  121MOL   H13145971   4.432   6.097   2.384 -0.1736 -2.1440  1.2040
  121MOL   H13245972   4.404   6.230   2.669  0.1204 -0.8826  0.3730
  121MOL   H13345973   4.324   6.274   2.526 -1.5919 -1.0539 -0.6628
  121MOL   H13445974   4.301   6.107   2.591  2.3082 -1.4427  0.9990
  121MOL   C13545975   4.876   5.827   2.652 -0.7050  0.2479 -0.4173
  121MOL   C13645976   4.952   5.884   2.781 -0.2792 -0.5065  0.7068
  121MOL   C13745977   5.004   5.764   2.862  0.0188 -0.2557  0.4192
  121MOL   C13845978   5.115   5.806   2.958 -0.2615 -0.3661 -0.1537
  121MOL   C13945979   5.183   5.676   3.016  1.2669 -1.0826 -0.5290
  121MOL   C14045980   5.277   5.705   3.130  0.0844  0.0454  0.3146
  121MOL   O14145981   4.872   5.956   2.868 -0.0297 -0.1304 -0.3942
  121MOL   H14245982   4.781   5.784   2.684  0.1272 -1.3853 -0.0995
  121MOL   H14345983   4.937   5.740   2.626  0.6753  0.8171  0.8750
  121MOL   H14445984   5.039   5.938   2.742 -1.3528 -0.0101 -1.0885
  121MOL   H14545985   4.925   5.720   2.923  1.5195 -1.4853  1.5361
  121MOL   H14645986   5.036   5.678   2.802  1.0047 -1.4865  2.6241
  121MOL   H14745987   5.079   5.862   3.045 -1.2343  2.0752 -2.0571
  121MOL   H14845988   5.195   5.869   2.918 -2.0333  1.6908 -0.5891
  121MOL   H14945989   5.239   5.634   2.932  1.3733 -0.1151 -0.9513
  121MOL   H15045990   5.101   5.610   3.044  1.1428 -1.4605 -1.7474
  121MOL   H15145991   5.221   5.722   3.222 -3.1448 -2.7305 -1.0327
  121MOL   H15245992   5.336   5.618   3.160 -0.9895 -0.8560 -0.1289
  121MOL   H15345993   5.346   5.786   3.109 -2.4232  1.9133 -0.9727
  121MOL   C15445994   4.838   6.087   2.830  0.0254  0.3233 -0.4218
  121MOL   C15545995   4.903   6.200   2.922  0.7785  0.0754  0.3943
  121MOL   C15645996   4.878   6.330   2.866  0.1154  0.3424 -0.3791
  121MOL   C15745997   4.936   6.446   2.938 -0.7042 -0.0331  0.0455
  121MOL   C15845998   4.898   6.572   2.866  0.1578 -0.0209  0.2295
  121MOL   C15945999   4.930   6.699   2.946 -0.9853  0.0869  0.5072
  121MOL   O16046000   4.837   6.194   3.049  0.2629 -0.6376  0.0734
  121MOL   H16146001   4.729   6.089   2.838  0.1016  0.5706  0.5894
  121MOL   H16246002   4.851   6.112   2.725 -1.0811 -1.2912 -0.9731
  121MOL   H16346003   5.010   6.178   2.920  0.9185  0.8317 -1.7611
  121MOL   H16446004   4.771   6.346   2.854  0.0219  1.7012  1.9309
  121MOL   H16546005   4.916   6.327   2.763  0.4357  0.6705 -0.2744
  121MOL   H16646006   5.045   6.442   2.943 -0.7118 -0.5704 -0.1550
  121MOL   H16746007   4.891   6.441   3.037 -3.0419  1.3282 -0.9028
  121MOL   H16846008   4.946   6.578   2.768 -1.7222 -1.4014 -0.7961
  121MOL   H16946009   4.794   6.579   2.836  0.1824 -1.4109 -0.2011
  121MOL   H17046010   5.037   6.704   2.965 -1.0006 -1.7036  1.2050
  121MOL   H17146011   4.875   6.707   3.040  0.1595 -0.2666  1.2092
  121MOL   H17246012   4.913   6.785   2.881  1.6804  0.0949 -0.2230
  121MOL   C17346013   4.934   6.143   3.147 -0.5527  0.1439  0.5184
  121MOL   C17446014   4.872   6.120   3.286  0.3121 -0.5270 -0.9152
  121MOL   C17546015   4.968   6.031   3.366  0.5932 -0.1541  0.0521
  121MOL   C17646016   4.936   6.012   3.516 -0.0818  0.2677  0.3187
  121MOL   C17746017   5.014   5.895   3.581 -0.3428  0.2105 -0.9292
  121MOL   C17846018   5.161   5.879   3.534  0.2038 -0.0287  0.3777
  121MOL   O17946019   4.863   6.246   3.350  0.1051 -0.2491 -0.1107
  121MOL   H18046020   5.019   6.210   3.159 -1.0609  1.0403 -0.7916
  121MOL   H18146021   4.965   6.043   3.119 -1.3589  0.0552 -0.0679
  121MOL   H18246022   4.776   6.071   3.278  0.7441 -1.3415 -1.1365
  121MOL   H18346023   4.980   5.934   3.319 -0.2657  1.0788 -2.8474
  121MOL   H18446024   5.070   6.068   3.356  0.9323 -0.8912  0.7523
  121MOL   H18546025   4.970   6.100   3.571 -1.0204  0.5525  0.4513
  121MOL   H18646026   4.830   5.995   3.534  0.1885  1.4061  3.2597
  121MOL   H18746027   5.024   5.898   3.689 -0.7441 -1.5135 -0.8230
  121MOL   H18846028   4.961   5.804   3.552 -0.5636  0.4090 -1.1366
  121MOL   H18946029   5.155   5.848   3.430 -0.7543 -1.1536  0.7572
  121MOL   H19046030   5.237   5.822   3.587  0.4906  0.1101  0.1164
  121MOL   H19146031   5.197   5.981   3.518  1.6576 -0.5306  0.3367
  121MOL   C19246032   4.748   6.273   3.436 -0.6547 -0.4427 -0.6192
  121MOL   C19346033   4.752   6.423   3.476  0.1730 -0.7361 -0.0898
  121MOL   C19446034   4.747   6.429   3.630  0.1763 -0.2803  0.8180
  121MOL   C19546035   4.724   6.566   3.693 -0.1782 -0.6747 -0.1217
  121MOL   C19646036   4.736   6.563   3.848 -0.2521 -0.0788  0.3079
  121MOL   C19746037   4.704   6.707   3.901  0.7094  0.1804  1.0475
  121MOL   O19846038   4.653   6.505   3.412  0.2387 -0.3783 -0.0401
  121MOL   H19946039   4.658   6.248   3.379 -0.6355 -2.9305  0.3709
  121MOL   H20046040   4.757   6.201   3.517  2.2426 -2.5729 -2.7447
  121MOL   H20146041   4.845   6.475   3.450 -0.4911  0.6696  0.3094
  121MOL   H20246042   4.657   6.377   3.663 -0.3365  0.9312  1.3999
  121MOL   H20346043   4.837   6.388   3.674  0.1677 -2.1831 -0.8831
  121MOL   H20446044   4.623   6.594   3.663 -0.4476  0.0752  1.4209
  121MOL   H20546045   4.793   6.635   3.644 -0.4940  0.2410  0.7069
  121MOL   H20646046   4.655   6.499   3.882 -1.3209  1.2202  0.2724
  121MOL   H20746047   4.832   6.524   3.883 -1.0708 -1.4117  1.0857
  121MOL   H20846048   4.782   6.778   3.874 -0.0176  0.0070 -1.6591
  121MOL   H20946049   4.616   6.753   3.855  0.8279 -1.9956 -1.4131
  121MOL   H21046050   4.690   6.705   4.009 -3.3154 -2.4261  0.5766
  121MOL   C21146051   4.666   6.507   3.270 -0.1553  0.2008  0.4513
  121MOL   C21246052   4.545   6.574   3.211  0.5823  0.4984  0.6925
  121MOL   C21346053   4.527   6.549   3.054 -0.0754  1.2924 -0.2994
  121MOL   C21446054   4.520   6.391   3.030  0.1895 -0.5517 -0.0117
  121MOL   C21546055   4.458   6.364   2.891  0.6523 -0.5267 -0.8310
  121MOL   C21646056   4.308   6.373   2.900  0.1117  0.3030  0.0596
  121MOL   O21746057   4.541   6.710   3.226 -0.3450 -0.2791  0.2461
  121MOL   H21846058   4.682   6.405   3.235 -1.4805 -0.0542  0.5512
  121MOL   H21946059   4.757   6.557   3.239 -0.0600  0.4622  1.1651
  121MOL   H22046060   4.456   6.529   3.254  0.1481  0.4816 -0.2073
  121MOL   H22146061   4.429   6.591   3.036 -0.0334  1.5116 -0.0134
  121MOL   H22246062   4.600   6.602   2.993  0.8188 -2.3957 -2.6469
  121MOL   H22346063   4.619   6.345   3.030  0.9209  0.9935 -1.7222
  121MOL   H22446064   4.456   6.342   3.104  0.5016 -0.7454  0.1308
  121MOL   H22546065   4.504   6.421   2.810  3.1124 -1.4792 -0.1465
  121MOL   H22646066   4.486   6.261   2.866 -1.6450 -1.5594  0.6664
  121MOL   H22746067   4.260   6.295   2.958  1.0147 -0.8067 -0.6684
  121MOL   H22846068   4.264   6.351   2.803 -1.7788 -0.2205  1.0069
  121MOL   H22946069   4.268   6.472   2.922 -0.1085  0.6109 -1.6882
  121MOL   C23046070   4.480   6.750   3.351  1.0849 -0.2441 -0.7460
  121MOL   C23146071   4.473   6.900   3.359 -0.6440 -0.0149 -0.2851
  121MOL   C23246072   4.461   6.945   3.504  0.0483 -0.0648  0.1453
  121MOL   C23346073   4.436   7.104   3.516  0.5438  0.6798 -0.4289
  121MOL   C23446074   4.441   7.165   3.658  0.6776 -0.0972  0.2804
  121MOL   C23546075   4.456   7.316   3.661 -0.2895  0.3543  0.2513
  121MOL   O23646076   4.363   6.964   3.285 -0.6598 -0.0643 -0.2584
  121MOL   H23746077   4.377   6.714   3.354  0.5309  1.3021 -0.6104
  121MOL   H23846078   4.540   6.726   3.439 -2.5116  0.9084  2.1375
  121MOL   H23946079   4.564   6.948   3.323 -0.6589 -0.3112 -0.7209
  121MOL   H24046080   4.559   6.929   3.551  0.6636 -0.8941 -1.4103
  121MOL   H24146081   4.388   6.882   3.556  1.4983  0.4650  2.9665
  121MOL   H24246082   4.339   7.137   3.477 -0.1613  1.5851  1.9740
  121MOL   H24346083   4.510   7.150   3.451  0.2766  1.6863 -0.0345
  121MOL   H24446084   4.349   7.147   3.714 -0.2577  0.8560 -0.9295
  121MOL   H24546085   4.526   7.121   3.711 -0.1943 -0.9663  0.9893
  121MOL   H24646086   4.463   7.341   3.766 -2.5265 -1.3963  0.8405
  121MOL   H24746087   4.365   7.359   3.618  0.3363  1.5967  0.1514
  121MOL   H24846088   4.543   7.355   3.608 -0.1280 -0.3231  0.0100
  121MOL   C24946089   4.375   6.971   3.142 -0.2834 -0.3156  0.5463
  121MOL   C25046090   4.232   6.961   3.081  0.4523 -0.2123 -0.0524
  121MOL   C25146091   4.220   6.920   2.932  0.1496 -0.3133 -0.3664
  121MOL   C25246092   4.145   6.796   2.905 -0.3013  0.3716 -0.2572
  121MOL   C25346093   4.118   6.762   2.763  0.1760  1.0050 -0.0362
  121MOL   C25446094   4.030   6.635   2.765  0.2103  0.6556  0.5696
  121MOL   O25546095   4.182   7.095   3.105 -0.2892 -0.5231 -0.1840
  121MOL   H25646096   4.429   7.058   3.107 -1.5171  0.6549  1.0127
  121MOL   H25746097   4.422   6.882   3.101 -0.1624 -0.8572  1.8172
  121MOL   H25846098   4.179   6.883   3.136 -0.2175 -0.5675 -1.1977
  121MOL   H25946099   4.188   7.004   2.872  2.5384  2.1130  1.6213
  121MOL   H26046100   4.320   6.914   2.889  0.1683  0.4932 -0.4328
  121MOL   H26146101   4.207   6.714   2.939  0.1136 -1.2273 -4.6451
  121MOL   H26246102   4.052   6.796   2.962  0.1663  1.3555  0.5385
  121MOL   H26346103   4.059   6.842   2.719 -2.3730 -1.0122 -0.3567
  121MOL   H26446104   4.216   6.762   2.715  0.2375 -0.2294  0.0889
  121MOL   H26546105   3.925   6.660   2.780 -0.7903 -1.9089 -1.7464
  121MOL   H26646106   4.057   6.561   2.840  0.8882  0.0485 -0.2730
  121MOL   H26746107   4.036   6.588   2.667 -0.0211 -0.4072  1.0565
  121MOL   C26846108   4.080   7.103   3.205  0.7201  0.0561 -0.3112
  121MOL   C26946109   4.055   7.249   3.238  0.0208  0.3141  0.6293
  121MOL   C27046110   3.965   7.281   3.360  0.5855  0.0140 -0.2072
  121MOL   C27146111   3.832   7.206   3.358 -0.7915 -0.2513 -0.1111
  121MOL   C27246112   3.747   7.228   3.490  0.5014 -0.0997 -0.3259
  121MOL   C27346113   3.638   7.117   3.500  0.5992 -0.5535 -0.7086
  121MOL   O27446114   3.986   7.324   3.140  0.1337 -0.0837  0.1190
  121MOL   H27546115   4.116   7.061   3.299 -0.3927  1.6649  0.8619
  121MOL   H27646116   3.993   7.049   3.166  0.0667  0.5506  0.4295
  121MOL   H27746117   4.149   7.297   3.266  0.7375 -0.4115 -0.4689
  121MOL   H27846118   4.022   7.259   3.450  0.6536  1.6963  0.1837
  121MOL   H27946119   3.952   7.389   3.356 -0.8900 -0.1650 -0.6249
  121MOL   H28046120   3.780   7.230   3.265 -0.5509  0.4688 -0.0677
  121MOL   H28146121   3.855   7.100   3.346  1.0465  0.2068 -0.8839
  121MOL   H28246122   3.817   7.207   3.571  0.3906 -1.0549 -0.4738
  121MOL   H28346123   3.722   7.334   3.497 -0.8670 -0.5800  2.6765
  121MOL   H28446124   3.582   7.113   3.594 -2.2447 -0.1773 -2.3126
  121MOL   H28546125   3.570   7.129   3.415  0.8661 -1.7054 -1.1025
  121MOL   H28646126   3.685   7.019   3.501 -2.2545 -1.9816  0.3282
  121MOL   C28746127   4.058   7.393   3.039 -0.3072  0.0511 -0.7247
  121MOL   C28846128   3.957   7.468   2.941  0.4526 -0.3959  0.5175
  121MOL   C28946129   4.028   7.529   2.816 -0.5397  0.3913  0.7865
  121MOL   C29046130   3.944   7.593   2.699  0.7127 -0.4024 -0.0352
  121MOL   C29146131   4.025   7.653   2.586  0.0211 -0.4751  0.5313
  121MOL   C29246132   3.948   7.714   2.467 -0.3992  0.2796 -0.6372
  121MOL   O29346133   3.903   7.580   3.011  0.2665  0.2063  0.2652
  121MOL   H29446134   4.128   7.317   3.005 -2.1747 -1.6041 -0.9113
  121MOL   H29546135   4.112   7.473   3.091 -1.3543 -0.4491  1.2121
  121MOL   H29646136   3.876   7.405   2.903 -0.0764  0.0821  0.8356
  121MOL   H29746137   4.095   7.607   2.855 -0.4759  0.8325 -0.1850
  121MOL   H29846138   4.092   7.458   2.764  0.0913  2.8889 -2.0062
  121MOL   H29946139   3.890   7.511   2.654  0.6527 -1.5744  2.0877
  121MOL   H30046140   3.873   7.669   2.733  2.6453  1.3943  0.1309
  121MOL   H30146141   4.090   7.573   2.551 -0.1351 -0.1253 -0.5790
  121MOL   H30246142   4.096   7.727   2.624  0.6323 -0.4016 -0.7080
  121MOL   H30346143   3.852   7.665   2.453 -0.2708 -0.1685  0.0109
  121MOL   H30446144   3.916   0.030   2.490  0.4970  0.2096  1.0441
  121MOL   H30546145   3.995   7.698   2.370  1.0030  2.5058 -0.3625
  121MOL   C30646146   3.798   7.561   3.101 -0.1875  0.0547  0.7022
  121MOL   C30746147   3.740   7.695   3.143  1.0472 -0.0365  0.2986
  121MOL   C30846148   3.679   7.681   3.283 -0.0528  0.1355 -0.2625
  121MOL   C30946149   3.663   0.022   3.363  0.5465 -0.1944 -0.1701
  121MOL   C31046150   3.774   0.075   3.455 -0.0206 -0.2865 -0.6155
  121MOL   C31146151   3.899   0.128   3.393 -0.5925  0.2243 -0.0494
  121MOL   O31246152   3.645   7.749   3.053  0.5596  0.4115 -0.5856
  121MOL   H31346153   3.716   7.497   3.070 -1.0105  1.2110  0.4651
  121MOL   H31446154   3.839   7.513   3.190 -1.4878 -0.6431  0.9283
  121MOL   H31546155   3.824   7.764   3.155  0.7840  0.3948 -0.3171
  121MOL   H31646156   3.738   7.610   3.341  3.6860  2.6344 -0.8080
  121MOL   H31746157   3.590   7.619   3.271  0.8220 -1.0990 -0.4841
  121MOL   H31846158   3.630   0.108   3.305  0.4330  1.2302  1.9526
  121MOL   H31946159   3.581   7.785   3.431  0.2864  0.8652 -0.1266
  121MOL   H32046160   3.788   7.779   3.526 -0.6753 -0.5691 -0.7983
  121MOL   H32146161   3.750   0.167   3.509  1.1976  0.7637 -1.8220
  121MOL   H32246162   3.882   0.230   3.358 -1.2059  0.4259  0.8139
  121MOL   H32346163   3.972   0.140   3.473 -0.9233  0.6047  0.1948
  121MOL   H32446164   3.950   0.064   3.322  0.9608  0.1092  1.1466
  121MOL   C32546165   3.680   0.061   2.963 -0.4330  0.0823  0.2412
  121MOL   C32646166   3.562   0.106   2.867  0.1483 -0.1060 -0.3705
  121MOL   C32746167   3.624   0.151   2.734 -0.4002  0.5568  0.1561
  121MOL   C32846168   3.519   0.160   2.625  0.6221 -0.1314 -0.1765
  121MOL   C32946169   3.583   0.176   2.483  0.0723  0.2151 -0.4619
  121MOL   C33046170   3.653   0.313   2.453  0.1546  0.7775 -0.5964
  121MOL   O33146171   3.491   0.208   2.933  0.5919  0.5628  0.2490
  121MOL   H33246172   3.747   0.005   2.898  0.3472  1.2769 -0.0175
  121MOL   H33346173   3.735   0.145   3.005  0.1753 -0.2667  0.1461
  121MOL   H33446174   3.496   0.021   2.853 -1.5550  0.9352  1.2062
  121MOL   H33546175   3.669   0.249   2.755 -1.1998  0.4152  2.5798
  121MOL   H33646176   3.699   0.079   2.702 -1.5434 -1.2036  1.3961
  121MOL   H33746177   3.460   0.068   2.625  0.1139  0.1880 -0.7586
  121MOL   H33846178   3.448   0.238   2.653  0.3111 -0.7365  0.7723
  121MOL   H33946179   3.659   0.099   2.467  1.4186  0.9535  2.0045
  121MOL   H34046180   3.507   0.139   2.415  1.7778 -1.6163 -1.4218
  121MOL   H34146181   3.760   0.299   2.442  0.1541 -0.8380  1.2671
  121MOL   H34246182   3.625   0.340   2.351 -1.5585 -2.1860 -0.9939
  121MOL   H34346183   3.630   0.396   2.519 -0.1033  0.7193 -0.6097
  121MOL   C34446184   3.403   0.166   3.035 -1.0315 -0.0924  0.0711
  121MOL   C34546185   3.348   0.285   3.115  0.4405  0.6051  0.2660
  121MOL   C34646186   3.286   0.393   3.016  0.5609  0.8351 -0.6683
  121MOL   C34746187   3.240   0.508   3.103  0.1307 -0.0810 -0.0495
  121MOL   C34846188   3.192   0.630   3.023 -0.9317  0.7001  0.0588
  121MOL   C34946189   3.059   0.617   2.951  0.4046 -0.2683 -0.0531
  121MOL   O35046190   3.242   0.239   3.198  0.6099 -0.2988  0.4389
  121MOL   H35146191   3.441   0.096   3.109  0.6971  1.0776  0.3299
  121MOL   H35246192   3.325   0.114   2.979 -0.2877  0.1738 -1.2193
  121MOL   H35346193   3.422   0.335   3.177  1.1053  0.0470 -0.0738
  121MOL   H35446194   3.204   0.350   2.959  0.8012  2.3726 -2.1821
  121MOL   H35546195   3.357   0.426   2.941  1.8600  0.4802  0.3682
  121MOL   H35646196   3.318   0.542   3.171  0.5190 -0.3665 -0.3501
  121MOL   H35746197   3.161   0.475   3.170  0.6702 -1.5010 -0.0911
  121MOL   H35846198   3.258   0.654   2.940  0.8855 -1.6384  0.7571
  121MOL   H35946199   3.195   0.723   3.079 -1.0247 -0.5458  2.2161
  121MOL   H36046200   3.008   0.709   2.923  0.7198  0.4779  1.7513
  121MOL   H36146201   2.988   0.560   3.011 -0.0764  0.4003  0.0262
  121MOL   H36246202   3.077   0.549   2.867  1.3610 -1.1876  0.8853
  121MOL   C36346203   3.270   0.182   3.323  0.7220  0.7271  0.0739
  121MOL   C36446204   3.163   0.081   3.364 -0.0235  0.3630  0.9978
  121MOL   C36546205   3.149   7.743   3.272  0.0504  0.9267  0.4344
  121MOL   C36646206   3.020   7.652   3.293 -0.0905 -0.0154  0.4313
  121MOL   C36746207   3.013   7.550   3.173  0.0222  0.0070 -0.3150
  121MOL   C36846208   2.921   7.426   3.196  0.3343 -0.1286  0.1608
  121MOL   O36946209   3.164   0.050   3.500 -0.6494 -0.1877 -0.0995
  121MOL   H37046210   3.273   0.261   3.397 -0.4267 -0.0814  1.0021
  121MOL   H37146211   3.369   0.136   3.327 -0.5141 -1.9067  1.4778
  121MOL   H37246212   3.069   0.129   3.337 -0.9343 -0.3240  2.8811
  121MOL   H37346213   3.141   7.785   3.172 -1.0980  0.3042  0.2594
  121MOL   H37446214   3.239   7.680   3.271 -0.4142  0.2676  0.1667
  121MOL   H37546215   3.027   7.594   3.385  0.6079 -1.3362 -0.4337
  121MOL   H37646216   2.930   7.714   3.292  0.1338  0.3084 -1.4364
  121MOL   H37746217   2.985   7.600   3.081 -0.1413 -0.0291 -0.2846
  121MOL   H37846218   3.110   7.502   3.164 -0.2573 -0.7386  0.5748
  121MOL   H37946219   2.921   7.375   3.100  0.8388 -1.0880  0.6693
  121MOL   H38046220   2.968   7.351   3.259  1.2882  0.5665  0.2899
  121MOL   H38146221   2.819   7.450   3.228  0.9052  1.7664  0.6488
  121MOL   H38246222   3.078   0.011   3.508  0.0275 -1.9670 -1.1355
  122MOL     C146223   5.913   0.943   6.935  0.0712  0.0966  0.4576
  122MOL     C246224   5.791   1.020   6.896 -0.0805  0.2508  0.3536
  122MOL     C346225   5.664   1.004   6.985 -0.0273 -0.2757 -0.3734
  122MOL     C446226   5.695   1.035   7.129  0.3260  0.2126 -0.1558
  122MOL     C546227   5.753   1.171   7.167  0.1067  0.2817 -0.6259
  122MOL     C646228   5.721   1.196   7.318  0.2738 -0.2637 -0.1052
  122MOL     O746229   5.809   1.158   6.886  0.0442 -0.2848  0.4728
  122MOL     H846230   5.881   0.847   6.974  0.8968 -1.0141 -1.5343
  122MOL     H946231   5.973   1.002   7.005  1.1568  0.1952 -0.5365
  122MOL    H1046232   5.759   0.995   6.795 -0.7045 -0.1830  0.6486
  122MOL    H1146233   5.582   1.059   6.939 -0.2190  0.7935  1.1934
  122MOL    H1246234   5.625   0.904   6.973  2.8588 -1.5614  0.3656
  122MOL    H1346235   5.596   1.033   7.174  0.1920 -2.8506 -0.5297
  122MOL    H1446236   5.753   0.950   7.164 -1.2409 -1.2077 -0.9351
  122MOL    H1546237   5.862   1.176   7.158  0.1438  0.2899 -0.1907
  122MOL    H1646238   5.701   1.250   7.113 -0.1863  0.0532 -0.6739
  122MOL    H1746239   5.765   1.289   7.355 -0.9865  1.3364 -2.4932
  122MOL    H1846240   5.613   1.203   7.328  0.3514 -0.1277  0.6439
  122MOL    H1946241   5.771   1.127   7.386  0.1422 -1.4727 -1.2198
  122MOL    H2046242   5.968   0.910   6.847  1.3574  1.4350  0.7400
  122MOL    C2146243   5.871   1.210   6.762  0.5287  0.6458 -0.9513
  122MOL    C2246244   5.907   1.352   6.792  0.2394  0.4697 -0.9766
  122MOL    C2346245   6.030   1.398   6.713 -0.3695  0.0434 -0.1743
  122MOL    C2446246   6.088   1.538   6.741  0.8764 -0.0791 -0.2943
  122MOL    C2546247   6.225   1.565   6.669 -0.6013 -0.3809  0.2551
  122MOL    C2646248   6.207   1.600   6.522  0.4359 -0.1063  0.5033
  122MOL    O2746249   5.805   1.434   6.750  0.3645 -0.4404  0.0541
  122MOL    H2846250   5.963   1.153   6.748  0.2705 -0.4440  1.5455
  122MOL    H2946251   5.796   1.204   6.683  1.7918  2.1726 -2.3025
  122MOL    H3046252   5.935   1.361   6.897 -2.8730  2.0816 -0.2362
  122MOL    H3146253   6.004   1.385   6.608 -1.8187  3.3794 -0.3071
  122MOL    H3246254   6.119   1.340   6.737  1.8746  1.9986 -3.3016
  122MOL    H3346255   6.110   1.538   6.848 -2.0698  0.3802  0.3398
  122MOL    H3446256   6.010   1.614   6.741  0.0213 -0.9193  1.9385
  122MOL    H3546257   6.276   1.653   6.710 -0.4878 -0.5017  0.3727
  122MOL    H3646258   6.297   1.484   6.681 -0.2734  0.0503  1.2781
  122MOL    H3746259   6.299   1.597   6.463 -0.4486  1.5865 -1.0178
  122MOL    H3846260   6.171   1.701   6.502 -1.3170 -1.0768 -1.5103
  122MOL    H3946261   6.132   1.531   6.482 -1.4647  1.8800  0.5385
  122MOL    C4046262   5.689   1.433   6.833 -0.5477  0.6472  0.3614
  122MOL    C4146263   5.621   1.567   6.814 -0.1967 -0.0996  0.0468
  122MOL    C4246264   5.499   1.588   6.906  0.6418  0.1359 -0.4127
  122MOL    C4346265   5.430   1.724   6.889  0.2949  1.5030 -0.5714
  122MOL    C4446266   5.336   1.756   7.007 -0.1979 -0.5733  0.1475
  122MOL    C4546267   5.260   1.894   6.989 -0.1509  0.2077  0.2146
  122MOL    O4646268   5.574   1.576   6.685 -0.5794  0.1286  0.0817
  122MOL    H4746269   5.727   1.434   6.935  2.7740  0.8556 -0.7921
  122MOL    H4846270   5.623   1.348   6.816  3.0452 -2.1159 -0.4162
  122MOL    H4946271   5.701   1.638   6.835  0.5307 -0.9594  0.2113
  122MOL    H5046272   5.424   1.512   6.885  0.4780 -0.2334  1.4200
  122MOL    H5146273   5.536   1.576   7.008  3.0566  0.1675 -1.2645
  122MOL    H5246274   5.374   1.709   6.796 -0.5772 -1.3376  0.3652
  122MOL    H5346275   5.499   1.806   6.871  0.2902  1.1001 -2.6574
  122MOL    H5446276   5.272   1.669   7.019 -1.2603  0.0796 -0.7565
  122MOL    H5546277   5.388   1.751   7.103  2.2809 -0.3110 -1.1206
  122MOL    H5646278   5.296   1.948   6.902 -2.1809 -0.4069 -1.0472
  122MOL    H5746279   5.155   1.873   6.969  0.4703 -3.3492  0.3687
  122MOL    H5846280   5.255   1.958   7.077  3.6790  2.0437 -0.8191
  122MOL    C5946281   5.628   1.687   6.604 -0.7638  0.2893 -0.1706
  122MOL    C6046282   5.629   1.637   6.455 -0.3900 -0.7142  0.1115
  122MOL    C6146283   5.688   1.488   6.434  0.1257  0.6773  0.1202
  122MOL    C6246284   5.714   1.441   6.295  0.0686 -0.0218  0.8559
  122MOL    C6346285   5.802   1.528   6.206  0.6317 -0.2059 -0.2893
  122MOL    C6446286   5.949   1.508   6.247 -0.3349 -0.0747 -0.3043
  122MOL    O6546287   5.499   1.660   6.391 -0.6776 -0.3708  0.6864
  122MOL    H6646288   5.731   1.698   6.637 -1.0867 -1.6839  1.5607
  122MOL    H6746289   5.583   1.781   6.637 -1.2562  0.2280 -0.6552
  122MOL    H6846290   5.696   1.704   6.400  0.6778 -1.6161  0.2994
  122MOL    H6946291   5.618   1.426   6.490 -0.6651  0.2073 -1.3776
  122MOL    H7046292   5.784   1.490   6.487  0.0599 -1.0310  0.3061
  122MOL    H7146293   5.613   1.444   6.255  0.1300  0.3271  0.7313
  122MOL    H7246294   5.743   1.336   6.281 -0.0784 -0.0328  0.6249
  122MOL    H7346295   5.777   1.634   6.202  0.4520 -0.2600 -0.6188
  122MOL    H7446296   5.785   1.502   6.102  0.5524 -0.5839 -0.1849
  122MOL    H7546297   5.968   1.406   6.282 -2.6458 -0.0689  1.0294
  122MOL    H7646298   6.011   1.557   6.172  0.8698  0.6000  1.1051
  122MOL    H7746299   5.970   1.568   6.335 -2.1224  0.6248 -0.3421
  122MOL    C7846300   5.398   1.559   6.418 -0.6388  0.4591 -0.4188
  122MOL    C7946301   5.255   1.598   6.377  0.1245  0.1363  0.5473
  122MOL    C8046302   5.149   1.521   6.452 -0.5902  0.4818  0.3945
  122MOL    C8146303   5.005   1.558   6.405  0.0723  0.4619 -0.7841
  122MOL    C8246304   4.890   1.502   6.493 -0.3893  0.0038 -0.4447
  122MOL    C8346305   4.754   1.528   6.431  0.2722  0.0629 -0.1453
  122MOL    O8446306   5.239   1.560   6.239 -0.3903  0.2816 -0.1975
  122MOL    H8546307   5.402   1.536   6.525  0.5745 -0.8648 -0.7275
  122MOL    H8646308   5.425   1.466   6.367 -0.8032  0.0779  0.1857
  122MOL    H8746309   5.230   1.704   6.384 -2.3493 -0.2049 -1.9869
  122MOL    H8846310   5.165   1.414   6.441  0.3572  0.6429  0.2028
  122MOL    H8946311   5.163   1.557   6.554  1.7197  1.2478 -0.1820
  122MOL    H9046312   4.993   1.512   6.307  0.8916  1.3816 -1.3272
  122MOL    H9146313   4.992   1.665   6.389 -0.3916  0.8768  2.1758
  122MOL    H9246314   4.912   1.396   6.500 -0.8032 -0.2039 -2.0475
  122MOL    H9346315   4.880   1.538   6.596 -0.4291  1.5328 -0.9673
  122MOL    H9446316   4.743   1.511   6.324  0.1525 -0.7297 -0.0075
  122MOL    H9546317   4.724   1.631   6.453 -0.3472 -0.1828  0.1878
  122MOL    H9646318   4.679   1.458   6.469 -0.6081  0.9599 -0.1979
  122MOL    C9746319   5.305   1.649   6.151  0.2880  0.5182 -0.2613
  122MOL    C9846320   5.289   1.589   6.009  0.5783  0.2839  1.0345
  122MOL    C9946321   5.135   1.585   5.982  0.0238  0.6444 -0.0365
  122MOL   C10046322   5.101   1.513   5.846 -0.3614  0.3947  0.4024
  122MOL   C10146323   4.971   1.561   5.792 -0.4219  0.3793  0.5950
  122MOL   C10246324   4.915   1.460   5.689  0.0810 -0.2324  0.6259
  122MOL   O10346325   5.341   1.667   5.908 -0.8952 -0.9080  0.3250
  122MOL   H10446326   5.411   1.668   6.167  0.0792  0.8891  0.7309
  122MOL   H10546327   5.249   1.743   6.154  0.5826  0.6634  0.7704
  122MOL   H10646328   5.327   1.487   6.006  1.5920  0.6767 -2.1449
  122MOL   H10746329   5.094   1.684   5.965  1.7710  1.0853 -1.9318
  122MOL   H10846330   5.068   1.550   6.060 -0.1643  1.9575  0.3935
  122MOL   H10946331   5.094   1.404   5.852 -0.3828  0.3451 -0.5429
  122MOL   H11046332   5.181   1.538   5.777  1.8571 -2.7214  1.7564
  122MOL   H11146333   4.993   1.654   5.740  0.3144  0.5125  1.1262
  122MOL   H11246334   4.915   1.573   5.885  0.1975 -0.8405  1.1352
  122MOL   H11346335   4.822   1.493   5.643 -0.0690  0.3726  1.3562
  122MOL   H11446336   4.997   1.457   5.616  0.2814 -0.6583  0.8696
  122MOL   H11546337   4.890   1.359   5.721 -0.2780 -0.7936 -1.3465
  122MOL   C11646338   5.478   1.669   5.898 -0.3425 -0.0557  0.0024
  122MOL   C11746339   5.510   1.583   5.774  0.0222  0.1323  0.0590
  122MOL   C11846340   5.655   1.541   5.771  0.1571  0.1540 -0.1333
  122MOL   C11946341   5.756   1.654   5.795  0.6108 -0.8447 -0.6867
  122MOL   C12046342   5.899   1.602   5.813  0.5897  0.0571  0.1147
  122MOL   C12146343   6.011   1.706   5.806  1.0566  0.1867 -0.3095
  122MOL   O12246344   5.496   1.663   5.661  0.1732 -0.1933  0.4504
  122MOL   H12346345   5.520   1.767   5.873  0.0673 -0.3684 -0.5306
  122MOL   H12446346   5.525   1.638   5.991  0.0933  0.6155  0.0096
  122MOL   H12546347   5.443   1.497   5.777 -0.9840  0.9030  0.1037
  122MOL   H12646348   5.669   1.467   5.850 -2.7076 -0.6275 -0.3086
  122MOL   H12746349   5.676   1.481   5.682  0.4490 -2.0358  1.3651
  122MOL   H12846350   5.738   1.704   5.890 -0.7324 -1.0416 -0.8297
  122MOL   H12946351   5.755   1.730   5.718  2.2817 -0.1504 -0.0732
  122MOL   H13046352   5.916   1.559   5.911 -3.3444 -1.5097  0.2277
  122MOL   H13146353   5.917   1.523   5.740  2.1927  0.1537  0.4025
  122MOL   H13246354   5.991   1.763   5.715 -0.2326 -0.7113 -0.5897
  122MOL   H13346355   6.021   1.766   5.896  1.4519 -0.7949  0.3013
  122MOL   H13446356   6.113   1.669   5.792  0.4474 -1.0803 -1.5386
  122MOL   C13546357   5.439   1.603   5.548  0.5764  0.2843 -0.2207
  122MOL   C13646358   5.440   1.698   5.433  0.2242 -0.1428  0.3416
  122MOL   C13746359   5.342   1.650   5.323  0.3992  0.0024 -0.2555
  122MOL   C13846360   5.350   1.747   5.213 -0.0592  0.4411  0.5586
  122MOL   C13946361   5.261   1.697   5.095 -0.2891  0.0764 -0.1948
  122MOL   C14046362   5.249   1.805   4.985  0.1997  0.5055 -1.1547
  122MOL   O14146363   5.573   1.695   5.363  0.3683  0.4527 -0.1603
  122MOL   H14246364   5.489   1.513   5.512  0.7805 -0.0540  0.8873
  122MOL   H14346365   5.337   1.574   5.573  0.8071  0.6440  1.1567
  122MOL   H14446366   5.430   1.804   5.454  0.9416  0.0683 -0.3624
  122MOL   H14546367   5.361   1.548   5.289 -0.3790 -0.4876  0.7771
  122MOL   H14646368   5.240   1.647   5.360  0.1128 -0.1921 -1.0498
  122MOL   H14746369   5.454   1.764   5.184 -0.1699 -1.0822 -0.8006
  122MOL   H14846370   5.311   1.845   5.239 -1.3726 -0.4317  1.9504
  122MOL   H14946371   5.159   1.693   5.134 -0.4332 -0.1126 -0.5820
  122MOL   H15046372   5.291   1.596   5.066  1.2312  1.0462 -2.1189
  122MOL   H15146373   5.344   1.818   4.933  2.3574  0.3973  2.5005
  122MOL   H15246374   5.168   1.782   4.916 -1.8882 -3.0007  2.2604
  122MOL   H15346375   5.228   1.901   5.032  1.5917  0.6894 -0.8944
  122MOL   C15446376   5.672   1.772   5.426 -0.1352  0.4976  0.2439
  122MOL   C15546377   5.717   1.868   5.316  0.3518 -0.2573  1.1250
  122MOL   C15646378   5.777   1.995   5.366 -1.1897  0.3630 -0.9426
  122MOL   C15746379   5.924   1.985   5.420 -0.4904 -0.2201  0.3619
  122MOL   C15846380   6.030   2.020   5.319 -0.5992 -0.5697 -0.2825
  122MOL   C15946381   6.052   2.173   5.311 -0.4494 -0.0772 -0.2757
  122MOL   O16046382   5.818   1.815   5.227  0.1171 -0.3706  0.5461
  122MOL   H16146383   5.755   1.718   5.471  1.3970  1.7118 -1.0525
  122MOL   H16246384   5.635   1.830   5.511 -1.1282  1.0483 -0.5533
  122MOL   H16346385   5.634   1.901   5.254  0.0168 -0.4885  1.4441
  122MOL   H16446386   5.721   2.033   5.451 -0.2726 -1.2202  0.4024
  122MOL   H16546387   5.771   2.071   5.288 -2.3794  0.6019 -0.6236
  122MOL   H16646388   5.945   1.886   5.461  2.6851  0.7681  1.2397
  122MOL   H16746389   5.946   2.058   5.498 -2.5055  0.1551  0.6144
  122MOL   H16846390   6.126   1.979   5.351 -0.9187 -1.0416  0.0772
  122MOL   H16946391   6.007   1.969   5.225 -0.3250  1.2627 -1.3539
  122MOL   H17046392   6.147   2.198   5.264 -0.4144  0.9675  0.3437
  122MOL   H17146393   6.049   2.223   5.407 -2.3591  0.5467 -0.6409
  122MOL   H17246394   5.976   2.213   5.243 -1.0505 -1.0583 -0.2016
  122MOL   C17346395   5.768   1.736   5.124  0.0508 -0.3315 -0.4199
  122MOL   C17446396   5.850   1.766   4.995 -0.6164  0.0824 -0.3334
  122MOL   C17546397   5.813   1.656   4.894  0.3726  0.3444  0.9223
  122MOL   C17646398   5.911   1.638   4.773  0.4514 -0.6499  0.2682
  122MOL   C17746399   5.868   1.521   4.687 -0.0564  0.4910 -0.2132
  122MOL   C17846400   5.984   1.459   4.606  0.6207  0.2323  0.0281
  122MOL   O17946401   5.814   1.889   4.926 -0.2289 -0.0088  0.0078
  122MOL   H18046402   5.664   1.764   5.111  0.2780  1.0849  0.7364
  122MOL   H18146403   5.788   1.637   5.164 -0.7151 -0.3774 -0.1639
  122MOL   H18246404   5.953   1.750   5.026 -0.7238 -0.6549 -0.3435
  122MOL   H18346405   5.822   1.560   4.945 -0.3854 -1.1348 -1.6289
  122MOL   H18446406   5.711   1.661   4.856  0.8648  2.1804 -0.2382
  122MOL   H18546407   5.921   1.727   4.712  0.8119 -2.5520 -2.5687
  122MOL   H18646408   6.008   1.616   4.818 -0.2915 -1.3739  1.5423
  122MOL   H18746409   5.830   1.446   4.756  2.8895  1.3669  2.4624
  122MOL   H18846410   5.782   1.554   4.629 -2.5023 -2.1097  1.7992
  122MOL   H18946411   6.064   1.454   4.679  0.2404  4.8089  0.8946
  122MOL   H19046412   6.016   1.528   4.528  0.9658  2.4126  2.0319
  122MOL   H19146413   5.958   1.359   4.571 -0.3729  1.5427 -3.0955
  122MOL   C19246414   5.889   1.998   4.973 -1.2767  0.6187 -0.3414
  122MOL   C19346415   5.818   2.120   4.900  0.4429 -0.1990 -0.1602
  122MOL   C19446416   5.892   2.254   4.925 -0.9253  0.1141 -0.4617
  122MOL   C19546417   5.979   2.287   4.801 -0.4839  0.3267  0.3085
  122MOL   C19646418   6.091   2.385   4.836  1.1331  0.5415  0.5630
  122MOL   C19746419   6.198   2.407   4.729  0.8775 -0.3935  0.3487
  122MOL   O19846420   5.689   2.129   4.956 -0.4952  0.7587 -0.2588
  122MOL   H19946421   5.867   2.016   5.078 -3.3067  0.9086 -0.7908
  122MOL   H20046422   5.996   1.998   4.951 -1.0330 -1.2017  0.6845
  122MOL   H20146423   5.814   2.098   4.793  2.1789  0.2703 -0.3397
  122MOL   H20246424   5.832   2.343   4.946  0.4615  0.9993 -0.1820
  122MOL   H20346425   5.960   2.250   5.010 -0.5194 -2.3257 -0.8786
  122MOL   H20446426   5.916   2.321   4.718 -0.4195  0.0404  0.1428
  122MOL   H20546427   6.012   2.190   4.763  3.8251  1.9255 -0.2805
  122MOL   H20646428   6.049   2.485   4.849 -1.9529 -0.5607 -0.4450
  122MOL   H20746429   6.147   2.361   4.926 -1.9078 -0.6127  2.2081
  122MOL   H20846430   6.266   2.323   4.736 -0.1322 -1.2101  0.4367
  122MOL   H20946431   6.154   2.410   4.629 -1.9566 -0.8915  1.5203
  122MOL   H21046432   6.252   2.501   4.743  0.8825 -0.5866  1.6761
  122MOL   C21146433   5.595   2.199   4.875  0.2593 -0.1688 -0.8338
  122MOL   C21246434   5.449   2.164   4.926 -0.7391 -0.4589  0.2163
  122MOL   C21346435   5.353   2.229   4.830 -0.2646 -0.1978  0.0403
  122MOL   C21446436   5.204   2.210   4.872  0.6042 -0.2085 -0.3838
  122MOL   C21546437   5.090   2.288   4.803  0.7572  0.3287 -0.0534
  122MOL   C21646438   5.067   2.429   4.878  0.0454 -1.0036 -0.3123
  122MOL   O21746439   5.437   2.227   5.048  0.2168  0.1940 -0.4390
  122MOL   H21846440   5.591   2.170   4.770 -2.6068  1.2656 -1.1488
  122MOL   H21946441   5.620   2.306   4.875 -0.6736  0.0785  2.2558
  122MOL   H22046442   5.457   2.056   4.943  0.1682 -0.0250  2.8029
  122MOL   H22146443   5.377   2.336   4.832  0.3061 -0.3288  0.4157
  122MOL   H22246444   5.373   2.192   4.729  2.4454  1.6052 -0.1560
  122MOL   H22346445   5.183   2.103   4.876  1.2007 -0.3235 -0.3771
  122MOL   H22446446   5.194   2.235   4.977 -1.5852 -2.6922  0.0499
  122MOL   H22546447   5.113   2.312   4.699 -1.3776 -2.1253 -1.1462
  122MOL   H22646448   4.997   2.232   4.805  0.5265  0.6040 -2.1137
  122MOL   H22746449   5.157   2.488   4.897 -1.8733  1.6566  0.6610
  122MOL   H22846450   5.024   2.409   4.977  1.0949  2.1528  0.8308
  122MOL   H22946451   4.990   2.484   4.825 -0.1376  0.3796  1.3352
  122MOL   C23046452   5.421   2.140   5.160  0.4288 -0.2174  0.2768
  122MOL   C23146453   5.416   2.213   5.290  0.7165 -0.3115 -0.5923
  122MOL   C23246454   5.553   2.277   5.324 -0.3452  0.2782  0.2705
  122MOL   C23346455   5.551   2.361   5.454  0.1765 -0.1970 -0.0874
  122MOL   C23446456   5.693   2.395   5.494 -0.6193  0.2964  0.1124
  122MOL   C23546457   5.702   2.485   5.614 -0.3391  0.2084  0.2263
  122MOL   O23646458   5.384   2.127   5.395 -0.2786 -0.3367 -0.6418
  122MOL   H23746459   5.328   2.083   5.159  0.4926 -0.4068  2.4001
  122MOL   H23846460   5.504   2.069   5.157  0.6702  0.1010 -0.6149
  122MOL   H23946461   5.340   2.288   5.269 -0.0429 -0.4254  1.5742
  122MOL   H24046462   5.581   2.344   5.242  1.5057 -0.2875  0.4174
  122MOL   H24146463   5.631   2.201   5.324 -0.7722 -0.2212 -2.7612
  122MOL   H24246464   5.519   2.303   5.540  2.0816 -2.1552 -0.6544
  122MOL   H24346465   5.490   2.450   5.467 -0.1306 -0.5911  1.2536
  122MOL   H24446466   5.735   2.298   5.517 -1.9219 -0.7084 -1.5843
  122MOL   H24546467   5.750   2.436   5.411 -0.9220 -0.4144 -0.4500
  122MOL   H24646468   5.802   2.480   5.657  1.0061 -3.9290 -3.1600
  122MOL   H24746469   5.638   2.465   5.700 -0.2034  0.5935  0.4203
  122MOL   H24846470   5.678   2.582   5.570 -0.7849 -0.4722 -1.0418
  122MOL   C24946471   5.269   2.163   5.471 -0.4423 -0.0203  0.2927
  122MOL   C25046472   5.248   2.065   5.587  0.2524  0.2763 -0.0310
  122MOL   C25146473   5.100   2.063   5.639 -0.3203  0.5883 -1.0797
  122MOL   C25246474   4.990   1.998   5.545  0.1042 -0.1119  0.6844
  122MOL   C25346475   4.846   1.982   5.602  0.1236 -0.1064 -0.3331
  122MOL   C25446476   4.820   1.853   5.680 -0.5599  0.3588  1.1219
  122MOL   O25546477   5.330   2.106   5.698 -0.1691  0.8561 -0.5043
  122MOL   H25646478   5.278   2.270   5.487  1.4285 -0.2842  1.1122
  122MOL   H25746479   5.183   2.156   5.404  1.0794 -0.1626 -1.7017
  122MOL   H25846480   5.281   1.971   5.544  0.2049  0.3983 -0.3409
  122MOL   H25946481   5.096   2.005   5.732  0.9163  2.7669  0.3886
  122MOL   H26046482   5.070   2.167   5.653 -2.6928 -0.2216  0.1701
  122MOL   H26146483   4.986   2.049   5.449  3.3172  0.3799  0.7658
  122MOL   H26246484   5.036   1.902   5.523  0.6975  0.5556 -1.0145
  122MOL   H26346485   4.822   2.072   5.659  0.4760  0.0289 -0.3978
  122MOL   H26446486   4.768   1.978   5.526  0.7971 -0.0567 -1.0328
  122MOL   H26546487   4.889   1.847   5.764 -0.8416 -1.5737  1.2263
  122MOL   H26646488   4.814   1.760   5.623  1.3368  0.9388 -0.0633
  122MOL   H26746489   4.728   1.862   5.738 -0.8442 -0.4727  0.8015
  122MOL   C26846490   5.460   2.047   5.695  0.2271  0.7384 -0.1472
  122MOL   C26946491   5.554   2.103   5.802  0.8608  1.3917  0.4903
  122MOL   C27046492   5.688   2.049   5.779  0.2685 -0.0748  0.6472
  122MOL   C27146493   5.798   2.135   5.850 -0.0497 -0.5304 -0.7150
  122MOL   C27246494   5.942   2.077   5.839 -0.4655 -0.6354 -0.1063
  122MOL   C27346495   6.050   2.168   5.900  0.3868 -0.2048  0.0089
  122MOL   O27446496   5.507   2.038   5.922 -0.2740 -0.2538 -0.2748
  122MOL   H27546497   5.505   2.072   5.599 -2.2137 -0.4802 -1.6606
  122MOL   H27646498   5.458   1.938   5.700 -0.5753  0.6775 -1.5398
  122MOL   H27746499   5.553   2.212   5.801  3.3950  1.4597 -1.8591
  122MOL   H27846500   5.693   1.945   5.810  0.3711 -0.9992 -2.2919
  122MOL   H27946501   5.711   2.052   5.672  1.6394 -0.4497  0.9238
  122MOL   H28046502   5.790   2.241   5.824 -1.2322 -0.9572 -2.1376
  122MOL   H28146503   5.791   2.137   5.959  1.2995 -0.9285 -0.6148
  122MOL   H28246504   5.947   1.979   5.886  0.8713  0.0486  1.2412
  122MOL   H28346505   5.965   2.050   5.736 -2.1332  0.2705 -0.7367
  122MOL   H28446506   6.070   2.250   5.833 -0.1978 -0.2595 -0.2354
  122MOL   H28546507   6.019   2.199   6.000  2.9117  1.3848  0.3505
  122MOL   H28646508   6.141   2.108   5.913  0.6753  0.0971 -0.6428
  122MOL   C28746509   5.440   2.119   6.018 -0.3296 -0.2487  0.3935
  122MOL   C28846510   5.442   2.037   6.150 -0.3803 -0.5769  0.0850
  122MOL   C28946511   5.330   2.082   6.252 -0.6583  0.1381 -0.7713
  122MOL   C29046512   5.345   2.003   6.393 -0.3457  0.0023  0.2513
  122MOL   C29146513   5.216   2.015   6.477  0.1799  0.3570 -1.0560
  122MOL   C29246514   5.236   2.021   6.631 -0.2231  1.4195 -0.4436
  122MOL   O29346515   5.557   2.066   6.221  0.5702  0.6147  0.3165
  122MOL   H29446516   5.342   2.148   5.980 -0.0970  0.9970  0.7220
  122MOL   H29546517   5.490   2.213   6.039 -0.7170 -0.1994  1.0992
  122MOL   H29646518   5.435   1.929   6.134  1.0325 -0.7872  0.7678
  122MOL   H29746519   5.321   2.188   6.278 -1.2154 -0.4233  1.4128
  122MOL   H29846520   5.234   2.061   6.205 -0.5581 -0.9355 -0.5076
  122MOL   H29946521   5.381   1.901   6.379  2.5495  1.1068 -0.6441
  122MOL   H30046522   5.419   2.053   6.455 -0.4803 -0.5783  0.8895
  122MOL   H30146523   5.138   1.946   6.445  0.7500 -0.9623  0.3466
  122MOL   H30246524   5.176   2.116   6.467  1.1775  0.8961  0.2629
  122MOL   H30346525   5.320   2.086   6.656 -1.2246  3.3702 -2.0261
  122MOL   H30446526   5.149   2.037   6.694 -0.7612 -0.8081 -0.6006
  122MOL   H30546527   5.267   1.924   6.671  0.6148  0.5830 -2.9957
  122MOL   C30646528   5.662   1.963   6.192 -0.1433 -0.1118  0.0136
  122MOL   C30746529   5.794   2.006   6.255  0.2025  0.6108 -1.2262
  122MOL   C30846530   5.914   1.921   6.210 -0.2475  0.0191  0.4079
  122MOL   C30946531   6.058   1.981   6.234  0.2623 -0.4059  0.2139
  122MOL   C31046532   6.165   1.903   6.154  0.8756  0.7262  0.6735
  122MOL   C31146533   6.307   1.953   6.180  0.0079  0.2268  0.5078
  122MOL   O31246534   5.789   1.992   6.395  0.2812 -0.0817 -0.0056
  122MOL   H31346535   5.640   1.856   6.203  1.2444 -0.3165  0.8654
  122MOL   H31446536   5.675   1.970   6.084  0.2364  0.7131  0.1146
  122MOL   H31546537   5.809   2.111   6.232  0.3879  0.7442 -0.5087
  122MOL   H31646538   5.907   1.903   6.103  1.2090 -1.6248  0.5661
  122MOL   H31746539   5.920   1.821   6.252  0.7173 -0.2743 -0.4133
  122MOL   H31846540   6.057   2.087   6.206 -0.2210 -0.4322  0.1269
  122MOL   H31946541   6.078   1.992   6.341  1.3938  0.9011 -0.1141
  122MOL   H32046542   6.149   1.906   6.046  3.3342  4.5658  0.3200
  122MOL   H32146543   6.165   1.794   6.167 -2.1556  0.1706 -3.1637
  122MOL   H32246544   6.347   1.916   6.274  1.6768  0.9701  0.1044
  122MOL   H32346545   6.374   1.934   6.095 -0.8266 -1.0724  0.1291
  122MOL   H32446546   6.314   2.062   6.170  0.9159  0.2933  1.7647
  122MOL   C32546547   5.743   2.104   6.472  0.0994 -0.3804 -1.0006
  122MOL   C32646548   5.738   2.061   6.614 -0.5414 -0.3244 -0.4444
  122MOL   C32746549   5.642   2.141   6.699 -0.3250 -0.1305 -0.0250
  122MOL   C32846550   5.631   2.091   6.842 -0.1053  0.1739  0.1180
  122MOL   C32946551   5.525   2.165   6.934 -1.1599  0.5084  0.3781
  122MOL   C33046552   5.538   2.132   7.084 -0.1671 -0.2198 -0.0695
  122MOL   O33146553   5.866   2.059   6.685 -0.0540  0.0146  0.4743
  122MOL   H33246554   5.640   2.128   6.446  0.1255  2.4242  1.2026
  122MOL   H33346555   5.813   2.183   6.444 -1.2775  0.7405 -1.3413
  122MOL   H33446556   5.680   1.969   6.617 -2.5531  0.8794 -1.7321
  122MOL   H33546557   5.668   2.247   6.708 -2.2742  0.2210  1.9653
  122MOL   H33646558   5.542   2.136   6.655 -0.9638  0.1459  1.3671
  122MOL   H33746559   5.605   1.989   6.817 -0.2337  0.5834 -1.5096
  122MOL   H33846560   5.730   2.097   6.888  1.5735 -2.0390 -2.9855
  122MOL   H33946561   5.545   2.272   6.927  1.7721  0.0187  0.7600
  122MOL   H34046562   5.419   2.147   6.913 -1.0148  1.2362 -0.9951
  122MOL   H34146563   5.454   2.171   7.142 -0.3344  0.7684 -0.9564
  122MOL   H34246564   5.534   2.024   7.097 -2.1291 -0.2487 -0.7778
  122MOL   H34346565   5.634   2.163   7.125 -0.5998  1.5993 -0.3949
  122MOL   C34446566   5.951   1.951   6.642  0.1898  0.0825  0.2907
  122MOL   C34546567   6.065   1.929   6.744 -0.2154 -0.0897  0.1067
  122MOL   C34646568   6.149   2.054   6.780  0.3520 -0.1975  0.1806
  122MOL   C34746569   6.222   2.122   6.664  0.2009 -0.7761 -0.3513
  122MOL   C34846570   6.327   2.228   6.694  0.0412  0.6389 -0.1643
  122MOL   C34946571   6.392   2.273   6.565 -0.1654  0.0916 -0.3392
  122MOL   O35046572   6.028   1.846   6.850 -0.3709 -0.1183 -0.0632
  122MOL   H35146573   5.990   1.976   6.543  0.0791  1.6748  0.6394
  122MOL   H35246574   5.885   1.864   6.635 -1.3646  1.2085  0.8302
  122MOL   H35346575   6.140   1.865   6.696  1.3576  0.6375  1.5300
  122MOL   H35446576   6.223   2.026   6.855 -0.4574  0.1973  1.1314
  122MOL   H35546577   6.084   2.123   6.832 -1.5114 -1.1183 -0.8827
  122MOL   H35646578   6.156   2.159   6.586  0.2345 -1.5258 -0.7443
  122MOL   H35746579   6.267   2.037   6.612 -0.4346 -1.3254 -0.0133
  122MOL   H35846580   6.405   2.177   6.751 -0.8501  1.3842  1.7890
  122MOL   H35946581   6.292   2.311   6.756  0.2533  0.6787 -0.0965
  122MOL   H36046582   6.307   2.314   6.511 -0.5267 -0.7413 -0.4073
  122MOL   H36146583   6.446   2.201   6.504 -0.4932 -1.6808  1.3965
  122MOL   H36246584   6.470   2.344   6.593 -1.5176  1.1316  0.8901
  122MOL   C36346585   5.919   1.894   6.924 -0.0858 -0.1183 -0.9767
  122MOL   C36446586   5.915   1.798   7.053 -0.6007 -0.1792  0.9399
  122MOL   C36546587   5.802   1.835   7.146 -0.0772  0.4602  1.1161
  122MOL   C36646588   5.777   1.735   7.269  0.1760  1.0268  0.1278
  122MOL   C36746589   5.648   1.759   7.350  0.2068  0.0100  0.1978
  122MOL   C36846590   5.672   1.867   7.456  0.0313 -1.2791  0.3442
  122MOL   O36946591   5.908   1.667   7.009 -0.4769  0.5100  0.8944
  122MOL   H37046592   5.820   1.875   6.883 -0.8211  0.3768  0.5167
  122MOL   H37146593   5.933   1.998   6.956  2.1619 -0.9163  0.7962
  122MOL   H37246594   6.013   1.793   7.101 -1.8392 -2.0543  3.3679
  122MOL   H37346595   5.800   1.936   7.187 -1.6591  0.0311  2.1779
  122MOL   H37446596   5.708   1.838   7.091 -0.4145 -0.2666  1.6350
  122MOL   H37546597   5.781   1.632   7.234  0.3406  1.7358 -2.0639
  122MOL   H37646598   5.868   1.747   7.328  1.0341 -0.3190 -0.8843
  122MOL   H37746599   5.568   1.797   7.287  0.7511  0.3404 -0.2944
  122MOL   H37846600   5.622   1.665   7.399 -0.7932  0.7405  1.0952
  122MOL   H37946601   5.708   1.961   7.414  2.1785 -2.6072 -0.8328
  122MOL   H38046602   5.589   1.894   7.521 -0.9101  0.4523 -1.4992
  122MOL   H38146603   5.742   1.830   7.530 -0.6109  1.1345  2.2449
  122MOL   H38246604   5.938   1.662   6.919  0.7688  2.5334  1.1630
  123MOL     C146605   4.367   3.457   2.774  0.2951 -0.2920 -0.2451
  123MOL     C246606   4.423   3.430   2.636  0.0852  0.1475 -0.6515
  123MOL     C346607   4.341   3.316   2.561  0.3439 -0.3963  0.7236
  123MOL     C446608   4.409   3.267   2.435 -0.0908  1.0279 -0.0202
  123MOL     C546609   4.370   3.135   2.386  0.3781  0.1652  0.6608
  123MOL     C646610   4.415   3.099   2.248  0.5933  0.1527 -0.5492
  123MOL     O746611   4.418   3.544   2.549  0.3742 -0.5112 -0.5691
  123MOL     H846612   4.412   3.545   2.820 -0.9371 -0.1981  0.7902
  123MOL     H946613   4.373   3.364   2.830 -2.2269 -0.8355 -0.8087
  123MOL    H1046614   4.524   3.390   2.650 -0.0268 -0.1944 -0.8234
  123MOL    H1146615   4.331   3.228   2.625 -0.5497 -1.8754 -1.3737
  123MOL    H1246616   4.237   3.338   2.537  0.5521  1.0722  1.1186
  123MOL    H1346617   4.397   3.346   2.362 -0.7492 -0.2779 -1.3432
  123MOL    H1446618   4.517   3.271   2.450 -0.1464  1.7552  0.1727
  123MOL    H1546619   4.413   3.063   2.456  0.0462 -0.1394  0.5560
  123MOL    H1646620   4.263   3.113   2.394  0.4035 -0.1973  0.0200
  123MOL    H1746621   4.522   3.119   2.249  0.9159 -1.5073  1.3484
  123MOL    H1846622   4.411   2.993   2.222  1.7374 -0.1073  0.2985
  123MOL    H1946623   4.366   3.143   2.161 -2.0289 -1.7563 -0.0907
  123MOL    H2046624   4.262   3.482   2.764  0.1031 -0.9656  0.0627
  123MOL    C2146625   4.540   3.612   2.545  0.4459 -0.9999 -0.2728
  123MOL    C2246626   4.530   3.760   2.491  0.0419  0.9665  0.5786
  123MOL    C2346627   4.645   3.848   2.546  0.3651 -0.1391  0.2127
  123MOL    C2446628   4.647   3.988   2.509  0.5108 -0.2228 -0.1120
  123MOL    C2546629   4.767   4.065   2.565 -0.1228 -1.0555 -0.3084
  123MOL    C2646630   4.791   4.052   2.719 -0.6700 -0.1394 -0.9733
  123MOL    O2746631   4.556   3.755   2.354 -0.0501 -0.4003 -0.4518
  123MOL    H2846632   4.569   3.627   2.649  2.9171 -0.2480 -1.0537
  123MOL    H2946633   4.604   3.555   2.478  1.0061 -0.1341 -0.4733
  123MOL    H3046634   4.431   3.797   2.516 -1.4208 -3.2007  1.2510
  123MOL    H3146635   4.745   3.809   2.531  0.4138 -0.4951  1.3972
  123MOL    H3246636   4.631   3.859   2.654 -2.0755 -0.8647  0.0192
  123MOL    H3346637   4.559   4.048   2.536 -0.2732 -0.9251 -1.0575
  123MOL    H3446638   4.650   3.997   2.400 -0.6348 -0.0290 -0.1407
  123MOL    H3546639   4.859   4.052   2.508 -0.1160  0.6637 -0.7323
  123MOL    H3646640   4.742   4.171   2.553 -1.8955 -1.4131  0.0229
  123MOL    H3746641   4.828   3.955   2.753 -2.2765 -0.5098 -0.2298
  123MOL    H3846642   4.700   4.073   2.776  0.0319  2.8549 -0.8742
  123MOL    H3946643   4.861   4.129   2.752 -0.1005 -0.8597 -0.4946
  123MOL    C4046644   4.439   3.759   2.274 -0.0664 -0.3946 -0.0470
  123MOL    C4146645   4.482   3.731   2.125  0.0662  0.1362  0.2061
  123MOL    C4246646   4.554   3.596   2.116 -0.1879  0.1639  0.0455
  123MOL    C4346647   4.593   3.552   1.975  0.1476 -0.2984 -0.3206
  123MOL    C4446648   4.665   3.414   1.982 -0.1440  0.2253 -0.0636
  123MOL    C4546649   4.799   3.419   2.025  0.7288  0.1412  0.3207
  123MOL    O4646650   4.574   3.822   2.065 -0.0001 -0.6395 -0.4250
  123MOL    H4746651   4.395   3.859   2.286  0.8202  0.1840 -1.5348
  123MOL    H4846652   4.362   3.687   2.302 -0.3445  0.0798  0.4287
  123MOL    H4946653   4.393   3.722   2.062  0.1747 -1.2545  0.2290
  123MOL    H5046654   4.637   3.596   2.187  0.8454  0.3957 -1.1452
  123MOL    H5146655   4.477   3.523   2.142  1.3555 -2.1843 -1.8288
  123MOL    H5246656   4.657   3.625   1.925 -1.2902 -0.1788 -2.0232
  123MOL    H5346657   4.508   3.554   1.907 -0.9886  0.0978  1.0824
  123MOL    H5446658   4.615   3.337   2.040  0.0770 -0.4775 -0.7927
  123MOL    H5546659   4.668   3.373   1.881 -2.8090 -0.4758  0.0924
  123MOL    H5646660   4.859   3.485   1.962 -0.5902  0.2416 -0.8742
  123MOL    H5746661   4.814   3.462   2.124  0.5050 -0.0626  0.4457
  123MOL    H5846662   4.829   3.315   2.030  1.0521  0.0013 -3.2725
  123MOL    C5946663   4.506   3.931   2.013  0.3250 -0.2699  0.0860
  123MOL    C6046664   4.602   4.006   1.922 -0.0588  0.5204 -0.8614
  123MOL    C6146665   4.542   4.137   1.873 -0.2565 -0.6194 -0.2117
  123MOL    C6246666   4.626   4.223   1.781  0.3153 -0.5841  0.0764
  123MOL    C6346667   4.563   4.349   1.733  0.8868 -0.2233 -0.2468
  123MOL    C6446668   4.555   4.468   1.833 -0.7920  0.0710  0.3280
  123MOL    O6546669   4.722   4.038   1.998  0.3921 -0.4691 -0.5370
  123MOL    H6646670   4.460   4.002   2.082 -1.6799 -0.5926 -0.9044
  123MOL    H6746671   4.416   3.906   1.958  0.5917 -0.6782 -0.1707
  123MOL    H6846672   4.619   3.943   1.834  0.0143 -0.9504  0.1938
  123MOL    H6946673   4.504   4.195   1.957 -0.1878 -0.6739 -0.1447
  123MOL    H7046674   4.453   4.110   1.817 -1.7561 -1.2436  2.4079
  123MOL    H7146675   4.650   4.177   1.686 -2.3176 -0.6791 -0.5586
  123MOL    H7246676   4.728   4.243   1.817 -0.3229  2.1423  0.5201
  123MOL    H7346677   4.459   4.334   1.704  0.8734  3.2171 -2.2832
  123MOL    H7446678   4.614   4.379   1.642 -0.8649  0.5540 -1.0019
  123MOL    H7546679   4.492   4.443   1.918 -1.3285  0.0059 -0.0831
  123MOL    H7646680   4.656   4.484   1.870 -0.7763  1.9659 -0.4717
  123MOL    H7746681   4.531   4.561   1.782 -1.9531 -0.7270 -0.6049
  123MOL    C7846682   4.836   3.953   1.971  0.1949 -0.1758 -0.0978
  123MOL    C7946683   4.930   3.950   2.093  0.9863  0.1227 -0.1665
  123MOL    C8046684   5.023   4.065   2.108 -0.4170 -0.2298  0.5842
  123MOL    C8146685   5.120   4.036   2.227  0.7306  0.2319 -0.0152
  123MOL    C8246686   5.214   4.151   2.270 -0.0140  0.3740  0.2562
  123MOL    C8346687   5.325   4.112   2.364 -0.3686 -0.0343  0.1505
  123MOL    O8446688   5.023   3.835   2.081 -0.1498  0.3108 -0.1778
  123MOL    H8546689   4.890   3.987   1.882  0.2442  1.1422  0.4247
  123MOL    H8646690   4.793   3.854   1.972  2.6575 -1.2843 -0.4545
  123MOL    H8746691   4.875   3.936   2.186  0.8394 -2.6414 -0.6308
  123MOL    H8846692   5.075   4.063   2.012  1.5281  0.7243  1.5826
  123MOL    H8946693   4.973   4.161   2.095 -0.8902 -0.7455 -1.6512
  123MOL    H9046694   5.188   3.953   2.207 -0.6762 -1.0145  0.2911
  123MOL    H9146695   5.058   3.999   2.308  1.1175 -0.3280  0.0271
  123MOL    H9246696   5.246   4.189   2.173  1.1400 -0.6810  0.2096
  123MOL    H9346697   5.161   4.239   2.307  0.4927  0.3464  1.0362
  123MOL    H9446698   5.408   4.180   2.379 -1.2863  1.5005 -1.5286
  123MOL    H9546699   5.367   4.017   2.332 -1.4071 -0.3618 -0.2799
  123MOL    H9646700   5.278   4.088   2.459 -2.4089 -2.8888 -1.4689
  123MOL    C9746701   4.969   3.717   2.131 -0.1081 -0.8268  0.2671
  123MOL    C9846702   5.010   3.703   2.279  0.7504  0.4642  0.0858
  123MOL    C9946703   4.923   3.601   2.346 -0.7770  0.2932 -0.4380
  123MOL   C10046704   4.956   3.584   2.497 -0.2180  0.9645 -0.0039
  123MOL   C10146705   4.877   3.467   2.567 -0.1843 -0.0134 -0.0328
  123MOL   C10246706   4.872   3.343   2.471  0.8608  0.7551 -0.3084
  123MOL   O10346707   5.134   3.628   2.289  0.1832 -0.3024  0.4527
  123MOL   H10446708   5.009   3.633   2.074 -1.8210 -1.2986 -0.2760
  123MOL   H10546709   4.861   3.713   2.117 -0.0559 -0.6935 -0.1723
  123MOL   H10646710   5.011   3.793   2.340  1.0399 -0.1437  0.9862
  123MOL   H10746711   4.944   3.504   2.302 -1.2294  0.7051 -1.5647
  123MOL   H10846712   4.817   3.613   2.328 -0.8659  0.6115  0.2557
  123MOL   H10946713   4.933   3.677   2.548 -1.0349  0.3987  0.6853
  123MOL   H11046714   5.063   3.567   2.508 -0.2444  0.4416 -0.5428
  123MOL   H11146715   4.780   3.512   2.589 -0.0267  0.2475  0.1278
  123MOL   H11246716   4.914   3.439   2.666  0.5652  2.2860  0.3666
  123MOL   H11346717   4.818   3.271   2.533  1.8336  1.1996  1.0860
  123MOL   H11446718   4.807   3.370   2.388  0.7225 -0.0194 -0.4516
  123MOL   H11546719   4.966   3.294   2.446 -1.1081 -1.4224 -3.8460
  123MOL   C11646720   5.258   3.698   2.289  0.4656  0.7576  0.1511
  123MOL   C11746721   5.386   3.607   2.286 -0.9109  0.0161 -0.1625
  123MOL   C11846722   5.412   3.556   2.142 -0.1454 -0.2365  0.3160
  123MOL   C11946723   5.554   3.499   2.134 -0.2530 -0.0253 -0.0662
  123MOL   C12046724   5.604   3.472   1.988  0.1429 -0.0010  0.2018
  123MOL   C12146725   5.748   3.421   1.971  0.6671 -0.5223  0.2072
  123MOL   O12246726   5.377   3.510   2.391  0.3937 -0.0218  0.3139
  123MOL   H12346727   5.243   3.764   2.204 -1.9153 -0.3184 -0.3190
  123MOL   H12446728   5.260   3.751   2.385 -2.9590  2.2460 -0.4954
  123MOL   H12546729   5.459   3.685   2.311  0.5956 -1.3994 -0.0337
  123MOL   H12646730   5.330   3.486   2.124 -0.5376  0.3003 -0.0192
  123MOL   H12746731   5.394   3.633   2.067 -0.3948 -0.5915  0.0138
  123MOL   H12846732   5.562   3.408   2.192 -1.1997  1.3907  2.3214
  123MOL   H12946733   5.624   3.568   2.181 -0.2146  1.1145 -1.7093
  123MOL   H13046734   5.538   3.405   1.933 -0.2080  0.4145  0.1178
  123MOL   H13146735   5.586   3.572   1.948 -1.7151 -0.0195  0.9851
  123MOL   H13246736   5.822   3.480   2.025  0.4948 -0.1393  0.0229
  123MOL   H13346737   5.755   3.317   2.004  1.4116 -0.6234 -0.2722
  123MOL   H13446738   5.778   3.425   1.867  1.2996 -1.1010  0.3691
  123MOL   C13546739   5.385   3.552   2.527  0.4846  0.3201  0.3009
  123MOL   C13646740   5.387   3.425   2.617  0.0173 -0.4923  0.4026
  123MOL   C13746741   5.249   3.366   2.648 -0.0926 -0.0187  0.4967
  123MOL   C13846742   5.246   3.214   2.693  0.3057  0.0334 -0.4182
  123MOL   C13946743   5.107   3.161   2.724 -0.5416 -0.4400 -0.2633
  123MOL   C14046744   5.114   3.019   2.758  0.1124  0.2601 -0.5241
  123MOL   O14146745   5.443   3.455   2.750 -0.0358 -0.7013  0.3951
  123MOL   H14246746   5.487   3.590   2.530  0.2718  0.9266 -0.1246
  123MOL   H14346747   5.312   3.626   2.558 -1.3497 -1.0154 -0.7407
  123MOL   H14446748   5.441   3.350   2.559 -1.3260 -0.5403 -0.8078
  123MOL   H14546749   5.189   3.426   2.717  0.8649 -0.4734  1.7497
  123MOL   H14646750   5.201   3.377   2.551  0.7501 -1.0028 -0.0500
  123MOL   H14746751   5.297   3.209   2.790 -3.5404 -2.1680  1.6031
  123MOL   H14846752   5.285   3.135   2.629 -0.6315 -1.4039  0.7605
  123MOL   H14946753   5.035   3.173   2.643  1.1942 -0.0339 -1.7717
  123MOL   H15046754   5.063   3.215   2.808 -1.3012 -2.7776  0.8971
  123MOL   H15146755   5.120   2.967   2.663  1.0835  0.6954 -0.6986
  123MOL   H15246756   5.193   2.991   2.827 -0.5931 -0.0525  0.1680
  123MOL   H15346757   5.026   2.982   2.811 -0.7511 -0.1832 -2.2157
  123MOL   C15446758   5.585   3.461   2.761  0.4695  0.5843  0.2763
  123MOL   C15546759   5.629   3.480   2.909 -0.2186 -0.2659 -0.0791
  123MOL   C15646760   5.782   3.445   2.941 -0.2430  0.1420 -0.1510
  123MOL   C15746761   5.881   3.545   2.881  0.2312 -0.4684  0.6431
  123MOL   C15846762   6.024   3.494   2.889  0.0226  0.7484 -0.4703
  123MOL   C15946763   6.108   3.589   2.805 -0.1864  0.1236  0.1317
  123MOL   O16046764   5.624   3.605   2.959 -0.9711  0.5271  0.1821
  123MOL   H16146765   5.628   3.537   2.695  1.3908 -0.8445 -0.7856
  123MOL   H16246766   5.619   3.363   2.727  0.5758  0.7067  0.0241
  123MOL   H16346767   5.577   3.404   2.968 -0.5598 -1.7262 -2.2048
  123MOL   H16446768   5.813   3.344   2.916  0.1561  0.9601 -3.2080
  123MOL   H16546769   5.803   3.452   3.048 -1.5113  1.0715  0.0510
  123MOL   H16646770   5.867   3.645   2.922  1.1565 -0.4543  0.9430
  123MOL   H16746771   5.853   3.561   2.777 -1.4280  0.5552  1.2358
  123MOL   H16846772   6.052   3.500   2.994  1.3843 -0.0231 -0.7727
  123MOL   H16946773   6.017   3.390   2.855  1.3032  1.1867 -2.1516
  123MOL   H17046774   6.076   3.690   2.779  0.7753  0.8819  1.7873
  123MOL   H17146775   6.109   3.550   2.703 -0.8911 -3.0169  1.2773
  123MOL   H17246776   6.211   3.603   2.839  0.4706 -1.9807 -0.9121
  123MOL   C17346777   5.493   3.653   2.967  0.6996 -0.4223 -1.2254
  123MOL   C17446778   5.481   3.754   3.080  0.0094 -1.1200  0.1367
  123MOL   C17546779   5.541   3.697   3.204 -0.8816 -0.2885 -0.4509
  123MOL   C17646780   5.524   3.788   3.324 -0.0394  0.2737 -0.1545
  123MOL   C17746781   5.540   3.722   3.461  0.3903 -1.0279 -0.3624
  123MOL   C17846782   5.519   3.805   3.593  0.1509 -1.0052  0.0077
  123MOL   O17946783   5.538   3.878   3.030  0.3406  0.4076  0.6016
  123MOL   H18046784   5.417   3.575   2.974  1.2525 -0.8014  0.8994
  123MOL   H18146785   5.469   3.707   2.875  0.9136 -0.0660 -1.0717
  123MOL   H18246786   5.376   3.775   3.099  0.8600  3.1576  0.6638
  123MOL   H18346787   5.491   3.602   3.221  1.6788 -2.0160 -2.1579
  123MOL   H18446788   5.645   3.669   3.193 -0.9441 -0.0572 -1.8218
  123MOL   H18546789   5.600   3.864   3.308 -0.1003  1.1224  3.3099
  123MOL   H18646790   5.425   3.832   3.319 -0.2775  0.4451  4.3147
  123MOL   H18746791   5.465   3.643   3.461  0.9719 -1.5814 -0.9045
  123MOL   H18846792   5.638   3.675   3.458  0.5787 -0.7023  0.4978
  123MOL   H18946793   5.419   3.848   3.600  0.4808 -0.5135  1.9915
  123MOL   H19046794   5.598   3.879   3.603  0.7410 -1.4689 -1.0995
  123MOL   H19146795   5.531   3.750   3.686 -0.4480 -2.0639 -0.5311
  123MOL   C19246796   5.683   3.894   3.026 -0.2900 -0.3696  0.0820
  123MOL   C19346797   5.730   4.037   2.986 -0.2755 -1.1623  0.0078
  123MOL   C19446798   5.869   4.039   2.920  0.1803  0.0655 -0.2729
  123MOL   C19546799   5.911   4.186   2.885  0.3697 -0.3958 -0.6000
  123MOL   C19646800   6.029   4.182   2.803 -0.4100 -0.0355  0.2476
  123MOL   C19746801   6.168   4.183   2.874  0.1663  0.7023  0.0424
  123MOL   O19846802   5.755   4.123   3.100  0.2435 -0.6283  0.3561
  123MOL   H19946803   5.734   3.883   3.122 -1.2014  0.4263  0.6742
  123MOL   H20046804   5.716   3.825   2.948  0.4697 -1.7722  1.6011
  123MOL   H20146805   5.662   4.087   2.916  2.4564 -1.3983 -2.9347
  123MOL   H20246806   5.935   3.986   2.988 -0.4597 -0.1947  0.1543
  123MOL   H20346807   5.864   3.973   2.834  1.6207  0.5565 -0.7498
  123MOL   H20446808   5.924   4.242   2.977  1.2346  4.1715 -3.3565
  123MOL   H20546809   5.826   4.231   2.834  0.2286 -0.0913 -0.0963
  123MOL   H20646810   6.030   4.095   2.738  0.2808 -1.9170  2.6968
  123MOL   H20746811   6.029   4.265   2.732  0.1686  0.7502  1.1537
  123MOL   H20846812   6.243   4.207   2.798  0.9884 -0.4303  0.4803
  123MOL   H20946813   6.177   4.262   2.948  2.9893  1.7299 -1.3093
  123MOL   H21046814   6.191   4.083   2.912  0.7170  1.1725  0.9739
  123MOL   C21146815   5.632   4.160   3.169  0.3848  0.6769  0.0098
  123MOL   C21246816   5.668   4.256   3.284  0.1702  0.1896  0.2231
  123MOL   C21346817   5.714   4.390   3.224  0.6054  0.4333  0.1196
  123MOL   C21446818   5.741   4.492   3.345 -0.4835 -0.5510 -0.3942
  123MOL   C21546819   5.814   4.621   3.303 -0.2163 -0.9058 -0.2042
  123MOL   C21646820   5.872   4.717   3.411 -0.0809  0.4300 -0.2194
  123MOL   O21746821   5.781   4.205   3.354  0.1882  0.1857 -0.4149
  123MOL   H21846822   5.588   4.068   3.206 -3.4948  1.9443 -1.2046
  123MOL   H21946823   5.569   4.211   3.096  0.6952  1.8548  0.5368
  123MOL   H22046824   5.582   4.272   3.349  1.3821  2.8466  1.2655
  123MOL   H22146825   5.805   4.366   3.169  0.7975 -0.7521  0.9601
  123MOL   H22246826   5.637   4.432   3.159  0.9940  1.3654  0.2390
  123MOL   H22346827   5.654   4.521   3.404 -0.2589  1.7369 -1.1535
  123MOL   H22446828   5.814   4.449   3.414 -0.4974 -1.8190 -1.1405
  123MOL   H22546829   5.896   4.592   3.237  0.7260  0.6094  0.2710
  123MOL   H22646830   5.744   4.688   3.253 -0.4932  0.7604  2.3593
  123MOL   H22746831   5.811   4.728   3.501  2.6943 -0.2651  1.8164
  123MOL   H22846832   5.908   4.807   3.362 -0.7118  0.0090 -1.4686
  123MOL   H22946833   5.966   4.682   3.452  0.4727  0.7602 -1.2101
  123MOL   C23046834   5.773   4.080   3.418  0.8632 -0.6253 -0.1223
  123MOL   C23146835   5.871   4.091   3.535 -0.4260 -0.7014 -0.0207
  123MOL   C23246836   5.922   3.954   3.579 -0.3348 -0.1794  0.0844
  123MOL   C23346837   6.038   3.979   3.685  0.0610  0.2705 -0.1098
  123MOL   C23446838   6.087   3.842   3.733  0.8619  0.7750 -0.2996
  123MOL   C23546839   5.986   3.771   3.824  0.3417  0.7376  0.1011
  123MOL   O23646840   5.802   4.141   3.649  0.1463  0.2494  0.0137
  123MOL   H23746841   5.671   4.056   3.447  0.8269 -0.1696  0.1262
  123MOL   H23846842   5.810   4.005   3.348 -0.5538 -0.3589 -1.1817
  123MOL   H23946843   5.952   4.159   3.506  0.9705 -1.9772  0.8192
  123MOL   H24046844   5.947   3.904   3.485 -1.4046  0.9380 -0.8242
  123MOL   H24146845   5.843   3.891   3.620 -0.1952 -0.0711  0.5135
  123MOL   H24246846   5.995   4.027   3.773 -2.0947 -1.1595 -0.3606
  123MOL   H24346847   6.128   4.034   3.655  0.4848  0.3453  1.2600
  123MOL   H24446848   6.115   3.778   3.650  1.1662  1.2844 -0.5952
  123MOL   H24546849   6.174   3.868   3.794  0.8248  1.5010 -0.5537
  123MOL   H24646850   5.970   3.837   3.909 -2.2363  0.1504  0.1062
  123MOL   H24746851   6.033   3.677   3.852 -0.8208  0.5120  1.3139
  123MOL   H24846852   5.896   3.735   3.775  0.2446  0.7181  0.2982
  123MOL   C24946853   5.764   4.275   3.642  0.3961  0.1787  0.0192
  123MOL   C25046854   5.702   4.329   3.773  0.4086 -0.7555  0.1856
  123MOL   C25146855   5.558   4.272   3.798 -1.1884 -0.4833 -0.4079
  123MOL   C25246856   5.494   4.308   3.934 -0.1744 -0.3790  0.1318
  123MOL   C25346857   5.365   4.233   3.967  0.1865 -0.1412  0.1068
  123MOL   C25446858   5.331   4.236   4.119 -0.2321  0.4734 -0.1652
  123MOL   O25546859   5.682   4.471   3.767  0.2861  0.6955 -0.1750
  123MOL   H25646860   5.852   4.331   3.612  0.3288  0.8579  1.0443
  123MOL   H25746861   5.697   4.287   3.557 -0.4129  3.3104  1.0030
  123MOL   H25846862   5.761   4.307   3.862 -0.2694  1.7752  1.2882
  123MOL   H25946863   5.491   4.294   3.715 -0.4819  1.7802 -0.4080
  123MOL   H26046864   5.568   4.163   3.799  1.6615 -0.2627  1.7096
  123MOL   H26146865   5.564   4.284   4.014 -0.5962 -1.5603  0.1492
  123MOL   H26246866   5.476   4.415   3.938 -0.5216 -0.4828  1.3303
  123MOL   H26346867   5.283   4.279   3.911 -0.2583 -0.5337  0.4260
  123MOL   H26446868   5.384   4.131   3.933  1.2633  0.5343 -1.3585
  123MOL   H26546869   5.330   4.337   4.159  0.5740  0.5989 -0.4460
  123MOL   H26646870   5.402   4.167   4.165 -1.9987 -1.0247  0.3629
  123MOL   H26746871   5.239   4.180   4.133  0.3580 -0.9657 -1.8431
  123MOL   C26846872   5.797   4.552   3.796 -0.3206  0.0647  0.8055
  123MOL   C26946873   5.776   4.710   3.783  0.2631  1.0450  0.8393
  123MOL   C27046874   5.910   4.778   3.757  0.2898 -0.1104  0.0806
  123MOL   C27146875   5.892   4.927   3.725  0.4687 -0.2835 -0.0288
  123MOL   C27246876   6.021   5.016   3.716  0.1670 -0.4522  0.1922
  123MOL   C27346877   6.080   5.046   3.853 -0.3055  0.1153 -0.3750
  123MOL   O27446878   5.726   4.758   3.911  0.0922  0.1795  0.0581
  123MOL   H27546879   5.872   4.523   3.722  1.6906 -1.6328  3.4224
  123MOL   H27646880   5.855   4.536   3.887  0.7296 -1.3060 -0.0721
  123MOL   H27746881   5.708   4.726   3.700 -2.3703  0.8831  2.8962
  123MOL   H27846882   5.964   4.764   3.851 -0.5123 -0.6062  0.4720
  123MOL   H27946883   5.957   4.724   3.675 -0.4919 -2.1658  0.9496
  123MOL   H28046884   5.840   4.947   3.632  1.1499  2.2237  0.0848
  123MOL   H28146885   5.823   4.967   3.800 -0.5805  0.9960 -1.6344
  123MOL   H28246886   6.094   4.968   3.652  1.2985  0.3113  0.9004
  123MOL   H28346887   5.999   5.108   3.663 -2.2329 -0.9275  0.2711
  123MOL   H28446888   6.122   4.958   3.902 -0.0346 -0.4426 -1.6099
  123MOL   H28546889   6.175   5.100   3.844  0.4298 -1.0702  0.1590
  123MOL   H28646890   6.018   5.099   3.926  0.8680  2.0160 -0.7246
  123MOL   C28746891   5.590   4.729   3.944 -0.0199 -0.2159 -0.0654
  123MOL   C28846892   5.572   4.746   4.100 -0.2801  0.1098 -0.4912
  123MOL   C28946893   5.658   4.637   4.173  0.0612 -0.1241  0.5997
  123MOL   C29046894   5.679   4.674   4.321 -0.3164  0.4667  1.0229
  123MOL   C29146895   5.755   4.567   4.402 -1.0488 -0.5314  0.0172
  123MOL   C29246896   5.758   4.596   4.548 -0.3429  0.7352  0.2061
  123MOL   O29346897   5.439   4.712   4.141  0.1299 -0.2491  0.2384
  123MOL   H29446898   5.578   4.625   3.914  3.0521 -1.2314  1.9267
  123MOL   H29546899   5.509   4.768   3.882 -1.7119 -1.5781  1.2315
  123MOL   H29646900   5.610   4.843   4.134  1.1830 -0.0826 -1.5600
  123MOL   H29746901   5.610   4.540   4.158 -1.1544  0.5899 -0.2793
  123MOL   H29846902   5.755   4.636   4.124 -0.2945  3.2829 -0.3046
  123MOL   H29946903   5.718   4.776   4.328  0.1180  0.4310 -0.6546
  123MOL   H30046904   5.581   4.674   4.369 -0.2020 -1.0422  1.2964
  123MOL   H30146905   5.857   4.572   4.365 -0.6774  0.6185  1.1606
  123MOL   H30246906   5.709   4.468   4.391 -3.7019  0.3841  2.1423
  123MOL   H30346907   5.791   4.507   4.601 -1.1150 -0.3898 -1.1451
  123MOL   H30446908   5.832   4.675   4.558  0.4128  0.0003  0.4144
  123MOL   H30546909   5.668   4.626   4.602 -0.3849  0.9620  0.0123
  123MOL   C30646910   5.336   4.805   4.106  0.5817 -0.2718  0.1832
  123MOL   C30746911   5.220   4.756   4.199 -0.0796 -0.1440 -0.1676
  123MOL   C30846912   5.092   4.816   4.137  0.3290 -0.1080 -0.0708
  123MOL   C30946913   4.968   4.806   4.224 -0.2419  0.6518 -0.2113
  123MOL   C31046914   4.851   4.880   4.161  0.2396 -0.0076  0.1093
  123MOL   C31146915   4.722   4.876   4.246 -0.6222 -0.4730  0.1481
  123MOL   O31246916   5.252   4.811   4.325 -0.1965 -0.2232  0.2493
  123MOL   H31346917   5.362   4.907   4.132  0.6658  0.2812 -1.9554
  123MOL   H31446918   5.307   4.795   4.001 -1.7710 -1.4963  0.9214
  123MOL   H31546919   5.204   4.649   4.200  0.5493 -0.2706 -2.1312
  123MOL   H31646920   5.067   4.769   4.042  1.6637 -0.0222 -0.4665
  123MOL   H31746921   5.119   4.921   4.121  1.6160 -0.0212  2.5031
  123MOL   H31846922   4.946   4.701   4.242 -0.8369  0.6994 -0.6436
  123MOL   H31946923   4.985   4.845   4.324 -0.7174 -0.1070  0.1670
  123MOL   H32046924   4.822   4.834   4.066 -0.8315  1.5456 -0.3343
  123MOL   H32146925   4.875   4.984   4.143 -2.2348  0.7250  0.8882
  123MOL   H32246926   4.734   4.925   4.343 -0.4848 -2.1961  1.0154
  123MOL   H32346927   4.634   4.914   4.194 -1.9985 -1.1845  1.9130
  123MOL   H32446928   4.703   4.771   4.269 -2.0480 -0.6668 -1.7177
  123MOL   C32546929   5.287   4.713   4.429  0.2053 -0.3115  0.2642
  123MOL   C32646930   5.173   4.704   4.527  0.2163 -0.2339  0.0736
  123MOL   C32746931   5.138   4.850   4.582  0.3357 -0.4347 -0.0713
  123MOL   C32846932   5.026   4.851   4.680  0.1542 -0.0929 -0.2488
  123MOL   C32946933   4.890   4.799   4.614  0.2640 -0.3055 -0.0706
  123MOL   C33046934   4.775   4.763   4.715  0.3027 -0.7371  0.0160
  123MOL   O33146935   5.206   4.615   4.636  0.2188 -0.4028  0.9076
  123MOL   H33246936   5.373   4.746   4.487  0.4893  0.4781 -0.5953
  123MOL   H33346937   5.326   4.620   4.387  3.8668  1.1744  0.1502
  123MOL   H33446938   5.093   4.662   4.467  0.2729  1.4673 -1.2260
  123MOL   H33546939   5.224   4.894   4.631 -0.7669  1.5062  0.1852
  123MOL   H33646940   5.105   4.913   4.499  1.7261  2.5664  1.5936
  123MOL   H33746941   5.045   4.788   4.767  1.1961  1.0653  0.3794
  123MOL   H33846942   5.004   4.951   4.718  1.0981 -0.8019  2.3066
  123MOL   H33946943   4.866   4.878   4.543  0.1755  1.2220  1.6289
  123MOL   H34046944   4.910   4.714   4.548 -1.1987 -0.9447  0.2917
  123MOL   H34146945   4.755   4.844   4.785 -2.2698 -2.5038  1.3924
  123MOL   H34246946   4.684   4.738   4.660 -0.9209  2.2705  0.5545
  123MOL   H34346947   4.814   4.674   4.764  0.7822 -0.2001  0.6062
  123MOL   C34446948   5.235   4.478   4.607 -0.2066 -0.1167  0.2498
  123MOL   C34546949   5.238   4.384   4.732 -0.3829 -0.1887 -0.7125
  123MOL   C34646950   5.327   4.419   4.851  0.0003  0.0252 -0.1950
  123MOL   C34746951   5.365   4.302   4.935 -0.5914 -0.4047 -1.2612
  123MOL   C34846952   5.456   4.347   5.052  0.4405 -0.5808 -0.3568
  123MOL   C34946953   5.376   4.429   5.156 -0.3255  0.1986 -0.0919
  123MOL   O35046954   5.112   4.333   4.782 -0.2116  0.0321 -0.2043
  123MOL   H35146955   5.336   4.477   4.566  1.2578  1.8812  3.5206
  123MOL   H35246956   5.171   4.440   4.528  1.2836 -2.3478  0.0807
  123MOL   H35346957   5.290   4.292   4.704  1.2840  0.7946 -0.8925
  123MOL   H35446958   5.274   4.489   4.916 -1.9119 -1.6737  0.1448
  123MOL   H35546959   5.417   4.472   4.819  0.0218  0.3811  0.4548
  123MOL   H35646960   5.417   4.230   4.873  0.0701 -2.7878  1.9449
  123MOL   H35746961   5.278   4.246   4.968 -0.4548  0.2245  0.2393
  123MOL   H35846962   5.534   4.415   5.016  0.1201  0.8301  1.5362
  123MOL   H35946963   5.501   4.257   5.094 -0.9796 -1.0013  0.2863
  123MOL   H36046964   5.296   4.370   5.199 -1.3186  0.7366 -1.1763
  123MOL   H36146965   5.328   4.517   5.111 -2.0173  0.1602  1.6051
  123MOL   H36246966   5.448   4.465   5.229  2.9668 -2.4684 -1.8962
  123MOL   C36346967   5.014   4.433   4.802  0.1391  0.4592  0.5576
  123MOL   C36446968   4.932   4.384   4.926 -0.4065 -0.2234  0.5552
  123MOL   C36546969   4.871   4.242   4.920  0.0178 -1.1755  0.7743
  123MOL   C36646970   4.770   4.230   4.806  0.1536 -0.2353  0.3732
  123MOL   C36746971   4.695   4.099   4.811 -0.2112  0.6807 -0.2445
  123MOL   C36846972   4.599   4.100   4.931 -0.2865 -0.1551  0.3472
  123MOL   O36946973   5.016   4.396   5.035  0.3903 -0.1521  0.2989
  123MOL   H37046974   4.960   4.447   4.708  0.0240 -0.3749  0.4912
  123MOL   H37146975   5.072   4.523   4.822  2.1569 -1.1335  2.0062
  123MOL   H37246976   4.852   4.451   4.957 -0.6843 -1.1945  1.9936
  123MOL   H37346977   4.950   4.171   4.895  2.2062  0.7413  2.0502
  123MOL   H37446978   4.833   4.215   5.019  0.5088 -2.1395  0.7087
  123MOL   H37546979   4.695   4.309   4.812  0.0796 -0.2780  0.0089
  123MOL   H37646980   4.828   4.233   4.714 -0.2968 -1.3814  0.0438
  123MOL   H37746981   4.641   4.089   4.716 -0.3519 -0.0618 -0.0934
  123MOL   H37846982   4.760   4.013   4.826 -0.0037  0.8244 -0.3238
  123MOL   H37946983   4.658   4.121   5.021  1.4569  1.4508 -1.1296
  123MOL   H38046984   4.525   4.179   4.921  0.3896  0.4113 -0.1993
  123MOL   H38146985   4.542   4.008   4.948  0.7859 -1.6334 -3.5304
  123MOL   H38246986   5.095   4.348   5.014  0.1060 -0.2326 -0.6129
  124MOL     C146987   1.928   6.018   4.185 -0.5826  0.0546  0.1569
  124MOL     C246988   1.846   6.086   4.077 -0.9216  0.2790 -0.4208
  124MOL     C346989   1.858   6.015   3.939 -0.4577  0.5359  0.9007
  124MOL     C446990   1.804   5.874   3.955  0.0503  0.7350 -0.0566
  124MOL     C546991   1.771   5.802   3.822  0.2113  0.1330 -0.1331
  124MOL     C646992   1.641   5.854   3.745  0.1286  0.4846 -0.4833
  124MOL     O746993   1.708   6.099   4.110  0.4295  0.7584 -0.3552
  124MOL     H846994   1.955   6.080   4.271  2.1111 -2.3328  1.1194
  124MOL     H946995   2.020   5.975   4.144 -0.8742 -0.2805 -0.1457
  124MOL    H1046996   1.885   6.188   4.069  0.2842 -0.1544 -0.2789
  124MOL    H1146997   1.793   6.079   3.879  0.3004 -0.0196 -0.5507
  124MOL    H1246998   1.961   6.018   3.904 -0.7808  0.1146 -0.1355
  124MOL    H1346999   1.881   5.808   3.996 -0.6561  0.5196  0.9477
  124MOL    H1447000   1.719   5.869   4.023  0.0566  1.4676  0.0138
  124MOL    H1547001   1.853   5.818   3.752  2.0472 -0.6049  1.7931
  124MOL    H1647002   1.756   5.694   3.823 -1.4397  0.3634  0.5582
  124MOL    H1747003   1.559   5.852   3.817  0.2801 -1.2597 -0.3410
  124MOL    H1847004   1.648   5.954   3.702  2.5085  0.6618  0.2237
  124MOL    H1947005   1.618   5.786   3.664 -1.4202  2.3559 -1.6341
  124MOL    H2047006   1.860   5.936   4.206 -0.8908 -0.1227 -1.5029
  124MOL    C2147007   1.677   6.211   4.191  0.0368 -0.4134 -0.1976
  124MOL    C2247008   1.525   6.217   4.224 -0.3025 -0.1886 -0.5099
  124MOL    C2347009   1.435   6.170   4.113 -0.6092 -0.7124 -0.5299
  124MOL    C2447010   1.285   6.157   4.148  0.4773 -0.2155  0.0864
  124MOL    C2547011   1.186   6.155   4.028 -0.0658  0.0210 -0.1279
  124MOL    C2647012   1.044   6.120   4.061  0.2213  0.1290  0.3099
  124MOL    O2747013   1.487   6.127   4.329 -0.2915  0.1431  0.0676
  124MOL    H2847014   1.735   6.213   4.283  1.2815 -0.4967 -0.9771
  124MOL    H2947015   1.696   6.299   4.128  1.8150  0.8055  1.9916
  124MOL    H3047016   1.485   6.315   4.253  1.2033 -0.2606  1.9681
  124MOL    H3147017   1.468   6.077   4.067  1.0570 -0.1918 -0.4509
  124MOL    H3247018   1.447   6.240   4.031  0.6018  0.8943  0.9720
  124MOL    H3347019   1.261   6.252   4.196  2.5420 -0.0907  0.9451
  124MOL    H3447020   1.258   6.071   4.209 -0.5533  0.6224  0.8339
  124MOL    H3547021   1.184   6.251   3.977  0.7283 -0.7616 -1.6680
  124MOL    H3647022   1.223   6.095   3.945  2.2203 -0.8069  1.4274
  124MOL    H3747023   1.041   6.016   4.094  0.0182  0.3714  1.0625
  124MOL    H3847024   0.977   6.124   3.976  1.6693  0.5422 -0.8216
  124MOL    H3947025   0.992   6.182   4.134 -3.1486 -0.9121 -1.1358
  124MOL    C4047026   1.487   6.184   4.460 -0.1548  0.2941  0.3505
  124MOL    C4147027   1.514   6.086   4.571 -0.2860 -0.3121  0.1555
  124MOL    C4247028   1.394   5.994   4.592  0.2890 -0.1721  0.1910
  124MOL    C4347029   1.415   5.879   4.692 -0.0138 -0.2082  0.6904
  124MOL    C4447030   1.288   5.785   4.702  0.9213 -0.2456 -0.5602
  124MOL    C4547031   1.281   5.678   4.597  0.8150  0.6310  0.2874
  124MOL    O4647032   1.538   6.145   4.691  0.7413 -0.0216  0.3239
  124MOL    H4747033   1.396   6.243   4.472 -1.2607 -1.5247  1.0023
  124MOL    H4847034   1.571   6.253   4.475  0.3297 -0.0822 -0.5646
  124MOL    H4947035   1.603   6.031   4.541  0.3725 -1.3714  3.8567
  124MOL    H5047036   1.311   6.056   4.626 -0.8011 -1.9942  0.8965
  124MOL    H5147037   1.367   5.955   4.493  0.8338  0.5566 -0.2479
  124MOL    H5247038   1.430   5.917   4.793  0.5118 -1.7008  1.2006
  124MOL    H5347039   1.502   5.814   4.679 -1.1339 -1.2180 -2.3164
  124MOL    H5447040   1.275   5.741   4.801  1.1237  1.2867  0.1693
  124MOL    H5547041   1.194   5.841   4.696  1.2768  0.6135  1.3532
  124MOL    H5647042   1.294   5.694   4.490 -1.8445 -0.4986 -0.2483
  124MOL    H5747043   1.360   5.605   4.616  1.3811  1.5482  1.5697
  124MOL    H5847044   1.186   5.625   4.600  2.0806 -1.6847  0.9129
  124MOL    C5947045   1.667   6.123   4.743 -0.2514  0.4391 -0.3499
  124MOL    C6047046   1.671   6.173   4.886  0.6836  0.4325 -0.1412
  124MOL    C6147047   1.817   6.146   4.931  0.2448 -0.0795  0.6832
  124MOL    C6247048   1.849   6.192   5.072 -0.3297 -0.7843 -0.1388
  124MOL    C6347049   2.000   6.144   5.108  0.4247  0.0184  0.1830
  124MOL    C6447050   2.104   6.241   5.044  0.1371  0.5346  0.0135
  124MOL    O6547051   1.658   6.317   4.887 -0.1016 -1.1362  0.2974
  124MOL    H6647052   1.741   6.178   4.685 -0.2054  1.8173  0.9865
  124MOL    H6747053   1.692   6.017   4.734 -1.7675 -0.0698  1.0055
  124MOL    H6847054   1.593   6.117   4.938  0.8673 -0.4417 -0.7890
  124MOL    H6947055   1.891   6.184   4.861  1.7950 -0.6097  2.0193
  124MOL    H7047056   1.826   6.038   4.946  1.1580  0.0665  1.2197
  124MOL    H7147057   1.774   6.153   5.141 -0.3608  0.0781  0.3170
  124MOL    H7247058   1.833   6.296   5.097  0.2729 -1.4240  3.2079
  124MOL    H7347059   2.013   6.041   5.076 -1.8891 -0.7156  1.4699
  124MOL    H7447060   2.011   6.136   5.216  3.1810  0.7122 -0.0135
  124MOL    H7547061   2.078   6.344   5.067 -0.7102  0.5795 -1.1106
  124MOL    H7647062   2.198   6.213   5.091  0.0619  1.9395  1.0246
  124MOL    H7747063   2.111   6.225   4.936  0.3309 -2.5239  0.4190
  124MOL    C7847064   1.545   6.367   4.945 -0.1246 -0.6428 -0.3587
  124MOL    C7947065   1.514   6.516   4.918 -0.3321  0.2120 -0.2994
  124MOL    C8047066   1.437   6.580   5.038  0.3099 -0.8682 -0.5958
  124MOL    C8147067   1.517   6.630   5.162  0.5916 -0.1321  0.1004
  124MOL    C8247068   1.422   6.702   5.271 -0.4949 -0.1426  0.1078
  124MOL    C8347069   1.482   6.720   5.412  0.0442 -0.0295 -0.4590
  124MOL    O8447070   1.423   6.537   4.809 -0.1424 -0.5964 -0.3041
  124MOL    H8547071   1.565   6.345   5.050  0.4445 -1.7705 -0.7067
  124MOL    H8647072   1.463   6.302   4.915 -0.8477  0.1928 -0.2299
  124MOL    H8747073   1.608   6.568   4.904 -1.5500  2.6905  0.4047
  124MOL    H8847074   1.377   6.664   5.002 -0.3970 -0.6464  1.0829
  124MOL    H8947075   1.356   6.512   5.064 -0.3140  0.4689  1.0634
  124MOL    H9047076   1.602   6.696   5.145  0.5334 -0.5340 -1.9238
  124MOL    H9147077   1.552   6.542   5.217  2.7036 -0.6113 -1.9494
  124MOL    H9247078   1.383   6.796   5.234  2.2666  0.4451 -1.4788
  124MOL    H9347079   1.339   6.633   5.284  0.5797 -1.6259 -0.7409
  124MOL    H9447080   1.553   6.803   5.415  1.6822 -1.3656 -1.9177
  124MOL    H9547081   1.549   6.638   5.437  1.1100  1.5277  1.9913
  124MOL    H9647082   1.410   6.727   5.493 -1.9614  1.4929 -2.3110
  124MOL    C9747083   1.482   6.499   4.683  0.7805  0.1048  0.2934
  124MOL    C9847084   1.399   6.567   4.573  0.0054 -0.0789  0.4417
  124MOL    C9947085   1.480   6.592   4.443 -0.6634 -0.0776 -0.2411
  124MOL   C10047086   1.595   6.689   4.460  0.2763  0.1028  1.3761
  124MOL   C10147087   1.677   6.716   4.335 -0.1660  0.2120  0.0984
  124MOL   C10247088   1.586   6.746   4.212  0.4811  0.5567  1.1580
  124MOL   O10347089   1.287   6.484   4.543 -0.1879  0.5206 -0.0524
  124MOL   H10447090   1.486   6.390   4.676 -2.4082 -0.1380  1.5784
  124MOL   H10547091   1.585   6.533   4.686  0.4575  1.3685 -2.0063
  124MOL   H10647092   1.364   6.661   4.615  1.7744  0.1011  1.5328
  124MOL   H10747093   1.414   6.653   4.382 -0.2820  0.8151  0.2406
  124MOL   H10847094   1.505   6.493   4.405 -1.0802 -0.9243  1.6335
  124MOL   H10947095   1.657   6.644   4.538 -1.0368 -0.5784  2.0589
  124MOL   H11047096   1.545   6.781   4.490 -0.7806  0.3930 -1.1705
  124MOL   H11147097   1.748   6.637   4.309 -0.8367 -0.4544  0.2776
  124MOL   H11247098   1.734   6.806   4.358 -2.3044  1.7478 -0.4955
  124MOL   H11347099   1.653   6.768   4.129  1.5410 -0.5392  1.6919
  124MOL   H11447100   1.533   6.655   4.185  2.3826  0.6819 -3.3325
  124MOL   H11547101   1.516   6.829   4.223 -2.3525 -1.7411  0.9255
  124MOL   C11647102   1.173   6.504   4.623 -0.5544 -0.7029  0.8953
  124MOL   C11747103   1.051   6.442   4.553  0.2190 -0.2770 -0.4972
  124MOL   C11847104   1.060   6.286   4.579 -0.2795  0.8514  0.7927
  124MOL   C11947105   0.945   6.205   4.522 -0.1983  0.3959  0.0449
  124MOL   C12047106   0.945   6.054   4.560 -0.5122  0.0625  0.1312
  124MOL   C12147107   0.986   6.010   4.699 -0.1991 -0.6794  0.8333
  124MOL   O12247108   1.038   6.475   4.410  0.2993 -0.0412 -0.1245
  124MOL   H12347109   1.184   6.467   4.725 -0.7060  0.9012  1.5063
  124MOL   H12447110   1.157   6.612   4.622 -0.9234 -0.7220  2.7037
  124MOL   H12547111   0.970   6.480   4.615  0.4367  0.0970 -0.4447
  124MOL   H12647112   1.150   6.243   4.536 -0.6560  1.0111 -0.1688
  124MOL   H12747113   1.060   6.259   4.684 -1.6878  0.6579  0.7521
  124MOL   H12847114   0.927   6.216   4.415 -1.7568 -0.5664  0.1860
  124MOL   H12947115   0.857   6.252   4.566 -1.0115  0.2474 -1.3725
  124MOL   H13047116   0.856   5.993   4.541  0.2782 -1.1054  0.1654
  124MOL   H13147117   1.024   6.007   4.501 -0.3848 -1.7249  1.6638
  124MOL   H13247118   0.966   5.907   4.727 -1.0742 -1.2899 -1.9148
  124MOL   H13347119   1.089   6.032   4.728 -0.9135  0.1649  2.8661
  124MOL   H13447120   0.929   6.078   4.763 -1.8718 -1.3156  0.0420
  124MOL   C13547121   0.991   6.611   4.387  0.1105 -0.0526  0.5710
  124MOL   C13647122   1.102   6.692   4.319 -0.2917 -1.5021  0.1281
  124MOL   C13747123   1.082   6.841   4.337  0.5229  0.2860 -0.3462
  124MOL   C13847124   1.210   6.931   4.323 -0.1494 -0.0794  0.0088
  124MOL   C13947125   1.290   6.953   4.448 -0.4161 -0.2522  0.4492
  124MOL   C14047126   1.401   7.058   4.414  0.2753  0.6443 -0.4509
  124MOL   O14147127   1.103   6.676   4.177 -0.6425 -0.0423 -0.2856
  124MOL   H14247128   0.906   6.601   4.320  1.0529  1.6129 -0.9092
  124MOL   H14347129   0.944   6.649   4.478 -1.1647  1.5587 -0.7359
  124MOL   H14447130   1.196   6.652   4.358  0.2804 -0.6049 -0.3143
  124MOL   H14547131   1.004   6.873   4.268 -2.5575 -1.2615  2.2794
  124MOL   H14647132   1.054   6.862   4.440  0.7255  1.0468 -0.4395
  124MOL   H14747133   1.170   7.029   4.295 -1.7006 -0.4994  0.7043
  124MOL   H14847134   1.265   6.895   4.237  5.6164  3.0057  2.1379
  124MOL   H14947135   1.338   6.862   4.482  0.0190 -0.0954  0.2581
  124MOL   H15047136   1.236   6.991   4.534 -0.0915 -1.0352  1.0014
  124MOL   H15147137   1.358   7.159   4.411  0.3845  0.7520  1.1779
  124MOL   H15247138   1.481   7.059   4.487  0.1287  3.1685 -0.2710
  124MOL   H15347139   1.445   7.034   4.317  0.7354 -1.6465  0.3155
  124MOL   C15447140   1.214   6.608   4.123  0.4458 -0.2209  0.3557
  124MOL   C15547141   1.214   6.617   3.969 -0.2700  0.2167  0.2426
  124MOL   C15647142   1.358   6.593   3.919 -0.0383  0.5256  0.2326
  124MOL   C15747143   1.391   6.640   3.775  0.2999 -0.2370  0.1153
  124MOL   C15847144   1.541   6.658   3.740  0.0202 -0.0543 -0.1451
  124MOL   C15947145   1.551   6.713   3.597 -0.4969 -0.3681  0.0978
  124MOL   O16047146   1.126   6.524   3.913 -0.2653  0.3066  1.0391
  124MOL   H16147147   1.208   6.503   4.152  3.3951  0.4635  3.8605
  124MOL   H16247148   1.307   6.654   4.156 -0.5158  2.1078 -0.0742
  124MOL   H16347149   1.189   6.713   3.924  0.2133  0.0320 -0.4247
  124MOL   H16447150   1.392   6.492   3.939 -2.2300 -0.3280 -0.1864
  124MOL   H16547151   1.431   6.641   3.985  0.0842 -1.1248  1.3251
  124MOL   H16647152   1.337   6.727   3.736  1.7121  0.1357 -1.0778
  124MOL   H16747153   1.362   6.555   3.713  0.2404  0.0354 -0.2388
  124MOL   H16847154   1.586   6.723   3.815 -0.8846  1.6987 -1.0792
  124MOL   H16947155   1.592   6.563   3.752  0.4777  0.1481 -0.4563
  124MOL   H17047156   1.653   6.736   3.568 -0.7529  0.6777 -0.0154
  124MOL   H17147157   1.489   6.803   3.590 -0.9176 -0.9402 -4.5871
  124MOL   H17247158   1.512   6.638   3.529  0.5130 -0.6949 -0.1252
  124MOL   C17347159   0.996   6.572   3.894  0.1726 -0.7950  0.3752
  124MOL   C17447160   0.910   6.463   3.832  0.4398  0.6287  0.3659
  124MOL   C17547161   0.765   6.469   3.868  0.3711  0.1787  0.1775
  124MOL   C17647162   0.685   6.351   3.811 -0.4335  0.4721 -0.3486
  124MOL   C17747163   0.565   6.309   3.899  0.4448 -0.5918 -0.1930
  124MOL   C17847164   0.448   6.255   3.810 -0.1999 -0.6736 -0.0511
  124MOL   O17947165   0.922   6.480   3.689 -0.2876 -0.2823  0.6119
  124MOL   H18047166   0.997   6.654   3.822  3.3743 -1.5536 -0.5282
  124MOL   H18147167   0.948   6.612   3.983  2.3366 -0.1545  1.2853
  124MOL   H18247168   0.958   6.371   3.865  3.4107  1.7474 -0.6535
  124MOL   H18347169   0.767   6.460   3.977 -1.1694  0.6650  0.2593
  124MOL   H18447170   0.719   6.566   3.851 -0.6049 -0.6150 -1.8477
  124MOL   H18547171   0.662   6.388   3.711 -1.2104  1.2671  0.1184
  124MOL   H18647172   0.738   6.258   3.791 -3.8201 -1.1964 -2.0933
  124MOL   H18747173   0.587   6.242   3.982 -0.0237 -2.2580 -1.3795
  124MOL   H18847174   0.520   6.394   3.951  2.1670 -2.0541  3.8720
  124MOL   H18947175   0.364   6.226   3.873  0.4686  0.4658  1.4039
  124MOL   H19047176   0.486   6.174   3.749  1.8517  0.0276  0.2269
  124MOL   H19147177   0.413   6.347   3.763  2.1578  0.3552  0.0954
  124MOL   C19247178   1.020   6.397   3.623 -0.1732 -0.5570  0.0946
  124MOL   C19347179   1.030   6.411   3.469 -0.6556  0.7016 -0.2267
  124MOL   C19447180   1.047   6.555   3.413 -0.0023  1.2540 -0.0369
  124MOL   C19547181   1.187   6.619   3.451  0.5300 -0.2836  0.0435
  124MOL   C19647182   1.200   6.764   3.402 -0.1056 -0.6564 -0.0919
  124MOL   C19747183   1.108   6.859   3.476 -0.0209  0.3605  0.2062
  124MOL   O19847184   0.937   6.336   3.394 -0.0205  0.4125 -0.5811
  124MOL   H19947185   1.117   6.427   3.662 -0.4351  1.3766 -0.6938
  124MOL   H20047186   1.000   6.291   3.641 -2.1665 -0.5400 -1.8250
  124MOL   H20147187   1.120   6.352   3.450 -0.1084  1.3297  0.3638
  124MOL   H20247188   1.034   6.544   3.306  2.6130  0.5364 -0.3086
  124MOL   H20347189   0.980   6.620   3.469 -0.1024  1.0566  0.0756
  124MOL   H20447190   1.275   6.561   3.422  0.4657 -0.0156 -0.6961
  124MOL   H20547191   1.196   6.631   3.559  0.9463 -1.8730  0.1926
  124MOL   H20647192   1.305   6.792   3.413 -0.4928  0.8153 -0.0260
  124MOL   H20747193   1.185   6.765   3.294 -2.2390 -1.5072  0.1791
  124MOL   H20847194   1.004   6.840   3.451  0.1075 -2.3161  1.4699
  124MOL   H20947195   1.116   6.840   3.583 -0.6376 -1.2233 -0.0107
  124MOL   H21047196   1.126   6.964   3.455  0.6347  0.6392  2.0790
  124MOL   C21147197   0.803   6.377   3.422 -0.5071 -0.5872  0.0803
  124MOL   C21247198   0.712   6.253   3.395  0.1285  0.4262 -0.7030
  124MOL   C21347199   0.565   6.304   3.395  0.9846  0.6254  0.1162
  124MOL   C21447200   0.463   6.190   3.381  0.4052 -1.1096 -0.4536
  124MOL   C21547201   0.314   6.221   3.347  0.2152 -0.2330  0.2283
  124MOL   C21647202   0.234   6.087   3.338  0.3732 -0.4540 -0.2158
  124MOL   O21747203   0.720   6.156   3.509 -0.4137 -0.0693 -0.1239
  124MOL   H21847204   0.778   6.455   3.349  2.5152  1.0058  0.6511
  124MOL   H21947205   0.776   6.431   3.513 -2.7090  0.3065 -1.0622
  124MOL   H22047206   0.730   6.209   3.297 -0.3994 -1.0097 -0.1753
  124MOL   H22147207   0.549   6.373   3.479 -1.1254  1.4465 -0.9103
  124MOL   H22247208   0.558   6.381   3.318  2.5957  2.1318  1.4382
  124MOL   H22347209   0.501   6.125   3.302  2.2645  0.7141 -1.1274
  124MOL   H22447210   0.470   6.136   3.475  1.2233  2.3533  1.5564
  124MOL   H22547211   0.269   6.293   3.415 -0.4846  1.9240 -2.4447
  124MOL   H22647212   0.310   6.273   3.251  1.3265 -1.5135 -0.5385
  124MOL   H22747213   0.132   6.108   3.305  0.0959  0.1898  0.9997
  124MOL   H22847214   0.245   6.032   3.431  0.6587  2.0493  1.2733
  124MOL   H22947215   0.280   6.024   3.262  2.7637  1.6297 -0.5750
  124MOL   C23047216   0.829   6.060   3.501 -0.9022  0.3785  0.2672
  124MOL   C23147217   0.821   5.976   3.627 -0.3442  0.0357  0.2123
  124MOL   C23247218   0.960   5.932   3.667 -0.5565 -0.0458  0.0322
  124MOL   C23347219   0.964   5.845   3.793  0.0730 -0.1056  0.5261
  124MOL   C23447220   1.103   5.805   3.834 -0.6141 -0.6936  0.5104
  124MOL   C23547221   1.086   5.690   3.937  0.4546 -0.1571  1.0104
  124MOL   O23647222   0.726   5.870   3.615  0.6336 -0.1352  0.2030
  124MOL   H23747223   0.822   6.004   3.408  0.9728  0.3985  0.1066
  124MOL   H23847224   0.922   6.117   3.508 -0.1526 -0.6164 -1.2951
  124MOL   H23947225   0.776   6.035   3.707 -0.6880  0.9517 -0.6399
  124MOL   H24047226   1.037   6.005   3.688 -0.1720 -0.6719  0.8283
  124MOL   H24147227   1.004   5.881   3.581 -2.7854  0.1611 -1.2839
  124MOL   H24247228   0.918   5.749   3.769 -0.2453 -0.2441  1.6858
  124MOL   H24347229   0.922   5.901   3.876 -1.9611 -0.7276 -0.0511
  124MOL   H24447230   1.157   5.763   3.750 -1.9985 -1.2678 -0.1065
  124MOL   H24547231   1.165   5.889   3.867  1.0398 -1.3529 -0.9062
  124MOL   H24647232   1.038   5.603   3.894 -1.1422 -0.0338  2.4870
  124MOL   H24747233   1.034   5.722   4.028  0.7262 -0.7778  1.3858
  124MOL   H24847234   1.185   5.666   3.977  0.8129  0.4641  0.5082
  124MOL   C24947235   0.593   5.884   3.666  0.3489  0.3282 -0.3781
  124MOL   C25047236   0.494   5.792   3.597  0.2521 -0.2211 -0.4997
  124MOL   C25147237   0.496   5.806   3.445  0.5755  0.6471  0.0847
  124MOL   C25247238   0.428   5.694   3.373  0.4807  0.3136  0.0774
  124MOL   C25347239   0.516   5.569   3.381 -0.2890  0.0120 -0.3317
  124MOL   C25447240   0.481   5.455   3.276  0.3309 -0.2570 -0.0896
  124MOL   O25547241   0.370   5.828   3.654 -0.3525  0.1718 -0.2049
  124MOL   H25647242   0.612   5.869   3.773 -1.7939 -2.3372 -0.2881
  124MOL   H25747243   0.571   5.988   3.643  1.7574  0.4972 -0.9788
  124MOL   H25847244   0.532   5.693   3.623 -3.5168 -1.4565  0.5395
  124MOL   H25947245   0.446   5.898   3.414 -2.8704 -1.7317 -1.8373
  124MOL   H26047246   0.600   5.806   3.414  0.3014  0.6449 -0.8541
  124MOL   H26147247   0.329   5.670   3.411  0.4462 -0.5803 -0.5810
  124MOL   H26247248   0.423   5.730   3.271  0.3376 -0.9798 -0.3795
  124MOL   H26347249   0.623   5.588   3.382 -1.0654  4.9338  0.5792
  124MOL   H26447250   0.494   5.535   3.482 -1.4133  0.5531 -0.3932
  124MOL   H26547251   0.521   5.486   3.180  1.0939 -0.3040  0.2117
  124MOL   H26647252   0.373   5.452   3.258  0.3671 -1.3212 -0.1341
  124MOL   H26747253   0.516   5.354   3.297 -0.3625 -0.3029  0.8536
  124MOL   C26847254   0.324   5.752   3.759 -0.0042  0.6386 -0.1017
  124MOL   C26947255   0.203   5.827   3.806 -0.0274 -0.7116 -0.9968
  124MOL   C27047256   0.169   5.776   3.951 -0.3768 -0.1110 -0.4753
  124MOL   C27147257   0.060   5.858   4.017  0.5572  0.2306 -0.4677
  124MOL   C27247258   0.009   5.798   4.144 -0.2380 -0.5546  0.1860
  124MOL   C27347259   7.652   5.838   4.184 -0.4275 -0.0111 -0.0445
  124MOL   O27447260   0.091   5.785   3.726  0.8739  0.1845 -0.0770
  124MOL   H27547261   0.399   5.734   3.836 -0.4407 -3.6561 -0.5674
  124MOL   H27647262   0.306   5.651   3.724  2.2713  0.6571 -1.3951
  124MOL   H27747263   0.220   5.934   3.811  0.4666 -0.8795  1.7708
  124MOL   H27847264   0.132   5.674   3.947 -1.5004  0.3249 -1.4710
  124MOL   H27947265   0.257   5.781   4.015 -0.9855 -1.0554  0.4581
  124MOL   H28047266   0.092   5.961   4.035  0.4992  0.3151 -0.8317
  124MOL   H28147267   7.764   5.851   3.944  1.3956 -1.7380 -1.2406
  124MOL   H28247268   0.017   5.689   4.141 -0.5176 -0.5437 -1.1667
  124MOL   H28347269   0.072   5.837   4.223  0.8628 -0.7097 -0.6137
  124MOL   H28447270   7.577   5.826   4.105 -1.3532 -0.6252  0.9213
  124MOL   H28547271   7.628   5.762   4.258  0.3847  0.4221  0.6660
  124MOL   H28647272   7.639   5.932   4.238 -2.6058 -1.8384  2.7367
  124MOL   C28747273   0.067   5.858   3.611  0.0246 -0.3054 -0.2185
  124MOL   C28847274   7.729   5.809   3.527  0.3241 -0.0393 -0.2262
  124MOL   C28947275   7.745   5.827   3.377  0.6753 -0.0590 -0.4492
  124MOL   C29047276   7.613   5.771   3.302 -0.0003 -0.1024 -0.1228
  124MOL   C29147277   7.601   5.807   3.154 -0.1637  0.5694  0.5525
  124MOL   C29247278   7.494   5.726   3.087  0.8273 -0.5306  0.0805
  124MOL   O29347279   7.604   5.866   3.568  0.2504 -0.3587  0.2073
  124MOL   H29447280   0.150   5.853   3.540  0.9486  1.6939  0.6566
  124MOL   H29547281   0.050   5.963   3.636 -2.3056 -0.7667  0.3086
  124MOL   H29647282   7.715   5.703   3.545 -0.9583  0.3074  0.9323
  124MOL   H29747283   7.768   5.933   3.361  1.8299  0.1766  2.4889
  124MOL   H29847284   0.046   5.775   3.336  0.4216  0.3185 -1.4840
  124MOL   H29947285   7.610   5.662   3.300 -1.0342 -0.0689 -1.9771
  124MOL   H30047286   7.521   5.800   3.353  0.7293  1.0907  0.5309
  124MOL   H30147287   7.691   5.777   3.101 -0.4516  0.4583  0.1158
  124MOL   H30247288   7.585   5.911   3.127 -2.3312 -0.3316 -1.9161
  124MOL   H30347289   7.487   5.736   2.979 -3.5944 -2.2631  0.1021
  124MOL   H30447290   7.507   5.621   3.114 -0.2031 -1.1570 -1.7845
  124MOL   H30547291   7.397   5.749   3.132  0.3718  1.0871 -1.7004
  124MOL   C30647292   7.531   5.790   3.659  0.9115  0.0083 -0.2608
  124MOL   C30747293   7.444   5.889   3.732  0.0154  0.1694  0.1292
  124MOL   C30847294   7.376   5.829   3.856 -0.8236 -0.1734 -0.4008
  124MOL   C30947295   7.317   5.945   3.943  0.7063  0.7984  0.5318
  124MOL   C31047296   7.264   5.901   4.083 -0.1420 -0.1766 -0.1797
  124MOL   C31147297   7.228   6.024   4.160 -0.0310 -0.0413 -0.1877
  124MOL   O31247298   7.352   5.946   3.646  0.2014 -0.0950 -0.4395
  124MOL   H31347299   7.485   5.700   3.618 -1.3051  0.7589  0.5140
  124MOL   H31447300   7.594   5.735   3.729  0.9479 -1.1133 -1.1571
  124MOL   H31547301   7.515   5.965   3.764  0.9605  0.3608 -2.2793
  124MOL   H31647302   7.449   5.775   3.917  0.2904 -0.7162 -2.1595
  124MOL   H31747303   7.303   5.751   3.836  0.0095 -1.0322 -0.1389
  124MOL   H31847304   7.387   6.028   3.949  1.7068  0.0568 -0.7415
  124MOL   H31947305   7.235   5.996   3.891 -0.5738 -0.7070  1.0232
  124MOL   H32047306   7.334   5.845   4.144 -0.0883 -0.1198 -0.1893
  124MOL   H32147307   7.170   5.847   4.071 -0.9940  1.1028  0.6392
  124MOL   H32247308   7.214   6.008   4.266 -0.0278 -0.3989 -0.2435
  124MOL   H32347309   7.310   6.096   4.157 -0.3203  0.4922  3.3488
  124MOL   H32447310   7.142   6.074   4.115 -0.7733 -1.4801 -0.3884
  124MOL   C32547311   7.379   6.085   3.614 -0.4545  0.7455  0.0957
  124MOL   C32647312   7.256   6.140   3.545  0.2369  0.0205  0.3487
  124MOL   C32747313   7.281   6.289   3.505  0.4992  0.0988  0.3496
  124MOL   C32847314   7.162   6.348   3.436  1.0716 -0.1775 -0.2958
  124MOL   C32947315   7.180   6.489   3.385  0.4256  0.1868 -0.0865
  124MOL   C33047316   7.051   6.563   3.348 -0.7594 -0.0652  1.0025
  124MOL   O33147317   7.148   6.150   3.634  0.5382  0.5824 -0.6641
  124MOL   H33247318   7.451   6.075   3.533  0.5315  1.0833  0.9319
  124MOL   H33347319   7.410   6.151   3.695 -1.8780 -1.3982  2.4391
  124MOL   H33447320   7.241   6.077   3.458 -0.9784  0.1737  0.4308
  124MOL   H33547321   7.307   6.351   3.590  0.5961 -0.3874  0.6729
  124MOL   H33647322   7.366   6.297   3.438 -0.2750 -1.9308 -0.9384
  124MOL   H33747323   7.120   6.290   3.354  0.4599 -0.7924  0.4386
  124MOL   H33847324   7.075   6.367   3.499  0.1539 -1.2425 -1.2233
  124MOL   H33947325   7.231   6.548   3.461  3.0683 -0.5232 -1.2307
  124MOL   H34047326   7.254   6.496   3.305 -0.1786  0.4327 -0.6282
  124MOL   H34147327   7.003   6.579   3.445  1.8571 -1.3693  2.5636
  124MOL   H34247328   7.071   6.658   3.297  2.2001 -0.2415  1.7588
  124MOL   H34347329   6.991   6.500   3.282  0.7190  0.6217 -1.0565
  124MOL   C34447330   7.040   6.075   3.587 -0.5844 -0.5630 -0.3272
  124MOL   C34547331   6.914   6.113   3.667 -0.0847  0.5146 -0.7203
  124MOL   C34647332   6.933   6.080   3.819 -0.2999  0.5010  0.5988
  124MOL   C34747333   6.874   5.939   3.852  0.0219 -0.9737  0.8057
  124MOL   C34847334   6.855   5.919   4.003  0.0321 -0.3422  0.3627
  124MOL   C34947335   6.734   5.843   4.038  0.6339  0.3109  0.1411
  124MOL   O35047336   6.895   6.255   3.636 -0.0454  0.0090  0.1950
  124MOL   H35147337   7.074   5.972   3.587 -0.2644 -0.4611  0.4745
  124MOL   H35247338   7.024   6.086   3.479 -1.8573  1.9136  0.0760
  124MOL   H35347339   6.835   6.050   3.627 -0.2272  0.1071  0.1847
  124MOL   H35447340   6.893   6.155   3.888  1.4241  0.9469  1.1405
  124MOL   H35547341   7.038   6.091   3.844  0.2758 -0.0882 -1.4343
  124MOL   H35647342   6.946   5.864   3.820 -0.5420 -1.4763  0.6964
  124MOL   H35747343   6.777   5.939   3.803  0.2410  1.3826  0.3270
  124MOL   H35847344   6.862   6.016   4.053 -3.2286 -0.7008  1.6008
  124MOL   H35947345   6.942   5.874   4.052  1.4874  1.4289 -0.5163
  124MOL   H36047346   6.657   5.886   3.973  1.2047  2.3042  0.7484
  124MOL   H36147347   6.710   5.859   4.143 -1.9546  3.3588 -0.8086
  124MOL   H36247348   6.762   5.742   4.009 -1.2081  0.7572 -3.5444
  124MOL   C36347349   6.774   6.308   3.685 -0.7408  0.3133 -0.8063
  124MOL   C36447350   6.759   6.457   3.653 -0.5329  0.1613 -0.6258
  124MOL   C36547351   6.617   6.513   3.694 -0.1252 -0.6651 -0.3833
  124MOL   C36647352   6.585   6.663   3.671  0.0991 -0.4834 -0.0120
  124MOL   C36747353   6.607   6.733   3.539 -0.5595 -0.3098  0.6230
  124MOL   C36847354   6.517   6.683   3.423  0.4074 -0.4534  1.2484
  124MOL   O36947355   6.852   6.526   3.737 -0.3513  0.1153  0.8025
  124MOL   H37047356   6.768   6.290   3.792 -0.5332  2.2929 -0.4509
  124MOL   H37147357   6.692   6.249   3.642 -1.8473 -0.6666  2.5176
  124MOL   H37247358   6.787   6.486   3.551  0.2935  2.3082  0.1957
  124MOL   H37347359   6.556   6.447   3.631 -2.6120  2.1946 -1.0872
  124MOL   H37447360   6.598   6.487   3.798 -1.0418 -0.5807 -0.5215
  124MOL   H37547361   6.486   6.687   3.712  0.6719 -0.3211  1.2969
  124MOL   H37647362   6.646   6.718   3.743 -0.3387  0.3824 -0.2985
  124MOL   H37747363   6.592   6.840   3.555 -0.5426 -0.2844  0.4763
  124MOL   H37847364   6.709   6.728   3.503 -0.9234  0.2326 -0.4903
  124MOL   H37947365   6.533   6.722   3.322 -0.0182 -1.7627  0.6696
  124MOL   H38047366   6.531   6.577   3.401 -1.2580 -0.2844 -0.8105
  124MOL   H38147367   6.412   6.686   3.452 -0.0516  0.4847 -0.4523
  124MOL   H38247368   6.931   6.481   3.711 -0.5117  0.6072 -0.5565
  125MOL     C147369   1.443   3.631   0.507  0.1063  0.1650  0.1304
  125MOL     C247370   1.540   3.623   0.624  0.0151  0.1422 -0.1150
  125MOL     C347371   1.678   3.689   0.587 -0.3996 -0.0793  0.0241
  125MOL     C447372   1.783   3.667   0.700 -0.6174 -0.2958  0.1312
  125MOL     C547373   1.914   3.745   0.672 -0.1674 -0.2138 -0.0542
  125MOL     C647374   1.996   3.742   0.796  0.0249  0.1712  0.1647
  125MOL     O747375   1.489   3.701   0.731  0.2110 -0.5701 -0.2188
  125MOL     H847376   1.433   3.732   0.467  0.1387  0.1053 -0.0301
  125MOL     H947377   1.345   3.596   0.540 -0.2121 -1.0289 -2.0041
  125MOL    H1047378   1.544   3.517   0.651  0.8891  0.4480  1.0248
  125MOL    H1147379   1.717   3.657   0.490  1.6532  0.9137  0.5044
  125MOL    H1247380   1.654   3.795   0.579  0.4014  0.2184  1.3567
  125MOL    H1347381   1.750   3.703   0.798 -1.1209  2.0801 -0.8770
  125MOL    H1447382   1.793   3.559   0.710  2.2122 -0.1311 -0.3606
  125MOL    H1547383   1.965   3.704   0.585  1.0276 -1.6450  1.2996
  125MOL    H1647384   1.897   3.849   0.643  0.6647 -0.6381 -2.1476
  125MOL    H1747385   2.099   3.753   0.764  0.1582 -0.4611  0.3749
  125MOL    H1847386   1.964   3.820   0.864 -1.7738 -1.5665  1.3741
  125MOL    H1947387   1.993   3.651   0.856  0.6193 -0.8672 -1.3536
  125MOL    H2047388   1.469   3.574   0.417 -1.8224 -0.3634 -0.1085
  125MOL    C2147389   1.400   3.635   0.825 -0.8031  0.0367 -0.4375
  125MOL    C2247390   1.304   3.727   0.894 -0.0035 -0.1392  0.4227
  125MOL    C2347391   1.182   3.656   0.947 -0.3389  0.3782 -0.8726
  125MOL    C2447392   1.206   3.521   1.018 -0.1278  0.1887  0.0761
  125MOL    C2547393   1.093   3.477   1.106 -0.4376 -0.7938 -0.0114
  125MOL    C2647394   0.953   3.482   1.038 -0.6286 -0.5097  1.0866
  125MOL    O2747395   1.373   3.792   0.999  0.5164 -0.6914  0.0699
  125MOL    H2847396   1.337   3.567   0.767 -1.8022  0.1911  0.4697
  125MOL    H2947397   1.458   3.572   0.892  1.2476 -0.0244 -2.1982
  125MOL    H3047398   1.268   3.798   0.819  1.6465 -0.3489 -0.5717
  125MOL    H3147399   1.114   3.634   0.865 -0.5158 -2.5220  0.0087
  125MOL    H3247400   1.131   3.729   1.010  2.4501  0.0685  1.8467
  125MOL    H3347401   1.291   3.534   1.085 -0.4388  1.4363  0.2276
  125MOL    H3447402   1.228   3.435   0.954 -2.0766 -0.3514  0.1151
  125MOL    H3547403   1.115   3.377   1.143 -0.3011 -0.3366  1.1900
  125MOL    H3647404   1.081   3.536   1.197 -2.1549 -0.8210 -0.2126
  125MOL    H3747405   0.886   3.407   1.081  1.0443 -0.2425  4.2958
  125MOL    H3847406   0.968   3.460   0.932 -0.4050  3.6937  0.1864
  125MOL    H3947407   0.909   3.581   1.042 -0.8879 -0.5050 -1.2714
  125MOL    C4047408   1.488   3.862   0.968  0.1086  0.3840 -0.2074
  125MOL    C4147409   1.547   3.932   1.097  0.2592 -0.7068  0.5828
  125MOL    C4247410   1.592   4.066   1.051 -0.3738  0.1223 -0.3206
  125MOL    C4347411   1.629   4.156   1.172  0.0298  0.0129 -0.4290
  125MOL    C4447412   1.680   4.291   1.120 -0.6039 -0.1833  0.1618
  125MOL    C4547413   1.810   4.275   1.043  0.2401 -0.1278 -0.2930
  125MOL    O4647414   1.655   3.860   1.153 -0.4922 -0.4436  0.4038
  125MOL    H4747415   1.456   3.939   0.898  1.5572  0.7561 -0.4774
  125MOL    H4847416   1.569   3.812   0.915 -0.9234 -0.4281 -1.0383
  125MOL    H4947417   1.468   3.932   1.172 -0.3306  1.6570 -0.0030
  125MOL    H5047418   1.680   4.046   0.990  1.6141 -1.4368  2.8838
  125MOL    H5147419   1.519   4.109   0.984 -1.6144 -0.2594  0.7679
  125MOL    H5247420   1.710   4.111   1.230 -1.3408 -0.9563  0.7622
  125MOL    H5347421   1.554   4.176   1.248  0.0761  0.4260 -0.4918
  125MOL    H5447422   1.598   4.351   1.081 -2.0614 -0.9575  1.9564
  125MOL    H5547423   1.705   4.350   1.209 -0.3599 -0.2783  0.1566
  125MOL    H5647424   1.882   4.213   1.096 -1.0372 -1.1892  0.2333
  125MOL    H5747425   1.790   4.237   0.943  2.5451 -0.2528 -0.7199
  125MOL    H5847426   1.850   4.376   1.032  0.2118  0.1370  1.8838
  125MOL    C5947427   1.633   3.732   1.212 -0.4153  0.0915  0.0220
  125MOL    C6047428   1.773   3.695   1.266 -0.1658  0.4946 -0.6323
  125MOL    C6147429   1.889   3.705   1.166 -0.0596  0.4660  0.3039
  125MOL    C6247430   2.016   3.634   1.217  0.1990  0.6018  0.0742
  125MOL    C6347431   2.139   3.652   1.126  0.2202  0.1644 -0.1659
  125MOL    C6447432   2.261   3.619   1.211  0.4014 -0.3123  0.1127
  125MOL    O6547433   1.811   3.768   1.385  0.1492 -0.6311  0.3044
  125MOL    H6647434   1.621   3.663   1.129  1.7019  0.2819 -0.4927
  125MOL    H6747435   1.546   3.727   1.277  1.1340  0.2995  2.1803
  125MOL    H6847436   1.779   3.594   1.308 -0.7066  0.3098 -0.9952
  125MOL    H6947437   1.913   3.809   1.143  0.4949  0.4029  0.5936
  125MOL    H7047438   1.861   3.661   1.071 -1.1403 -1.2791  1.4103
  125MOL    H7147439   1.996   3.530   1.242  3.1401 -0.6633 -2.4680
  125MOL    H7247440   2.044   3.685   1.309  0.5019  2.3457 -0.9625
  125MOL    H7347441   2.155   3.757   1.102 -0.4659  0.2173 -0.3834
  125MOL    H7447442   2.139   3.587   1.039 -0.6288 -3.0361  2.1305
  125MOL    H7547443   2.352   3.640   1.155  0.5223 -0.2986  0.3117
  125MOL    H7647444   2.257   3.678   1.303 -1.0805 -1.9095  1.0977
  125MOL    H7747445   2.264   3.518   1.252  1.1040 -0.7459 -0.9932
  125MOL    C7847446   1.729   3.752   1.507  0.4399 -0.1418 -0.0710
  125MOL    C7947447   1.797   3.811   1.626  0.9836 -0.2240 -0.0825
  125MOL    C8047448   1.772   3.718   1.748 -0.5010  0.0935  0.2979
  125MOL    C8147449   1.851   3.773   1.866 -0.1389 -0.9500 -0.1347
  125MOL    C8247450   1.868   3.655   1.968  0.0988  0.0830  0.0515
  125MOL    C8347451   1.962   3.679   2.083  0.0899  0.0587 -0.0761
  125MOL    O8447452   1.736   3.933   1.662 -0.0520 -0.3188 -0.0049
  125MOL    H8547453   1.711   3.644   1.514 -1.4999  0.2007  0.5055
  125MOL    H8647454   1.631   3.796   1.490  0.7810  0.8715  0.5835
  125MOL    H8747455   1.903   3.824   1.604  0.0361  1.5131 -4.0012
  125MOL    H8847456   1.665   3.715   1.765 -0.8529  2.2651 -1.3716
  125MOL    H8947457   1.809   3.622   1.713 -0.0359  0.1175  0.7263
  125MOL    H9047458   1.800   3.857   1.912  0.1364 -0.8035 -0.0964
  125MOL    H9147459   1.956   3.788   1.840 -0.1197 -0.8633 -0.0096
  125MOL    H9247460   1.767   3.631   2.002  0.2515 -1.1262 -0.3297
  125MOL    H9347461   1.901   3.573   1.905 -2.7660 -0.3982 -0.9169
  125MOL    H9447462   1.907   3.748   2.146 -0.8118 -1.5957  0.9716
  125MOL    H9547463   2.059   3.721   2.056  0.2109  0.5148  1.0647
  125MOL    H9647464   1.987   3.592   2.144  1.5608  0.3757 -0.2072
  125MOL    C9747465   1.791   4.051   1.595  0.4605  0.0323  0.4398
  125MOL    C9847466   1.715   4.174   1.661  0.0808  0.0621 -0.2250
  125MOL    C9947467   1.784   4.306   1.642 -0.4800 -0.6090 -0.2102
  125MOL   C10047468   1.798   4.347   1.489  0.1060 -0.3399  0.1864
  125MOL   C10147469   1.913   4.450   1.479  0.2843  0.0378 -0.2386
  125MOL   C10247470   1.960   4.491   1.329  0.7175 -0.2572 -0.2813
  125MOL   O10347471   1.589   4.178   1.600 -0.2101 -0.4165 -0.4574
  125MOL   H10447472   1.781   4.038   1.487  1.2013 -0.0256  0.3733
  125MOL   H10547473   1.898   4.058   1.618  0.5840  2.3341 -0.7354
  125MOL   H10647474   1.710   4.148   1.767 -0.0375 -0.3380 -0.3271
  125MOL   H10747475   1.882   4.294   1.686 -0.5520  6.0142  2.3690
  125MOL   H10847476   1.734   4.382   1.702  1.9749  1.6158 -0.8560
  125MOL   H10947477   1.700   4.388   1.463  0.8886  0.3230 -1.7933
  125MOL   H11047478   1.803   4.257   1.427  1.5907 -0.7206  0.8471
  125MOL   H11147479   2.002   4.401   1.519 -1.3987 -1.3357  1.9011
  125MOL   H11247480   1.891   4.534   1.544  2.2186  0.9576 -0.7105
  125MOL   H11347481   1.995   4.403   1.274 -0.1565 -0.7042 -0.1353
  125MOL   H11447482   1.871   4.536   1.286 -0.5930 -1.1989  1.4065
  125MOL   H11547483   2.039   4.566   1.337  0.2898  0.0955  0.6794
  125MOL   C11647484   1.489   4.221   1.686 -0.0860  0.0305 -0.2074
  125MOL   C11747485   1.351   4.204   1.626  0.0646  0.1015 -0.3530
  125MOL   C11847486   1.242   4.288   1.703  0.1926  0.6922 -0.3264
  125MOL   C11947487   1.102   4.300   1.640  0.0484  0.4326  0.3474
  125MOL   C12047488   1.032   4.161   1.620 -0.1374 -0.1275  0.3489
  125MOL   C12147489   0.882   4.198   1.611 -0.1523 -0.3499  0.1706
  125MOL   O12247490   1.323   4.072   1.649  0.2972  0.1278  0.3229
  125MOL   H12347491   1.485   4.179   1.786 -0.8200  0.1008 -0.2033
  125MOL   H12447492   1.509   4.329   1.685  1.3993 -0.2248  0.1068
  125MOL   H12547493   1.351   4.236   1.522  2.3606 -0.3727 -0.5363
  125MOL   H12647494   1.226   4.242   1.800  1.8302 -1.5275 -1.0706
  125MOL   H12747495   1.290   4.385   1.720  0.9841  0.0662  1.1165
  125MOL   H12847496   1.109   4.348   1.542  1.5014 -0.0511  0.2025
  125MOL   H12947497   1.048   4.364   1.711 -1.0253  0.1189 -0.1754
  125MOL   H13047498   1.056   4.109   1.527  1.3039 -1.5387  1.5011
  125MOL   H13147499   1.042   4.099   1.708 -0.9816 -1.4860 -0.4812
  125MOL   H13247500   0.860   4.262   1.525 -3.4004  0.2509  1.3900
  125MOL   H13347501   0.811   4.117   1.594  0.5378 -1.0940  0.7821
  125MOL   H13447502   0.850   4.258   1.696 -0.4689  0.6895 -0.6691
  125MOL   C13547503   1.346   3.986   1.541 -0.3707  0.1655  0.4372
  125MOL   C13647504   1.286   3.847   1.584 -1.0792  0.2368  0.1175
  125MOL   C13747505   1.374   3.781   1.691  0.3771  0.9015  0.1963
  125MOL   C13847506   1.315   3.646   1.751  0.4333  0.3615 -0.1437
  125MOL   C13947507   1.393   3.593   1.877  0.0685 -0.0155  0.0074
  125MOL   C14047508   1.369   3.655   2.016 -0.0633 -0.0241 -0.3405
  125MOL   O14147509   1.278   3.758   1.470 -0.0337  0.0729 -0.2438
  125MOL   H14247510   1.303   4.027   1.449  0.3483  0.9876  0.4663
  125MOL   H14347511   1.450   3.982   1.509  0.0752  2.5548  1.5420
  125MOL   H14447512   1.181   3.855   1.613 -1.6316  1.6645 -2.1635
  125MOL   H14547513   1.463   3.757   1.633 -0.4590 -1.0851 -0.2905
  125MOL   H14647514   1.398   3.852   1.770 -0.7780  1.6801 -0.1346
  125MOL   H14747515   1.316   3.568   1.674 -0.7566 -0.8335  1.0196
  125MOL   H14847516   1.212   3.671   1.777  0.5841  2.1136 -1.1178
  125MOL   H14947517   1.502   3.596   1.867  0.5343  0.4271  4.4481
  125MOL   H15047518   1.377   3.486   1.894 -1.7280 -0.1112 -2.0356
  125MOL   H15147519   1.392   3.761   2.015  0.6799 -0.1623  0.5867
  125MOL   H15247520   1.267   3.632   2.047 -0.6087  1.1979 -1.2090
  125MOL   H15347521   1.439   3.608   2.086  1.9257 -0.1207 -2.3449
  125MOL   C15447522   1.186   3.795   1.372 -0.1232  0.8225 -0.1334
  125MOL   C15547523   1.043   3.799   1.421  0.2126  0.1026 -0.3428
  125MOL   C15647524   0.932   3.802   1.308 -0.3089  0.6559  0.6193
  125MOL   C15747525   0.795   3.851   1.345  0.3992  0.2292 -1.1126
  125MOL   C15847526   0.699   3.885   1.230 -0.0588  0.2754  0.8731
  125MOL   C15947527   0.566   3.935   1.269  0.7406 -0.1896 -0.0067
  125MOL   O16047528   1.027   3.676   1.497 -0.5056 -0.6258 -0.2450
  125MOL   H16147529   1.200   3.714   1.300  0.3375 -0.6840  1.6002
  125MOL   H16247530   1.208   3.883   1.312  0.5068  1.3195  0.8145
  125MOL   H16347531   1.023   3.883   1.487  0.7659 -1.0625  1.3412
  125MOL   H16447532   0.933   3.700   1.271  0.9696  0.7844  0.2700
  125MOL   H16547533   0.958   3.862   1.221 -3.4374  0.1751 -0.7065
  125MOL   H16647534   0.805   3.942   1.404 -2.2825  0.8252 -1.4933
  125MOL   H16747535   0.739   3.780   1.406 -0.7108 -0.2515 -2.6590
  125MOL   H16847536   0.742   3.946   1.150 -1.6913  0.3346  0.0185
  125MOL   H16947537   0.677   3.792   1.176  0.7044  0.8549 -0.4682
  125MOL   H17047538   0.573   4.001   1.355 -1.0457 -1.6546  1.3124
  125MOL   H17147539   0.488   3.862   1.293  1.1936 -0.4196  0.7738
  125MOL   H17247540   0.528   3.993   1.185 -0.5842 -2.8117 -1.2782
  125MOL   C17347541   0.947   3.679   1.612 -0.0523  0.0416 -0.2807
  125MOL   C17447542   0.925   3.541   1.670 -0.5364  0.1593 -0.2332
  125MOL   C17547543   0.926   3.548   1.828 -0.5362 -0.2093  0.0841
  125MOL   C17647544   0.891   3.410   1.888  0.0984 -0.0232 -0.4655
  125MOL   C17747545   0.867   3.408   2.044 -0.6500  0.6770  0.1064
  125MOL   C17847546   1.004   3.407   2.111 -0.9257 -0.5929 -0.6378
  125MOL   O17947547   0.802   3.495   1.614  0.0862  0.0189  0.1300
  125MOL   H18047548   0.848   3.716   1.588  0.2917  1.3083  0.2393
  125MOL   H18147549   0.993   3.738   1.690 -1.9272 -0.2897  1.0976
  125MOL   H18247550   1.004   3.471   1.642  0.9961  0.8191  2.1982
  125MOL   H18347551   1.026   3.573   1.864 -0.5367 -1.0319  0.6677
  125MOL   H18447552   0.856   3.626   1.860 -0.0158 -0.4367  1.8659
  125MOL   H18547553   0.797   3.373   1.846 -0.8278  0.5702  1.0674
  125MOL   H18647554   0.966   3.339   1.853 -0.1036  0.3046 -1.5887
  125MOL   H18747555   0.807   3.494   2.073  0.8873  2.6550 -2.3717
  125MOL   H18847556   0.813   3.318   2.076 -0.8158  0.6532 -0.2374
  125MOL   H18947557   0.996   3.397   2.219 -1.6754  0.3475 -0.6023
  125MOL   H19047558   1.059   3.498   2.087  1.7691 -2.5030 -1.9622
  125MOL   H19147559   1.062   3.316   2.091  0.5378  0.6980 -2.3982
  125MOL   C19247560   0.799   3.392   1.518  0.1265  0.2615 -0.8805
  125MOL   C19347561   0.663   3.366   1.448 -0.0797  1.1437 -0.6806
  125MOL   C19447562   0.542   3.360   1.543 -0.0163 -0.8990 -0.4634
  125MOL   C19547563   0.404   3.327   1.486 -0.2241 -0.4722 -0.5102
  125MOL   C19647564   0.371   3.417   1.368 -0.6127 -0.0633 -0.5355
  125MOL   C19747565   0.343   3.571   1.400 -0.3574 -0.5711  0.0852
  125MOL   O19847566   0.671   3.243   1.373  0.0186  0.0276 -0.1091
  125MOL   H19947567   0.881   3.404   1.446  0.4912 -1.7038 -0.8221
  125MOL   H20047568   0.820   3.298   1.569  3.8349  0.1444 -2.4435
  125MOL   H20147569   0.658   3.442   1.370 -1.3771  2.2587  0.4633
  125MOL   H20247570   0.569   3.297   1.628  2.7987 -1.0979 -1.4229
  125MOL   H20347571   0.541   3.461   1.583  2.4351 -1.4841  1.1966
  125MOL   H20447572   0.332   3.327   1.567 -0.9788  0.1579 -1.1695
  125MOL   H20547573   0.413   3.226   1.446  0.2946  0.1505 -2.0040
  125MOL   H20647574   0.441   3.395   1.287 -1.0071 -0.9141 -0.6526
  125MOL   H20747575   0.280   3.371   1.331 -0.3154 -1.5264  0.5176
  125MOL   H20847576   0.359   3.623   1.306 -1.9387 -1.8901 -0.9348
  125MOL   H20947577   0.243   3.586   1.442  0.5566 -1.6410  2.7199
  125MOL   H21047578   0.415   3.609   1.472 -0.7617  0.3439  0.0196
  125MOL   C21147579   0.750   3.233   1.257 -0.0456  0.1831  0.0176
  125MOL   C21247580   0.717   3.108   1.176  0.1802 -0.0283 -0.1021
  125MOL   C21347581   0.839   3.030   1.124  0.0025  0.6582  0.2867
  125MOL   C21447582   0.938   3.116   1.041 -1.0096 -0.4795  0.7376
  125MOL   C21547583   1.047   3.036   0.978  0.2068 -0.1230 -0.0714
  125MOL   C21647584   1.138   3.104   0.869 -0.1607  0.2011 -0.1477
  125MOL   O21747585   0.630   3.142   1.072  0.6079  0.3708  0.0308
  125MOL   H21847586   0.855   3.222   1.286  0.5744 -0.0952 -2.2955
  125MOL   H21947587   0.736   3.329   1.208 -2.2938  0.2982  0.8033
  125MOL   H22047588   0.652   3.038   1.228  0.8531 -0.7497 -0.2165
  125MOL   H22147589   0.895   2.984   1.205  0.2864 -1.5884 -1.1274
  125MOL   H22247590   0.806   2.945   1.064  2.0237 -0.3587  0.5713
  125MOL   H22347591   0.883   3.164   0.960  0.3833 -0.9087 -0.4726
  125MOL   H22447592   0.970   3.204   1.095 -2.2024  0.4899 -0.1151
  125MOL   H22547593   1.115   3.011   1.060 -0.2808  2.3759  1.1178
  125MOL   H22647594   1.021   2.942   0.929  0.5679 -0.3331  0.1352
  125MOL   H22747595   1.080   3.113   0.777 -0.7662 -0.3645  0.1705
  125MOL   H22847596   1.229   3.046   0.864  1.0416  2.0650 -0.4294
  125MOL   H22947597   1.170   3.204   0.900 -0.7389  0.5878 -0.7861
  125MOL   C23047598   0.497   3.182   1.114  0.7768  0.6868  0.0368
  125MOL   C23147599   0.392   3.108   1.030 -0.0369 -0.5297 -0.3450
  125MOL   C23247600   0.435   2.966   1.007  0.0659  0.0525 -0.4903
  125MOL   C23347601   0.317   2.872   0.967 -0.1666 -0.0702 -0.1894
  125MOL   C23447602   0.373   2.745   0.904 -0.2450  0.0182 -0.3046
  125MOL   C23547603   0.259   2.652   0.862 -0.0231 -0.1451  0.0076
  125MOL   O23647604   0.385   3.163   0.909 -0.0013  0.7936  0.2495
  125MOL   H23747605   0.480   3.164   1.220 -0.1514 -2.0846 -0.5482
  125MOL   H23847606   0.489   3.290   1.102  1.3527  0.7052 -0.1936
  125MOL   H23947607   0.295   3.109   1.079  0.1404  0.1974 -0.0058
  125MOL   H24047608   0.491   2.930   1.093  0.4627 -1.0153 -1.1833
  125MOL   H24147609   0.499   2.964   0.919  1.4652  0.8691  0.4995
  125MOL   H24247610   0.247   2.922   0.900  0.3959 -0.9966 -1.5170
  125MOL   H24347611   0.243   2.854   1.045 -0.2696 -1.5886 -0.6038
  125MOL   H24447612   0.450   2.769   0.831  1.4225 -2.3379  0.6073
  125MOL   H24547613   0.437   2.690   0.973  0.6367  1.6319  0.1952
  125MOL   H24647614   0.186   2.631   0.940 -0.3829  0.6987 -0.1052
  125MOL   H24747615   0.295   2.554   0.830  1.5399  0.3468  0.2379
  125MOL   H24847616   0.201   2.685   0.776  0.0494 -3.6268 -1.4822
  125MOL   C24947617   0.282   3.266   0.893  0.2777  0.0200 -0.4763
  125MOL   C25047618   0.140   3.210   0.863 -0.3117 -0.4097  0.0654
  125MOL   C25147619   0.055   3.314   0.798  0.1850 -0.4972 -0.6675
  125MOL   C25247620   0.043   3.446   0.875  0.0782 -1.1047 -0.3928
  125MOL   C25347621   7.722   3.540   0.826 -0.4719 -0.0956 -0.6825
  125MOL   C25447622   7.745   3.687   0.882  0.2233 -0.7588  0.3167
  125MOL   O25547623   0.086   3.191   0.990  0.1628  0.1239  0.7468
  125MOL   H25647624   0.278   3.329   0.982  0.6614  3.0855 -2.5515
  125MOL   H25747625   0.322   3.328   0.813  5.1521 -1.7236  0.3980
  125MOL   H25847626   0.138   3.111   0.819  0.7406 -0.2972 -0.2533
  125MOL   H25947627   0.101   3.342   0.703 -0.5916 -0.6104 -1.0848
  125MOL   H26047628   7.741   3.271   0.782  0.3699 -1.0102 -0.4104
  125MOL   H26147629   0.012   3.438   0.980  0.1531 -0.5765 -0.3315
  125MOL   H26247630   0.142   3.491   0.869 -0.2860 -0.3649 -0.8413
  125MOL   H26347631   7.717   3.544   0.717  0.4319  0.8520 -0.7001
  125MOL   H26447632   7.623   3.513   0.862 -0.1100 -0.1995  0.2418
  125MOL   H26547633   0.045   3.720   0.823 -0.1157  0.8973  0.7371
  125MOL   H26647634   7.764   3.689   0.989 -0.8529  0.4436  0.4936
  125MOL   H26747635   7.661   3.752   0.857  1.6887  1.1559  0.2623
  125MOL   C26847636   7.743   3.130   0.996  0.1303 -0.5509 -0.4025
  125MOL   C26947637   7.730   3.100   1.143  0.6410 -0.6425 -1.1441
  125MOL   C27047638   7.626   2.994   1.176  0.0089 -0.1940 -0.1315
  125MOL   C27147639   7.474   3.030   1.161 -0.3544 -0.4547  0.6245
  125MOL   C27247640   7.394   2.904   1.194  0.5850  0.0575 -0.5905
  125MOL   C27347641   7.412   2.798   1.085 -0.5526  0.8046  0.4361
  125MOL   O27447642   7.693   3.223   1.203 -0.6424  0.2047 -0.7401
  125MOL   H27547643   7.753   3.040   0.936  2.3196  0.7359 -2.0260
  125MOL   H27647644   7.660   3.196   0.969  0.5014  0.0210 -0.1708
  125MOL   H27747645   0.041   3.063   1.177  0.9253 -1.7363 -3.0676
  125MOL   H27847646   7.656   2.898   1.133 -0.1698 -0.3783  0.1538
  125MOL   H27947647   7.631   2.985   1.284 -0.8801 -2.3599 -0.2351
  125MOL   H28047648   7.450   3.109   1.232 -0.2840  1.2095 -1.1608
  125MOL   H28147649   7.455   3.080   1.067  0.4223 -1.4068 -0.0490
  125MOL   H28247650   7.425   2.864   1.290 -2.8626  3.0515  1.8937
  125MOL   H28347651   7.292   2.942   1.204  2.2404  4.6883 -0.4279
  125MOL   H28447652   7.352   2.708   1.098  0.2947  0.3252  1.0294
  125MOL   H28547653   7.381   2.838   0.988 -0.7203  0.2205  0.2470
  125MOL   H28647654   7.513   2.759   1.081 -1.0868 -0.5416  0.0004
  125MOL   C28747655   7.784   3.266   1.296  0.4233  0.2058 -0.1371
  125MOL   C28847656   7.712   3.378   1.372  0.2141 -0.8060  0.2754
  125MOL   C28947657   7.692   3.507   1.288  0.4503  0.0726 -0.0584
  125MOL   C29047658   7.541   3.543   1.269 -0.1449 -0.3114  0.2434
  125MOL   C29147659   7.512   3.672   1.190  0.1387  0.3291 -0.1001
  125MOL   C29247660   7.371   3.725   1.206 -0.1893 -0.1318 -0.2007
  125MOL   O29347661   7.778   3.407   1.497 -0.1708 -0.1032 -0.4330
  125MOL   H29447662   0.088   3.310   1.253  1.1169 -1.0548 -0.0074
  125MOL   H29547663   0.025   3.196   1.376  0.9241  1.4363  0.7934
  125MOL   H29647664   7.617   3.338   1.409 -0.6871  0.3779 -0.7116
  125MOL   H29747665   7.738   3.590   1.340  0.0995  0.2411 -0.0202
  125MOL   H29847666   7.752   3.483   1.200 -0.2951 -1.4908 -0.1638
  125MOL   H29947667   7.488   3.459   1.223 -2.6801  0.4572  1.7088
  125MOL   H30047668   7.488   3.565   1.361 -1.4090  1.7172 -0.9135
  125MOL   H30147669   7.522   3.664   1.082 -2.6371 -0.4873 -0.3448
  125MOL   H30247670   7.589   3.740   1.226 -1.5637  2.0595  0.3400
  125MOL   H30347671   7.378   3.809   1.275 -0.8162  0.6914 -1.1329
  125MOL   H30447672   7.325   3.760   1.114  1.2382  0.7306 -0.5963
  125MOL   H30547673   7.314   3.644   1.252 -2.5778  1.1314 -0.8913
  125MOL   C30647674   7.708   3.463   1.608  0.0626 -0.2833 -0.1492
  125MOL   C30747675   0.018   3.551   1.699  0.2989 -0.0129 -0.8111
  125MOL   C30847676   7.739   3.576   1.842  0.3518  0.2511  0.1948
  125MOL   C30947677   7.618   3.674   1.854  0.5447  0.1516 -0.2499
  125MOL   C31047678   7.561   3.666   1.998  0.0005  0.0212  0.7752
  125MOL   C31147679   7.439   3.747   2.007  0.5964  0.2608 -0.5545
  125MOL   O31247680   0.039   3.670   1.624  0.4841  0.3159 -0.1991
  125MOL   H31347681   7.618   3.519   1.582 -2.5502 -3.4409  1.6882
  125MOL   H31447682   7.670   3.383   1.671 -0.4945  0.1645  0.0950
  125MOL   H31547683   0.110   3.493   1.705  0.1357 -0.1512  0.5162
  125MOL   H31647684   0.041   3.608   1.898  0.4972 -0.9428  0.6572
  125MOL   H31747685   7.709   3.483   1.891 -1.8218  1.4174  1.1238
  125MOL   H31847686   7.651   3.768   1.809  1.2059 -1.3643 -3.0789
  125MOL   H31947687   7.542   3.634   1.786  0.1384  1.2863 -0.4703
  125MOL   H32047688   7.640   3.682   2.072  1.8540 -0.6364 -1.0110
  125MOL   H32147689   7.549   3.559   2.014  1.4145 -0.1149  1.0149
  125MOL   H32247690   7.452   3.856   2.006 -0.6241  0.4647  1.3660
  125MOL   H32347691   7.367   3.717   1.931  0.4043 -1.3178  0.2435
  125MOL   H32447692   7.393   3.726   2.104 -1.8056 -2.1948 -2.1660
  125MOL   C32547693   0.146   3.751   1.658 -0.1273  0.5217 -0.0794
  125MOL   C32647694   0.179   3.855   1.551 -0.4462  0.8794  0.8197
  125MOL   C32747695   0.291   3.951   1.593  0.0903  0.2478 -0.4551
  125MOL   C32847696   0.428   3.877   1.622  0.1712  0.2217 -0.4017
  125MOL   C32947697   0.544   3.975   1.641  0.5233 -0.2145 -0.0761
  125MOL   C33047698   0.567   4.030   1.787 -0.4920  0.1430  0.2387
  125MOL   O33147699   0.065   3.934   1.544  0.9296  0.1962 -0.1309
  125MOL   H33247700   0.233   3.687   1.672  1.0508  2.1534  0.1679
  125MOL   H33347701   0.121   3.801   1.752  2.3952  1.1857  0.2814
  125MOL   H33447702   0.215   3.810   1.458  0.7484  0.8267  1.2961
  125MOL   H33547703   0.302   4.017   1.507 -1.7856  0.6539 -0.4131
  125MOL   H33647704   0.264   4.004   1.684  0.9733 -0.1018  0.0210
  125MOL   H33747705   0.414   3.808   1.705 -0.3284 -0.2687 -0.8845
  125MOL   H33847706   0.441   3.807   1.540  0.3559  1.5291 -1.5085
  125MOL   H33947707   0.638   3.923   1.626 -0.5076 -2.5302  1.3311
  125MOL   H34047708   0.530   4.045   1.558 -1.8338  1.4187  1.6315
  125MOL   H34147709   0.473   4.064   1.830 -0.4503 -1.7705  1.9553
  125MOL   H34247710   0.584   3.943   1.851  1.6049  1.3450  1.3816
  125MOL   H34347711   0.646   4.105   1.794  1.4083 -1.7996  0.2416
  125MOL   C34447712   0.010   3.932   1.416  0.2758 -0.2245  0.4193
  125MOL   C34547713   7.667   4.013   1.400 -0.8724 -0.4575 -0.0440
  125MOL   C34647714   7.673   4.063   1.252 -0.2954  0.6208 -0.8394
  125MOL   C34747715   7.539   4.103   1.193  0.3066 -0.2898 -0.7585
  125MOL   C34847716   7.561   4.146   1.042  0.6939 -0.3610 -0.4370
  125MOL   C34947717   7.437   4.225   0.980 -0.9282 -0.2148  1.1198
  125MOL   O35047718   7.548   3.935   1.434 -0.0368 -0.5526  0.1546
  125MOL   H35147719   0.014   3.837   1.363 -1.0546 -0.4033  0.6269
  125MOL   H35247720   0.084   3.983   1.354 -1.7827 -0.5611 -2.4049
  125MOL   H35347721   7.673   4.101   1.463 -2.3635 -0.8356  0.6525
  125MOL   H35447722   7.720   3.978   1.203 -1.1485 -0.3694  0.0217
  125MOL   H35547723   7.744   4.145   1.247  1.1659 -0.6034 -0.5301
  125MOL   H35647724   7.496   4.186   1.247  1.3781 -0.2153 -0.0097
  125MOL   H35747725   7.465   4.023   1.189 -2.4726  1.9946  2.5296
  125MOL   H35847726   7.579   4.050   0.993 -0.8651 -2.4843  2.9682
  125MOL   H35947727   7.646   4.214   1.034 -0.4056  1.0638 -0.3115
  125MOL   H36047728   7.458   4.239   0.874 -2.9215  1.7411  0.9263
  125MOL   H36147729   7.413   4.323   1.023 -0.1977  0.2520  0.4796
  125MOL   H36247730   7.349   4.162   0.995 -1.3685  0.2946  0.7207
  125MOL   C36347731   7.542   3.885   1.570  0.1899 -0.2934  0.1664
  125MOL   C36447732   7.407   3.832   1.606  0.0903  0.4126 -0.3234
  125MOL   C36547733   7.284   3.925   1.571 -0.0083 -0.1643 -0.2599
  125MOL   C36647734   7.173   3.900   1.670  0.1268 -0.0405  0.1811
  125MOL   C36747735   7.065   4.010   1.668 -0.1432 -1.6052 -0.0629
  125MOL   C36847736   7.118   4.139   1.741 -0.1924 -0.1296 -0.2759
  125MOL   O36947737   7.390   3.707   1.542 -0.2114 -0.2439  0.4209
  125MOL   H37047738   7.550   3.970   1.639 -2.3732 -1.5598  2.1064
  125MOL   H37147739   7.624   3.814   1.584  1.2508  1.3783  2.9114
  125MOL   H37247740   7.421   3.821   1.714 -0.2796  1.4200 -0.1624
  125MOL   H37347741   7.324   4.025   1.586  3.3152 -1.2320 -1.6775
  125MOL   H37447742   7.255   3.915   1.467 -2.5035 -2.3076  0.5794
  125MOL   H37547743   7.130   3.806   1.636 -3.2919  1.1995  0.8937
  125MOL   H37647744   7.196   3.888   1.776  0.2215  0.6845  0.2446
  125MOL   H37747745   7.042   4.038   1.565  1.1084 -0.9458 -0.1779
  125MOL   H37847746   6.966   3.972   1.694 -0.4879 -0.3207  0.5880
  125MOL   H37947747   7.204   4.186   1.693 -1.6928  1.3760 -1.5552
  125MOL   H38047748   7.038   4.214   1.740 -0.3216 -0.2575  0.1659
  125MOL   H38147749   7.150   4.111   1.842 -1.4320  1.0586  0.4583
  125MOL   H38247750   7.388   3.721   1.448 -0.2336  2.0156  0.7163
  126MOL     C147751   4.212   0.780   4.582 -0.2540 -0.7958  0.0301
  126MOL     C247752   4.243   0.860   4.709  0.3345 -0.9955 -0.0375
  126MOL     C347753   4.377   0.937   4.711  0.0025  0.2487 -0.7728
  126MOL     C447754   4.392   1.063   4.631 -0.0864  0.5602 -0.2726
  126MOL     C547755   4.542   1.103   4.602 -0.6070  0.0339 -0.1971
  126MOL     C647756   4.610   1.156   4.726 -0.4549  0.1445  0.4838
  126MOL     O747757   4.135   0.953   4.720 -0.7247 -1.3509 -0.3172
  126MOL     H847758   4.132   0.709   4.599  0.7193 -1.6184  1.2577
  126MOL     H947759   4.298   0.720   4.551 -0.0683 -0.2803 -0.4771
  126MOL    H1047760   4.251   0.804   4.802  0.6713 -0.7949  0.0542
  126MOL    H1147761   4.386   0.961   4.818 -1.0615 -1.0689 -0.3749
  126MOL    H1247762   4.458   0.867   4.691 -2.7010 -2.7628 -1.5712
  126MOL    H1347763   4.345   1.037   4.536  1.3658 -0.4195 -0.7570
  126MOL    H1447764   4.334   1.144   4.674 -1.1049 -0.3548  0.0891
  126MOL    H1547765   4.612   1.032   4.558 -0.3054  0.2218 -0.0261
  126MOL    H1647766   4.538   1.178   4.522 -1.3267  0.9044  0.6471
  126MOL    H1747767   4.560   1.243   4.770  0.6268  0.7062  0.6332
  126MOL    H1847768   4.622   1.076   4.799  2.1944 -0.0132 -0.0511
  126MOL    H1947769   4.713   1.175   4.696 -1.1744 -0.0039 -2.1774
  126MOL    H2047770   4.182   0.845   4.499 -1.6295 -0.2793  0.9248
  126MOL    C2147771   4.031   0.912   4.808  0.2262  0.1007 -0.6407
  126MOL    C2247772   3.909   1.016   4.802 -0.7059 -0.2666  0.3780
  126MOL    C2347773   3.780   0.966   4.856 -0.1981 -0.1987  0.4276
  126MOL    C2447774   3.793   0.942   5.012  0.1432 -0.5605  0.1185
  126MOL    C2547775   3.658   0.907   5.078 -0.7989  0.3580  0.0584
  126MOL    C2647776   3.649   0.924   5.228  0.3435  0.3370  0.6900
  126MOL    O2747777   3.935   1.138   4.870  0.6666  0.5249  0.1925
  126MOL    H2847778   3.981   0.819   4.785 -1.8812  0.0385  3.6239
  126MOL    H2947779   4.088   0.905   4.900 -0.5034 -0.8725 -0.2544
  126MOL    H3047780   3.890   1.045   4.698 -1.5394  1.3550  0.9618
  126MOL    H3147781   3.743   0.874   4.811  2.5324 -0.3609 -1.6152
  126MOL    H3247782   3.702   1.041   4.843 -2.6656 -2.5324  1.4280
  126MOL    H3347783   3.840   1.027   5.062  1.4425 -0.7564 -0.7236
  126MOL    H3447784   3.860   0.859   5.033 -0.3646 -1.1730 -0.6470
  126MOL    H3547785   3.583   0.976   5.040  0.3851  1.8387  0.3881
  126MOL    H3647786   3.621   0.819   5.025 -4.1163  1.7339 -0.0671
  126MOL    H3747787   3.546   0.905   5.259  0.5792  2.3666  2.8467
  126MOL    H3847788   3.666   1.027   5.258 -0.6176  0.7123 -0.0518
  126MOL    H3947789   3.722   0.858   5.275 -0.5999 -0.9828  0.3312
  126MOL    C4047790   4.053   1.207   4.835 -0.9555  0.2105  0.2614
  126MOL    C4147791   4.035   1.346   4.853 -0.2017 -0.3614 -0.5249
  126MOL    C4247792   4.012   1.427   4.728  0.7091  0.8752  0.7780
  126MOL    C4347793   3.972   1.573   4.752 -0.7126 -0.1535  0.2458
  126MOL    C4447794   3.950   1.646   4.618  0.0688  0.3275  0.3128
  126MOL    C4547795   3.914   1.800   4.640 -0.1482 -0.2094  0.1083
  126MOL    O4647796   4.154   1.400   4.915 -0.3684  0.2990  0.1256
  126MOL    H4747797   4.093   1.196   4.735  0.5317  2.0340  0.6373
  126MOL    H4847798   4.127   1.157   4.898  0.6471 -0.2668 -1.9413
  126MOL    H4947799   3.953   1.362   4.923  0.2697 -0.0219 -0.0419
  126MOL    H5047800   4.100   1.435   4.666 -0.2785 -0.9642 -0.9094
  126MOL    H5147801   3.933   1.398   4.658  2.9606  4.7628 -3.6719
  126MOL    H5247802   4.053   1.612   4.814  1.0237  0.0162 -2.0488
  126MOL    H5347803   3.883   1.572   4.815  1.4874 -2.0263  3.4605
  126MOL    H5447804   4.035   1.637   4.550 -0.1726 -1.0971  0.1944
  126MOL    H5547805   3.860   1.610   4.569  1.2549  0.9718 -2.4240
  126MOL    H5647806   3.834   1.797   4.715 -0.7434  0.6939 -0.4679
  126MOL    H5747807   3.996   1.867   4.667 -0.9829  0.0696  2.0248
  126MOL    H5847808   3.863   1.839   4.551 -2.1822  1.3685  1.9069
  126MOL    C5947809   4.139   1.435   5.050  0.7574  0.4934  0.3671
  126MOL    C6047810   4.274   1.471   5.107  0.0751  0.0134  0.1410
  126MOL    C6147811   4.390   1.371   5.082 -0.7539  0.5808 -0.1437
  126MOL    C6247812   4.394   1.249   5.176  0.1794 -0.1746  0.1509
  126MOL    C6347813   4.495   1.144   5.122 -0.0845 -0.5134  0.9481
  126MOL    C6447814   4.639   1.192   5.140  0.1188  0.3054  0.2000
  126MOL    O6547815   4.303   1.609   5.074  0.1492 -0.5530 -0.4802
  126MOL    H6647816   4.096   1.352   5.107  0.7441  0.4781  0.3353
  126MOL    H6747817   4.068   1.518   5.046  0.9954  0.6368 -1.4024
  126MOL    H6847818   4.248   1.477   5.212 -0.2693  0.7183  0.0195
  126MOL    H6947819   4.481   1.427   5.104 -0.2666 -1.1779  2.4785
  126MOL    H7047820   4.388   1.347   4.975  2.8445  2.7511 -0.8180
  126MOL    H7147821   4.292   1.211   5.189  0.0699 -0.0183 -0.2413
  126MOL    H7247822   4.417   1.285   5.277  1.0856 -0.9794  0.2366
  126MOL    H7347823   4.476   1.121   5.017  2.2681  1.2411  0.1000
  126MOL    H7447824   4.484   1.058   5.188 -3.3084  0.2735  1.5349
  126MOL    H7547825   4.707   1.115   5.104 -1.2422  0.2692 -2.4166
  126MOL    H7647826   4.652   1.280   5.078 -0.6907  1.0855  1.1133
  126MOL    H7747827   4.662   1.224   5.242  0.0177  0.6010  0.1307
  126MOL    C7847828   4.358   1.635   4.945 -0.3849 -0.6440  0.5156
  126MOL    C7947829   4.324   1.779   4.910  0.2227  0.8012 -0.2576
  126MOL    C8047830   4.324   1.816   4.763  0.2617 -0.6602  0.2769
  126MOL    C8147831   4.284   1.962   4.730  0.0963  0.0439  0.9906
  126MOL    C8247832   4.265   1.999   4.589 -0.3538 -0.1537  0.7251
  126MOL    C8347833   4.242   2.151   4.582  0.3491  0.0239  0.0410
  126MOL    O8447834   4.430   1.853   4.958  0.2320 -0.3656  0.2602
  126MOL    H8547835   4.292   1.582   4.875 -0.7654  0.8256 -0.2697
  126MOL    H8647836   4.458   1.594   4.946  0.9732  2.5295  0.7433
  126MOL    H8747837   4.229   1.812   4.951 -1.0074  0.1096 -2.4626
  126MOL    H8847838   4.421   1.814   4.713  0.0470  1.1834 -0.2419
  126MOL    H8947839   4.251   1.748   4.720  0.4501 -0.1003 -0.9478
  126MOL    H9047840   4.358   2.022   4.784  0.1388  1.3332 -0.4325
  126MOL    H9147841   4.189   1.981   4.779 -0.7822  0.9778 -0.9828
  126MOL    H9247842   4.353   1.986   4.527 -0.1261  0.9748  0.7987
  126MOL    H9347843   4.182   1.943   4.545  0.1772 -1.7430  1.7008
  126MOL    H9447844   4.235   2.181   4.477  0.9221  3.1120  0.8374
  126MOL    H9547845   4.327   2.208   4.619 -0.3067  2.9812 -2.7699
  126MOL    H9647846   4.155   2.182   4.641 -0.9134 -0.8757 -1.3028
  126MOL    C9747847   4.399   1.932   5.075  0.0097  0.4970 -0.3928
  126MOL    C9847848   4.524   2.008   5.113  0.0251  0.2466 -0.0192
  126MOL    C9947849   4.618   2.040   4.998 -0.1474  0.0552  0.2447
  126MOL   C10047850   4.747   2.113   5.020 -0.3131 -0.4282  0.6099
  126MOL   C10147851   4.841   2.042   5.121  0.4504  0.1639 -0.6668
  126MOL   C10247852   4.979   2.103   5.140  0.4073  0.1417 -0.1458
  126MOL   O10347853   4.491   2.138   5.160 -0.1748 -0.3382 -0.3732
  126MOL   H10447854   4.357   1.877   5.159  1.6814  0.1884  0.2629
  126MOL   H10547855   4.317   1.998   5.044  0.2351  0.8185 -0.3076
  126MOL   H10647856   4.570   1.943   5.187 -0.7623 -0.1487  0.1336
  126MOL   H10747857   4.573   2.086   4.910 -1.0226  0.0563  0.6958
  126MOL   H10847858   4.655   1.943   4.964  1.7225  1.3928 -1.6928
  126MOL   H10947859   4.725   2.212   5.061  1.3133  0.9660 -1.7803
  126MOL   H11047860   4.800   2.134   4.927 -2.6014 -0.3177 -0.6964
  126MOL   H11147861   4.857   1.943   5.078 -0.9735  0.0012 -0.8570
  126MOL   H11247862   4.782   2.033   5.212  0.5916 -1.5611 -0.7217
  126MOL   H11347863   5.028   2.104   5.042  1.8629  1.0646  0.5641
  126MOL   H11447864   4.961   2.204   5.176 -0.6749  0.7961 -2.4573
  126MOL   H11547865   5.043   2.048   5.210 -0.1195 -0.9595 -0.5183
  126MOL   C11647866   4.447   2.149   5.290  0.3628 -0.3276  0.6092
  126MOL   C11747867   4.370   2.287   5.308  0.0919 -0.3976 -0.5620
  126MOL   C11847868   4.361   2.336   5.451 -0.0275 -0.0071  0.5554
  126MOL   C11947869   4.308   2.480   5.464 -0.6850 -0.2508  0.2849
  126MOL   C12047870   4.334   2.554   5.590 -0.7382  0.0344  0.7443
  126MOL   C12147871   4.474   2.584   5.616  0.7305 -0.7519  0.3653
  126MOL   O12247872   4.241   2.278   5.254  0.1157  0.6503  0.4426
  126MOL   H12347873   4.385   2.065   5.323 -0.7829 -0.0225 -0.7420
  126MOL   H12447874   4.526   2.141   5.364 -0.6254 -0.3059  1.6877
  126MOL   H12547875   4.420   2.364   5.250  0.6865 -2.0150 -2.2565
  126MOL   H12647876   4.292   2.268   5.502  1.9435 -2.1359  0.4608
  126MOL   H12747877   4.452   2.325   5.509  2.2375  3.4380 -2.1403
  126MOL   H12847878   4.202   2.489   5.442 -1.0957 -3.7725  0.6584
  126MOL   H12947879   4.359   2.535   5.385 -0.5817  0.2314  0.6825
  126MOL   H13047880   4.268   2.641   5.597 -0.7618  0.1074 -0.3438
  126MOL   H13147881   4.303   2.487   5.670  1.9459 -0.1359  1.6972
  126MOL   H13247882   4.513   2.654   5.542 -0.3766 -1.3851 -0.8312
  126MOL   H13347883   4.476   2.646   5.705  0.5114  0.7536 -0.6732
  126MOL   H13447884   4.544   2.501   5.626  2.0232  0.2909  0.1320
  126MOL   C13547885   4.224   2.319   5.120 -0.3017 -0.2058 -0.5544
  126MOL   C13647886   4.082   2.298   5.062  0.6593 -0.6122  0.2068
  126MOL   C13747887   4.062   2.146   5.039  0.1136 -0.5393 -0.2912
  126MOL   C13847888   3.918   2.096   5.018 -0.0248 -0.3795  0.3786
  126MOL   C13947889   3.916   1.949   4.975 -0.1022 -0.0259  0.3698
  126MOL   C14047890   3.949   1.859   5.095  0.3792  0.1777 -0.7245
  126MOL   O14147891   4.054   2.368   4.937  0.1481  0.2345  0.5305
  126MOL   H14247892   4.258   2.422   5.112  2.4623 -0.8692  1.7472
  126MOL   H14347893   4.299   2.276   5.054  1.2589 -0.4732  1.3306
  126MOL   H14447894   4.000   2.322   5.130 -0.2735  0.1056 -1.1592
  126MOL   H14547895   4.115   2.109   4.950  0.3746  1.3874 -0.9599
  126MOL   H14647896   4.096   2.094   5.129  0.9706  1.2116  0.4166
  126MOL   H14747897   3.878   2.155   4.935  2.2040  1.0741  0.2910
  126MOL   H14847898   3.865   2.108   5.112  0.3021  1.4539  0.3445
  126MOL   H14947899   3.984   1.922   4.894 -0.9609 -0.7725 -0.1112
  126MOL   H15047900   3.819   1.927   4.930  1.0943  0.2821 -2.4807
  126MOL   H15147901   4.041   1.897   5.139 -0.8715  1.0069  1.2076
  126MOL   H15247902   3.871   1.869   5.171  0.3673  1.6733 -0.9294
  126MOL   H15347903   3.971   1.753   5.084  0.1036 -0.1065  1.3440
  126MOL   C15447904   4.023   2.508   4.953 -0.2090 -0.6453 -0.1912
  126MOL   C15547905   4.040   2.594   4.831 -0.1645 -0.2819 -0.5855
  126MOL   C15647906   3.985   2.739   4.850  0.1174 -0.3027 -0.0649
  126MOL   C15747907   4.017   2.825   4.731  0.3367  0.1138  0.2603
  126MOL   C15847908   3.931   2.947   4.725 -0.7407  0.3675 -0.5633
  126MOL   C15947909   3.935   3.034   4.850  0.0781 -0.3732 -0.0005
  126MOL   O16047910   4.182   2.610   4.796  0.7217 -0.2011  0.1436
  126MOL   H16147911   4.076   2.561   5.032  0.7793 -0.8610 -0.7052
  126MOL   H16247912   3.918   2.497   4.979  0.1703 -2.2257  0.7574
  126MOL   H16347913   3.982   2.544   4.753  2.7984 -3.2305 -0.9998
  126MOL   H16447914   4.022   2.789   4.940 -0.5931  0.8993 -0.4228
  126MOL   H16547915   3.877   2.734   4.865  0.2100 -0.9601  0.4435
  126MOL   H16647916   4.012   2.761   4.644 -1.3763  1.6485 -0.8144
  126MOL   H16747917   4.124   2.847   4.735  0.4108 -0.4016  1.7509
  126MOL   H16847918   3.957   3.009   4.639  3.1693  1.1073  1.0713
  126MOL   H16947919   3.826   2.917   4.724 -0.8244  0.4386  2.3080
  126MOL   H17047920   4.038   3.064   4.871 -0.2219 -1.7406  3.7248
  126MOL   H17147921   3.876   2.990   4.930 -0.1644 -1.0109 -0.5205
  126MOL   H17247922   3.889   3.131   4.830  0.8373  0.0163  0.1136
  126MOL   C17347923   4.241   2.502   4.722  0.1451 -0.1357 -0.1681
  126MOL   C17447924   4.381   2.560   4.678  0.8439  0.7957  0.7298
  126MOL   C17547925   4.379   2.692   4.600  0.5098  0.2665  0.2182
  126MOL   C17647926   4.513   2.726   4.540 -0.1006  0.6686 -0.0820
  126MOL   C17747927   4.525   2.869   4.478  0.0022  0.7706  0.6614
  126MOL   C17847928   4.669   2.910   4.442 -0.5085  0.4520 -0.2993
  126MOL   O17947929   4.482   2.550   4.777 -0.0657 -0.0830 -0.2213
  126MOL   H18047930   4.176   2.482   4.637 -0.1076  1.4288 -0.3514
  126MOL   H18147931   4.244   2.419   4.792 -2.4415  0.4407  0.6492
  126MOL   H18247932   4.399   2.489   4.596 -0.1045 -0.0252  1.2251
  126MOL   H18347933   4.300   2.698   4.525 -0.6234 -1.6492  1.2450
  126MOL   H18447934   4.348   2.776   4.662  0.5125  1.4257 -1.3269
  126MOL   H18547935   4.591   2.702   4.612 -1.3959  1.4519  1.6026
  126MOL   H18647936   4.519   2.651   4.460  0.1115  2.1416 -1.4673
  126MOL   H18747937   4.450   2.867   4.399 -0.2377 -1.2212  0.9206
  126MOL   H18847938   4.479   2.943   4.543 -1.5829  0.4529 -0.0780
  126MOL   H18947939   4.727   2.833   4.390 -0.4606  0.8093 -0.7836
  126MOL   H19047940   4.732   2.937   4.527 -1.6720 -1.3326  1.1534
  126MOL   H19147941   4.666   2.995   4.373 -0.2428  1.8461  1.3711
  126MOL   C19247942   4.473   2.640   4.890 -0.3616 -0.2909 -0.3718
  126MOL   C19347943   4.615   2.644   4.956 -0.7861  0.7402 -0.3055
  126MOL   C19447944   4.617   2.541   5.071 -0.3974  0.0632  0.9658
  126MOL   C19547945   4.741   2.534   5.162 -0.2651  0.2698 -0.7143
  126MOL   C19647946   4.717   2.479   5.303 -0.5573 -0.0123 -0.7055
  126MOL   C19747947   4.846   2.441   5.379 -0.2716 -0.3864 -0.7053
  126MOL   O19847948   4.647   2.773   5.004  0.7091  0.4934 -0.3435
  126MOL   H19947949   4.427   2.732   4.857 -0.4079 -0.8457 -1.8933
  126MOL   H20047950   4.411   2.600   4.971  0.1527 -1.2894 -0.4627
  126MOL   H20147951   4.685   2.620   4.875  2.2992  0.7496  2.2577
  126MOL   H20247952   4.544   2.575   5.144 -1.8830 -0.5658 -0.2158
  126MOL   H20347953   4.586   2.438   5.056  0.3093 -0.1359  0.8295
  126MOL   H20447954   4.804   2.623   5.157 -0.8518  0.6981 -0.6282
  126MOL   H20547955   4.803   2.459   5.113  1.9917  1.1832  0.6503
  126MOL   H20647956   4.660   2.555   5.357  1.2122  0.4388  0.6070
  126MOL   H20747957   4.659   2.387   5.290  0.6953 -1.0130  0.5522
  126MOL   H20847958   4.818   2.437   5.484  2.1850 -1.7654 -0.0709
  126MOL   H20947959   4.895   2.349   5.348  1.1927 -0.3393  1.3934
  126MOL   H21047960   4.907   2.528   5.356 -1.3867  0.6637  0.2292
  126MOL   C21147961   4.646   2.878   4.902 -0.2038  0.6534 -0.1683
  126MOL   C21247962   4.714   3.004   4.970  0.6480 -0.1856  0.0010
  126MOL   C21347963   4.670   3.131   4.896  0.3453  0.0833  0.4263
  126MOL   C21447964   4.741   3.258   4.947 -0.5605  0.5080 -0.1415
  126MOL   C21547965   4.665   3.385   4.923  0.3301  0.2767  0.0890
  126MOL   C21647966   4.738   3.511   4.980  0.3588 -0.3546  0.8645
  126MOL   O21747967   4.860   2.990   4.965 -0.3302 -0.3185  0.5342
  126MOL   H21847968   4.541   2.891   4.875  0.1590  1.3213 -1.3256
  126MOL   H21947969   4.711   2.855   4.817 -0.2642  2.5897 -0.7626
  126MOL   H22047970   4.674   2.992   5.071  0.0566 -0.1070 -0.2268
  126MOL   H22147971   4.687   3.127   4.789  2.3126  1.4392  0.6661
  126MOL   H22247972   4.564   3.148   4.912  0.3928  0.8837 -0.0991
  126MOL   H22347973   4.752   3.246   5.054  0.8484 -0.8791 -0.4259
  126MOL   H22447974   4.839   3.258   4.898 -1.4601  1.2160 -2.0059
  126MOL   H22547975   4.672   3.390   4.815  0.4491 -0.6980  0.0457
  126MOL   H22647976   4.564   3.391   4.964 -0.8675  0.1202 -2.7159
  126MOL   H22747977   4.846   3.506   4.968 -0.0119 -1.2962 -2.6560
  126MOL   H22847978   4.728   3.509   5.089 -0.8087 -2.9863  0.7564
  126MOL   H22947979   4.706   3.603   4.931  0.0468 -0.1864  1.3839
  126MOL   C23047980   4.914   2.885   5.036  0.3074  0.0812  0.1462
  126MOL   C23147981   5.069   2.905   5.040 -0.4515 -0.0068  0.8304
  126MOL   C23247982   5.150   2.778   5.080 -0.0457 -0.7369  0.3743
  126MOL   C23347983   5.298   2.802   5.051 -0.5040 -0.3824 -0.0667
  126MOL   C23447984   5.389   2.673   5.056  0.2574  0.8028 -0.4231
  126MOL   C23547985   5.375   2.599   5.191 -0.3393 -0.2023  1.0825
  126MOL   O23647986   5.103   3.002   5.145  0.3898  0.4130 -0.3649
  126MOL   H23747987   4.859   2.870   5.130 -0.8315 -0.9889 -0.6755
  126MOL   H23847988   4.895   2.793   4.981  1.7840  1.0317 -2.0016
  126MOL   H23947989   5.102   2.943   4.944  0.5422 -1.4703  0.5741
  126MOL   H24047990   5.110   2.691   5.027  1.8622 -1.1254 -0.4509
  126MOL   H24147991   5.153   2.754   5.186 -2.1443 -1.8775  0.2142
  126MOL   H24247992   5.329   2.871   5.130  1.0853 -1.1350 -0.0249
  126MOL   H24347993   5.311   2.858   4.958 -2.3464  1.2416  0.6032
  126MOL   H24447994   5.354   2.601   4.982 -1.2050  0.7262  0.3316
  126MOL   H24547995   5.494   2.701   5.045  0.3106 -0.2361 -2.7093
  126MOL   H24647996   5.400   2.665   5.274  0.5190  1.1530 -0.2528
  126MOL   H24747997   5.446   2.516   5.196  0.8795  0.8797  1.9633
  126MOL   H24847998   5.278   2.553   5.214 -0.3262 -0.5370  0.4903
  126MOL   C24947999   5.064   3.137   5.124  0.1556  0.0568 -0.7610
  126MOL   C25048000   5.133   3.231   5.225 -0.6425  0.2104 -0.5250
  126MOL   C25148001   5.045   3.363   5.242  0.4058 -0.0719 -0.1481
  126MOL   C25248002   5.105   3.446   5.365  0.3688  0.5509 -0.4777
  126MOL   C25348003   5.044   3.588   5.387 -0.2349  0.3054 -0.1576
  126MOL   C25448004   5.054   3.650   5.532 -0.6782  0.3350  0.4966
  126MOL   O25548005   5.266   3.271   5.202 -0.5834  0.1855  0.0239
  126MOL   H25648006   5.082   3.167   5.021  0.1550  2.2972 -0.1411
  126MOL   H25748007   4.957   3.130   5.143  0.4467  0.1987  1.1197
  126MOL   H25848008   5.136   3.174   5.318  3.0093 -1.8462 -1.8301
  126MOL   H25948009   5.049   3.421   5.150 -3.2263  1.2172  0.4197
  126MOL   H26048010   4.942   3.340   5.267  0.9138 -1.1442  1.0668
  126MOL   H26148011   5.086   3.387   5.454 -3.0212  2.1435 -0.0797
  126MOL   H26248012   5.214   3.453   5.358  0.6358 -1.9306  0.6924
  126MOL   H26348013   5.111   3.643   5.322 -0.6441  0.0278 -0.8180
  126MOL   H26448014   4.941   3.589   5.351 -0.1118  0.4389 -0.5023
  126MOL   H26548015   5.045   3.593   5.625  0.8012 -1.0221 -0.1509
  126MOL   H26648016   4.973   3.722   5.534 -1.3594 -0.4299  0.7226
  126MOL   H26748017   5.148   3.704   5.546  0.7684 -2.0603  0.4181
  126MOL   C26848018   5.372   3.178   5.209  0.6042 -0.8816 -0.5076
  126MOL   C26948019   5.386   3.124   5.356 -0.1939  0.7437  0.5949
  126MOL   C27048020   5.365   3.220   5.475 -0.0134 -0.2012 -0.2252
  126MOL   C27148021   5.362   3.155   5.610 -0.1171  0.0018  0.4151
  126MOL   C27248022   5.343   3.245   5.728  0.0309  0.2402 -0.2782
  126MOL   C27348023   5.461   3.333   5.767 -0.4911  0.2812  0.1465
  126MOL   O27448024   5.526   3.083   5.368 -0.1468 -0.1061  0.5021
  126MOL   H27548025   5.463   3.227   5.173  0.3868 -1.5022 -1.9142
  126MOL   H27648026   5.353   3.101   5.134  0.9224 -0.8291 -0.6442
  126MOL   H27748027   5.312   3.045   5.376 -0.1377  0.7571  0.8630
  126MOL   H27848028   5.435   3.303   5.471  0.1238 -0.2620  0.8891
  126MOL   H27948029   5.269   3.270   5.465 -0.4796 -1.1003 -0.3528
  126MOL   H28048030   5.280   3.084   5.613 -1.7897  1.9405  2.0501
  126MOL   H28148031   5.449   3.089   5.614  1.2058  1.3732 -3.3533
  126MOL   H28248032   5.254   3.304   5.704 -0.9265 -1.8760 -2.0613
  126MOL   H28348033   5.317   3.176   5.808 -0.6380 -0.6879 -1.2839
  126MOL   H28448034   5.541   3.279   5.818  0.4819  0.0011 -1.6415
  126MOL   H28548035   5.507   3.373   5.677  0.3630  1.3700  1.0677
  126MOL   H28648036   5.425   3.412   5.833  1.6853 -0.6213  2.5007
  126MOL   C28748037   5.567   2.957   5.319 -0.0428  0.2030 -0.9461
  126MOL   C28848038   5.711   2.915   5.342 -0.0274  0.7556 -0.1480
  126MOL   C28948039   5.746   2.792   5.251 -0.3595 -0.5920  0.1391
  126MOL   C29048040   5.896   2.757   5.240 -0.0833  0.3437  0.4270
  126MOL   C29148041   5.935   2.663   5.125 -0.6270  0.2381 -0.8149
  126MOL   C29248042   5.962   2.513   5.173  0.0032 -0.8238  0.4383
  126MOL   O29348043   5.719   2.861   5.472 -0.0915  0.2041  0.2527
  126MOL   H29448044   5.528   2.946   5.217 -0.2903  1.8333 -1.0266
  126MOL   H29548045   5.503   2.889   5.375  1.4622  0.8773  1.6587
  126MOL   H29648046   5.779   2.995   5.312  3.5169 -2.5292 -1.4309
  126MOL   H29748047   5.693   2.706   5.293  2.5160 -2.6710 -0.3836
  126MOL   H29848048   5.706   2.810   5.151  1.2406 -1.4070 -0.6632
  126MOL   H29948049   5.951   2.851   5.231  0.1851  0.0748 -0.7163
  126MOL   H30048050   5.930   2.718   5.336 -1.0326  1.9455  1.4589
  126MOL   H30148051   6.032   2.696   5.087 -0.6360 -0.9601 -1.9103
  126MOL   H30248052   5.864   2.671   5.043 -1.0451 -0.6878 -0.5512
  126MOL   H30348053   6.033   2.498   5.254 -0.6128 -0.5435  1.0372
  126MOL   H30448054   5.866   2.468   5.200 -0.4355  1.0697  2.1253
  126MOL   H30548055   6.001   2.463   5.084 -1.2825  1.2448 -1.3499
  126MOL   C30648056   5.779   2.943   5.572 -1.0678 -0.3832 -0.3840
  126MOL   C30748057   5.823   2.873   5.704  0.3925 -0.1091  0.7185
  126MOL   C30848058   5.939   2.770   5.677 -0.0359 -0.7480 -0.1995
  126MOL   C30948059   6.017   2.726   5.802  0.7090  0.0640 -0.2792
  126MOL   C31048060   6.110   2.611   5.778  0.0824 -0.8199 -0.1193
  126MOL   C31148061   6.178   2.566   5.909 -0.2237  0.3461  0.5337
  126MOL   O31248062   5.717   2.793   5.749 -0.9927  0.5430 -0.0085
  126MOL   H31348063   5.872   2.991   5.541 -0.0139 -1.7148  0.6802
  126MOL   H31448064   5.711   3.027   5.585 -0.1266  0.4814 -0.9998
  126MOL   H31548065   5.857   2.947   5.777  0.3711  1.5276 -0.8965
  126MOL   H31648066   6.011   2.820   5.612 -0.8402  1.7195  0.7349
  126MOL   H31748067   5.888   2.696   5.614 -0.7129  0.8070 -1.5332
  126MOL   H31848068   6.065   2.818   5.834  0.1479 -0.0890  1.0359
  126MOL   H31948069   5.949   2.699   5.883  1.0941 -2.5901 -0.7733
  126MOL   H32048070   6.188   2.620   5.702  0.7148 -0.1648  0.5974
  126MOL   H32148071   6.050   2.524   5.749 -0.5517 -0.5259  0.3126
  126MOL   H32248072   6.268   2.509   5.888 -0.5107 -0.0872  0.4662
  126MOL   H32348073   6.215   2.656   5.958  0.8892  0.4798 -0.5375
  126MOL   H32448074   6.098   2.512   5.960  0.3675  2.2246  3.6007
  126MOL   C32548075   5.620   2.872   5.816 -0.1922  0.2148 -0.2329
  126MOL   C32648076   5.496   2.787   5.838 -0.4088  0.2987 -0.0510
  126MOL   C32748077   5.440   2.746   5.697  0.2385 -0.1417 -0.2474
  126MOL   C32848078   5.296   2.701   5.688  0.2484 -0.4346 -0.6560
  126MOL   C32948079   5.252   2.659   5.546  0.3698  0.1443  0.0480
  126MOL   C33048080   5.110   2.595   5.571 -0.1583  0.3671  0.2403
  126MOL   O33148081   5.403   2.862   5.918  0.5559  0.4398  0.4200
  126MOL   H33248082   5.599   2.974   5.784 -0.5437  0.4430  0.7010
  126MOL   H33348083   5.658   2.898   5.915 -1.4932  0.9037  0.0999
  126MOL   H33448084   5.533   2.707   5.902  1.1764  0.9589 -0.1070
  126MOL   H33548085   5.461   2.830   5.631 -0.8721  0.4391  0.1320
  126MOL   H33648086   5.506   2.664   5.667 -1.5900 -1.7983  0.1123
  126MOL   H33748087   5.278   2.630   5.769  2.8553 -0.0030  0.3590
  126MOL   H33848088   5.244   2.795   5.709  1.1355  0.4168 -2.2161
  126MOL   H33948089   5.238   2.742   5.478 -1.4724  1.3229  1.8115
  126MOL   H34048090   5.324   2.594   5.497 -0.3798  0.2252 -1.1746
  126MOL   H34148091   5.034   2.668   5.598 -1.6794 -1.5756  1.2405
  126MOL   H34248092   5.090   2.547   5.475  1.1291 -0.2594  0.2769
  126MOL   H34348093   5.107   2.514   5.644 -3.6987  0.4858  0.2816
  126MOL   C34448094   5.403   2.824   6.058 -0.5756 -0.3239  0.2588
  126MOL   C34548095   5.332   2.936   6.135 -0.2183 -0.0194 -0.5131
  126MOL   C34648096   5.282   2.866   6.267  0.2251  0.2031 -0.1240
  126MOL   C34748097   5.218   2.970   6.365  0.0268  0.5526  0.5034
  126MOL   C34848098   5.097   3.055   6.309 -0.3300 -0.0356 -0.2218
  126MOL   C34948099   5.057   3.150   6.419  0.0284 -0.4711 -0.2584
  126MOL   O35048100   5.429   3.036   6.169  0.1470  0.2930 -0.9614
  126MOL   H35148101   5.499   2.803   6.106  0.2205  0.5410 -0.9187
  126MOL   H35248102   5.348   2.730   6.064  0.6274 -1.0234  0.7132
  126MOL   H35348103   5.251   2.975   6.074 -1.4730 -0.0752  1.0889
  126MOL   H35448104   5.368   2.820   6.316 -1.2416 -3.8210 -1.1647
  126MOL   H35548105   5.213   2.786   6.240 -0.5957  1.1395 -0.8619
  126MOL   H35648106   5.297   3.035   6.402 -1.1468  0.7306  2.7583
  126MOL   H35748107   5.188   2.916   6.454  0.3352 -2.0743 -0.9269
  126MOL   H35848108   5.011   2.992   6.284 -0.2620  0.5221 -1.9508
  126MOL   H35948109   5.118   3.113   6.219 -0.3294  1.3978  0.6768
  126MOL   H36048110   5.032   3.104   6.515  0.3001  2.8253  1.4582
  126MOL   H36148111   4.982   3.224   6.391 -0.2043 -0.1986  1.0430
  126MOL   H36248112   5.141   3.218   6.434  0.2136 -0.8794  0.6235
  126MOL   C36348113   5.450   3.137   6.075  0.3971  0.0588 -0.9161
  126MOL   C36448114   5.555   3.235   6.126  0.0563 -0.1879  0.0023
  126MOL   C36548115   5.521   3.290   6.274 -0.3074 -0.3524 -0.2965
  126MOL   C36648116   5.387   3.364   6.293 -0.5859 -0.2783 -0.2269
  126MOL   C36748117   5.385   3.411   6.442  0.0256  0.1792 -0.0987
  126MOL   C36848118   5.262   3.504   6.476 -0.6067  0.3663  0.2602
  126MOL   O36948119   5.670   3.159   6.126 -0.3265 -0.0902  0.4490
  126MOL   H37048120   5.361   3.197   6.054  2.0036  2.5952 -0.6180
  126MOL   H37148121   5.479   3.084   5.985  2.2988  1.2986 -1.0553
  126MOL   H37248122   5.563   3.321   6.060  0.7393  1.7109  2.4583
  126MOL   H37348123   5.523   3.200   6.335 -2.2114  0.1711  0.5921
  126MOL   H37448124   5.608   3.343   6.312 -0.1258 -0.9714  0.1535
  126MOL   H37548125   5.383   3.450   6.226  0.6290 -0.1104 -0.0969
  126MOL   H37648126   5.299   3.304   6.272 -0.7473  0.7702 -2.7503
  126MOL   H37748127   5.380   3.318   6.499 -1.0817  0.7039  0.6887
  126MOL   H37848128   5.472   3.467   6.475  1.1889 -1.5333 -0.1658
  126MOL   H37948129   5.279   3.555   6.571 -1.6661  1.9117 -0.3675
  126MOL   H38048130   5.245   3.577   6.397  1.3254 -0.2766 -0.7840
  126MOL   H38148131   5.165   3.457   6.463 -0.2246 -0.6569  0.9578
  126MOL   H38248132   5.657   3.089   6.188 -0.8882 -1.0604 -0.7499
  127MOL     C148133   6.884   5.959   2.240  0.4069  0.1267 -0.5781
  127MOL     C248134   6.782   5.869   2.310 -0.6620  0.4341 -0.2866
  127MOL     C348135   6.803   5.865   2.463 -0.7105 -0.5598  1.0958
  127MOL     C448136   6.724   5.748   2.533 -0.1661 -0.6514 -0.5464
  127MOL     C548137   6.779   5.734   2.677  0.6801 -0.3524  0.2318
  127MOL     C648138   6.725   5.614   2.746  1.2718  0.2334  0.0034
  127MOL     O748139   6.653   5.917   2.292 -0.1737 -0.9044  0.1449
  127MOL     H848140   6.888   6.066   2.261  2.2225  0.1243 -0.7888
  127MOL     H948141   6.875   5.945   2.132 -0.2385  0.4770 -0.5717
  127MOL    H1048142   6.811   5.773   2.269 -0.0128 -0.5497  2.3482
  127MOL    H1148143   6.908   5.858   2.489 -0.2129  1.2265 -0.3040
  127MOL    H1248144   6.779   5.965   2.500  0.3787  0.7063 -1.4820
  127MOL    H1348145   6.618   5.775   2.533  0.3248  1.5545  1.9827
  127MOL    H1448146   6.739   5.651   2.485  1.7099  0.6084 -2.5812
  127MOL    H1548147   6.886   5.719   2.661  0.7981  0.3511  0.3631
  127MOL    H1648148   6.772   5.820   2.743  0.8705 -0.6821  0.6899
  127MOL    H1748149   6.618   5.632   2.748  0.8875 -2.0410  1.3058
  127MOL    H1848150   6.757   5.523   2.695  0.9730 -0.1418  0.4920
  127MOL    H1948151   6.755   5.607   2.850 -0.5349  0.0797  0.5351
  127MOL    H2048152   6.985   5.927   2.267 -0.2980 -0.8707  0.9542
  127MOL    C2148153   6.589   5.842   2.188  0.0976 -0.6248 -0.5934
  127MOL    C2248154   6.455   5.901   2.161 -0.5956 -0.5536 -0.6325
  127MOL    C2348155   6.469   6.049   2.125  0.0902  0.7794  0.4241
  127MOL    C2448156   6.326   6.111   2.109  0.5883  0.3751 -0.5558
  127MOL    C2548157   6.238   6.133   2.239 -0.1589 -0.6782  0.6286
  127MOL    C2648158   6.126   6.235   2.234 -0.5254 -0.2588 -0.1933
  127MOL    O2748159   6.373   5.835   2.067 -0.0057  0.0605 -0.0546
  127MOL    H2848160   6.647   5.826   2.097  1.1801 -2.0318  0.3304
  127MOL    H2948161   6.570   5.745   2.233 -0.3492 -0.3648 -0.2184
  127MOL    H3048162   6.395   5.906   2.252  0.2783  0.6672 -0.1068
  127MOL    H3148163   6.524   6.061   2.032  0.0698 -1.2339  0.1266
  127MOL    H3248164   6.538   6.103   2.189  0.6727 -0.8398  1.1973
  127MOL    H3348165   6.278   6.067   2.021  1.1822  1.1899 -1.2943
  127MOL    H3448166   6.358   6.208   2.072 -2.5364  1.4150 -0.6406
  127MOL    H3548167   6.186   6.040   2.264 -1.5097 -0.7913 -2.4018
  127MOL    H3648168   6.304   6.142   2.325  2.2669 -0.9881 -1.1695
  127MOL    H3748169   6.047   6.212   2.163 -1.1052  0.2743  0.2802
  127MOL    H3848170   6.182   6.326   2.211 -1.1735 -0.1077 -1.1597
  127MOL    H3948171   6.071   6.242   2.328 -0.3047 -0.9496 -0.0105
  127MOL    C4048172   6.293   5.718   2.116  0.1714  0.2355  0.6682
  127MOL    C4148173   6.193   5.669   2.013  0.4696 -0.0649  0.2667
  127MOL    C4248174   6.073   5.590   2.074  0.3816  0.3394 -0.5963
  127MOL    C4348175   5.970   5.550   1.958 -0.6683  0.0141  0.5930
  127MOL    C4448176   5.830   5.508   2.010 -0.3910 -1.1870 -0.6766
  127MOL    C4548177   5.838   5.402   2.120 -0.8562 -0.7787  0.7438
  127MOL    O4648178   6.253   5.592   1.908 -0.4748 -0.2093  0.4111
  127MOL    H4748179   6.251   5.745   2.213  1.2242  0.0927  1.1761
  127MOL    H4848180   6.358   5.633   2.135 -1.1806 -0.8838  0.3212
  127MOL    H4948181   6.149   5.756   1.964  2.6319 -0.4562 -2.4438
  127MOL    H5048182   6.114   5.507   2.132  1.4402  0.2956 -1.4160
  127MOL    H5148183   6.019   5.649   2.149 -0.8616  1.3023 -2.2202
  127MOL    H5248184   6.005   5.473   1.890 -1.0410  0.1357  0.2650
  127MOL    H5348185   5.960   5.639   1.896  0.4457 -0.3353 -0.0986
  127MOL    H5448186   5.772   5.589   2.053 -0.4924 -1.2436 -0.7082
  127MOL    H5548187   5.785   5.468   1.919  1.9303  0.5046 -2.6481
  127MOL    H5648188   5.874   5.449   2.212  1.4775  0.7987 -0.9185
  127MOL    H5748189   5.741   5.368   2.156 -0.3200 -3.7664 -0.4630
  127MOL    H5848190   5.893   5.321   2.073  0.0269  1.1696 -1.6578
  127MOL    C5948191   6.333   5.672   1.814 -0.2537  0.4022 -0.6469
  127MOL    C6048192   6.372   5.586   1.692  0.1568 -0.8059 -0.2989
  127MOL    C6148193   6.376   5.671   1.561  0.6907 -0.1196 -0.0632
  127MOL    C6248194   6.455   5.612   1.449  0.1264  0.4879  0.7007
  127MOL    C6348195   6.433   5.681   1.318  0.3719  0.2028  0.0424
  127MOL    C6448196   6.518   5.630   1.203 -0.1471 -0.5209  0.4946
  127MOL    O6548197   6.501   5.525   1.710 -0.0926  0.4159  0.4603
  127MOL    H6648198   6.418   5.721   1.860 -0.0303 -0.3329 -0.2738
  127MOL    H6748199   6.278   5.758   1.775  2.4167  2.1612 -0.6154
  127MOL    H6848200   6.293   5.511   1.677 -1.2476  0.9272 -1.8120
  127MOL    H6948201   6.424   5.766   1.587 -0.0535  0.5309 -1.0228
  127MOL    H7048202   6.271   5.692   1.541  1.1015  0.6792 -1.4423
  127MOL    H7148203   6.430   5.507   1.434  3.3052 -0.1637 -0.5413
  127MOL    H7248204   6.561   5.598   1.472 -0.0621 -1.9980  0.2103
  127MOL    H7348205   6.448   5.787   1.334  0.8166 -0.1849  2.2212
  127MOL    H7448206   6.326   5.685   1.298  0.1874  0.1471  0.9992
  127MOL    H7548207   6.499   5.524   1.189 -1.0809 -0.2433 -0.3902
  127MOL    H7648208   6.509   5.672   1.103 -1.7684  0.5093  1.0492
  127MOL    H7748209   6.622   5.651   1.228  0.2165 -2.1288  0.4021
  127MOL    C7848210   6.496   5.403   1.784  0.3051 -0.7711  0.4081
  127MOL    C7948211   6.631   5.337   1.761  0.2730 -0.3588  0.0881
  127MOL    C8048212   6.612   5.183   1.787 -0.7179  0.4645  0.3353
  127MOL    C8148213   6.734   5.114   1.729  0.1859  0.6805 -0.2284
  127MOL    C8248214   6.719   4.956   1.744  0.2320  0.5554 -0.4063
  127MOL    C8348215   6.841   4.873   1.700 -0.0275 -0.1402 -0.7885
  127MOL    O8448216   6.729   5.377   1.853  0.1801  0.5158  0.4208
  127MOL    H8548217   6.409   5.344   1.754  1.0557 -1.8225  0.2452
  127MOL    H8648218   6.485   5.434   1.888 -0.6966  2.5627 -0.6378
  127MOL    H8748219   6.672   5.360   1.662 -1.2597  2.8688  0.1241
  127MOL    H8848220   6.584   5.155   1.888  0.1208 -1.4694  0.0635
  127MOL    H8948221   6.530   5.153   1.722 -0.3140  1.9257 -0.8846
  127MOL    H9048222   6.825   5.129   1.786 -0.2167 -2.2755  1.2792
  127MOL    H9148223   6.753   5.152   1.629  0.7274  1.5934  0.2124
  127MOL    H9248224   6.712   4.939   1.852  2.3971  0.5379 -0.2451
  127MOL    H9348225   6.630   4.916   1.697 -0.6027  0.2641  1.3691
  127MOL    H9448226   6.818   4.769   1.722 -2.4118  0.6168  0.5036
  127MOL    H9548227   6.927   4.904   1.760  0.5418 -2.6721 -0.2680
  127MOL    H9648228   6.867   4.882   1.594  1.3495  1.4351 -0.3385
  127MOL    C9748229   6.782   5.508   1.856  0.3173 -0.4716  0.1798
  127MOL    C9848230   6.883   5.533   1.973  0.0822  0.3049 -0.1644
  127MOL    C9948231   6.957   5.672   1.966 -0.2326 -0.2900  0.3534
  127MOL   C10048232   7.060   5.680   2.079 -0.8139  0.0076 -0.9969
  127MOL   C10148233   7.150   5.808   2.056  0.1112  0.4803  0.4620
  127MOL   C10248234   7.272   5.807   2.143 -0.6686  0.2960  0.1463
  127MOL   O10348235   6.810   5.530   2.099 -0.4089  0.5625  0.1577
  127MOL   H10448236   6.712   5.592   1.856  1.0538  0.1616 -1.7632
  127MOL   H10548237   6.829   5.527   1.760  0.6611 -0.2062  0.3979
  127MOL   H10648238   6.965   5.461   1.967  0.1725  0.3878  0.0672
  127MOL   H10748239   6.888   5.756   1.982 -0.1674  0.3234 -2.4294
  127MOL   H10848240   7.009   5.683   1.871 -1.4872 -0.6603 -0.3951
  127MOL   H10948241   7.121   5.589   2.079 -3.2174 -1.6447 -0.1178
  127MOL   H11048242   7.016   5.694   2.178  2.8748 -1.0702  0.8970
  127MOL   H11148243   7.086   5.896   2.068 -2.0091 -0.8312 -0.8797
  127MOL   H11248244   7.187   5.805   1.954 -0.8504 -0.9680  0.1400
  127MOL   H11348245   7.344   5.875   2.097  0.2901 -1.7697 -1.5132
  127MOL   H11448246   7.255   5.837   2.247  1.4791  1.3278  0.2349
  127MOL   H11548247   7.318   5.708   2.151 -1.0593  0.0228 -0.9742
  127MOL   C11648248   6.788   5.402   2.151 -0.0569 -0.4623  0.2032
  127MOL   C11748249   6.761   5.413   2.305  0.6758  0.4521  0.2798
  127MOL   C11848250   6.878   5.404   2.403 -0.5594 -0.2567 -0.7570
  127MOL   C11948251   6.974   5.515   2.376 -0.2560  1.1651  0.3264
  127MOL   C12048252   7.076   5.527   2.494  0.3012 -0.0619  0.2683
  127MOL   C12148253   7.165   5.654   2.499 -0.6067  0.9702 -0.0710
  127MOL   O12248254   6.659   5.329   2.355  0.2724  0.0498 -0.7224
  127MOL   H12348255   6.703   5.366   2.093  0.4767 -0.8602 -0.3344
  127MOL   H12448256   6.863   5.325   2.134 -0.4095 -0.3188 -2.1393
  127MOL   H12548257   6.724   5.515   2.311  1.4935  0.8727 -1.6462
  127MOL   H12648258   6.839   5.424   2.502  0.8641 -1.6739  0.1192
  127MOL   H12748259   6.918   5.303   2.389 -0.5041 -0.2030 -0.9982
  127MOL   H12848260   6.923   5.610   2.373 -1.1811  0.6590 -0.1581
  127MOL   H12948261   7.020   5.498   2.278  0.5996 -0.4909  0.9982
  127MOL   H13048262   7.021   5.528   2.589  0.6899 -1.1280  0.5094
  127MOL   H13148263   7.135   5.436   2.487  0.2176 -0.1499  0.6801
  127MOL   H13248264   7.250   5.650   2.431  0.6928  0.5113  1.5727
  127MOL   H13348265   7.102   5.742   2.484 -1.8048  0.0336 -0.6278
  127MOL   H13448266   7.208   5.660   2.599 -0.8423 -1.7522  0.2362
  127MOL   C13548267   6.525   5.349   2.310  0.1230 -0.0813  0.7365
  127MOL   C13648268   6.444   5.224   2.330 -0.5837 -0.0940  0.0546
  127MOL   C13748269   6.327   5.210   2.228 -0.3396 -0.2720  1.0797
  127MOL   C13848270   6.232   5.100   2.263  0.3811 -0.7130 -0.2071
  127MOL   C13948271   6.096   5.106   2.199 -0.2265 -0.1286  0.6253
  127MOL   C14048272   5.993   5.001   2.256 -0.4860 -0.4401 -0.7061
  127MOL   O14148273   6.393   5.208   2.457  0.2272  0.1518  0.2125
  127MOL   H14248274   6.472   5.430   2.359  0.6607  0.6517  0.1096
  127MOL   H14348275   6.504   5.378   2.207 -2.6291 -0.4920  1.1403
  127MOL   H14448276   6.496   5.131   2.306 -1.2917 -0.2026 -1.0628
  127MOL   H14548277   6.267   5.301   2.239 -1.2044 -0.7259  0.1212
  127MOL   H14648278   6.360   5.202   2.125 -2.6911  0.2382  0.2482
  127MOL   H14748279   6.210   5.105   2.370 -1.1000 -1.1866 -0.4750
  127MOL   H14848280   6.276   5.003   2.240 -1.8001 -1.6775 -0.3991
  127MOL   H14948281   6.094   5.098   2.091  0.6669  1.6361  0.4554
  127MOL   H15048282   6.049   5.203   2.217  1.5679  0.5444  1.7633
  127MOL   H15148283   6.025   4.897   2.249  0.5328 -0.0848 -1.3235
  127MOL   H15248284   5.994   5.023   2.363  0.8622  3.4519 -1.4233
  127MOL   H15348285   5.891   5.015   2.219  0.4573 -0.1030 -3.2521
  127MOL   C15448286   6.471   5.130   2.544  0.2857  0.1893  0.3661
  127MOL   C15548287   6.407   5.150   2.688 -0.0049  0.1355  0.1268
  127MOL   C15648288   6.410   5.298   2.742 -0.4630  0.7889 -0.4320
  127MOL   C15748289   6.364   5.309   2.889 -0.1296 -0.0612 -0.4343
  127MOL   C15848290   6.312   5.447   2.928 -0.2572  0.1829  0.3798
  127MOL   C15948291   6.189   5.489   2.851 -0.3136 -0.1720  0.3115
  127MOL   O16048292   6.272   5.099   2.694 -0.3409 -0.3387 -0.7033
  127MOL   H16148293   6.571   5.171   2.550 -0.0609  0.7945  2.5354
  127MOL   H16248294   6.472   5.027   2.509  0.3886  1.3647 -3.2932
  127MOL   H16348295   6.461   5.078   2.751 -0.1492  0.3776  0.5335
  127MOL   H16448296   6.359   5.361   2.670  2.2438  2.4391 -0.9534
  127MOL   H16548297   6.515   5.327   2.739 -0.6058  1.1625 -4.3993
  127MOL   H16648298   6.450   5.283   2.951 -1.3409  0.1667  1.3852
  127MOL   H16748299   6.287   5.234   2.903  0.7835 -0.9982 -0.3573
  127MOL   H16848300   6.297   5.455   3.036  1.1448  2.1245  0.4528
  127MOL   H16948301   6.397   5.514   2.912 -1.2949  1.1231 -1.2948
  127MOL   H17048302   6.112   5.419   2.884  0.1405 -1.0163 -0.4000
  127MOL   H17148303   6.206   5.481   2.744 -1.2290  1.2864  0.0289
  127MOL   H17248304   6.167   5.596   2.857  0.2447 -0.0426  0.0756
  127MOL   C17348305   6.270   4.966   2.746 -0.2370 -0.1505  0.3403
  127MOL   C17448306   6.123   4.914   2.755 -0.0676  0.0730  0.5986
  127MOL   C17548307   6.126   4.762   2.784  0.5464  0.2914  0.0687
  127MOL   C17648308   6.173   4.729   2.932 -0.1604 -0.0833  0.4232
  127MOL   C17748309   6.168   4.580   2.972 -0.5010  0.1724 -1.2432
  127MOL   C17848310   6.185   4.560   3.122 -0.1850  0.4077  0.4025
  127MOL   O17948311   6.047   4.975   2.863  0.1489 -0.4688  0.2577
  127MOL   H18048312   6.292   4.975   2.853 -1.0455 -2.2593  0.7188
  127MOL   H18148313   6.339   4.905   2.688 -0.5803 -0.9337  0.7549
  127MOL   H18248314   6.081   4.944   2.658  2.3288  2.4348  0.2225
  127MOL   H18348315   6.023   4.727   2.779  1.2892 -2.4514  2.5265
  127MOL   H18448316   6.187   4.704   2.715 -0.2998 -1.0257  0.4088
  127MOL   H18548317   6.272   4.770   2.954 -0.0911 -0.2692  0.4581
  127MOL   H18648318   6.106   4.784   2.999 -1.0340  0.4992 -0.9265
  127MOL   H18748319   6.072   4.534   2.947 -0.4660 -1.3163  1.2744
  127MOL   H18848320   6.233   4.517   2.912 -1.2249 -1.8427  0.0473
  127MOL   H18948321   6.151   4.460   3.147 -0.1109 -0.0570 -1.3115
  127MOL   H19048322   6.124   4.629   3.182  0.2096 -0.9510  2.4119
  127MOL   H19148323   6.290   4.576   3.144  0.3397 -0.2452 -1.5843
  127MOL   C19248324   5.980   5.096   2.821 -0.3792  0.6898  0.4136
  127MOL   C19348325   5.887   5.147   2.935  0.2075 -0.7088  0.1862
  127MOL   C19448326   5.972   5.175   3.055  0.1371  0.4597 -0.0471
  127MOL   C19548327   5.902   5.167   3.190 -1.2726  0.3514  0.2117
  127MOL   C19648328   5.858   5.303   3.229  0.1275 -0.2737 -0.3198
  127MOL   C19748329   5.800   5.312   3.367  0.5825 -0.5416 -1.5958
  127MOL   O19848330   5.787   5.050   2.972 -0.3062 -0.3843 -0.4072
  127MOL   H19948331   6.053   5.174   2.798  0.3470  0.0558  0.5448
  127MOL   H20048332   5.914   5.070   2.738  0.0867 -0.8005  0.4990
  127MOL   H20148333   5.830   5.234   2.903  0.9615 -0.4858 -0.5454
  127MOL   H20248334   6.048   5.097   3.054  0.3508  0.6689 -1.0955
  127MOL   H20348335   6.020   5.272   3.046 -0.4185  0.8019  0.6226
  127MOL   H20448336   5.970   5.132   3.268 -2.2935 -0.0954  0.9250
  127MOL   H20548337   5.817   5.099   3.189 -1.7700  0.9434  1.2656
  127MOL   H20648338   5.938   5.374   3.207  1.1611 -1.1184  0.7121
  127MOL   H20748339   5.779   5.337   3.162  2.1976  1.1566 -2.1032
  127MOL   H20848340   5.718   5.246   3.393  0.7299 -0.5001 -1.0119
  127MOL   H20948341   5.877   5.291   3.441  0.5020  0.4619 -1.2073
  127MOL   H21048342   5.762   5.412   3.387 -3.8535 -2.4653  0.3269
  127MOL   C21148343   5.688   5.025   2.878 -0.6693  0.4977 -1.0165
  127MOL   C21248344   5.589   4.931   2.942  0.5016  0.0888  0.4689
  127MOL   C21348345   5.471   4.887   2.847 -0.8182  0.1395  0.4290
  127MOL   C21448346   5.513   4.844   2.702 -0.3815 -0.0565 -0.1331
  127MOL   C21548347   5.398   4.828   2.604  0.2322  0.7127  0.7167
  127MOL   C21648348   5.440   4.793   2.464 -0.4256  0.3289  0.4805
  127MOL   O21748349   5.529   4.991   3.057  0.1373 -0.1797 -0.0062
  127MOL   H21848350   5.720   4.956   2.801 -1.3716 -1.1762  0.1542
  127MOL   H21948351   5.649   5.108   2.819  0.1088  0.9625 -0.8882
  127MOL   H22048352   5.654   4.846   2.961  1.4974  0.9832  1.1013
  127MOL   H22148353   5.416   4.807   2.895  0.4517 -2.1732 -1.8271
  127MOL   H22248354   5.394   4.963   2.836 -1.5524 -0.3921  1.7947
  127MOL   H22348355   5.576   4.921   2.657 -1.9356  0.9851 -0.5554
  127MOL   H22448356   5.567   4.749   2.709 -0.2666 -0.0976 -1.4762
  127MOL   H22548357   5.328   4.749   2.634  0.5523 -1.2398 -3.3538
  127MOL   H22648358   5.344   4.922   2.597  0.0014  0.7229  2.2600
  127MOL   H22748359   5.508   4.866   2.421 -0.1827 -0.3576 -0.3073
  127MOL   H22848360   5.361   4.789   2.389  1.2146 -0.4962 -1.2251
  127MOL   H22948361   5.488   4.696   2.454 -0.7633  0.2665 -0.6405
  127MOL   C23048362   5.557   4.939   3.180 -0.1898 -0.3085 -0.1817
  127MOL   C23148363   5.499   5.042   3.283  0.2149 -0.1566  0.1200
  127MOL   C23248364   5.543   5.016   3.429 -0.4581 -0.4205  0.3843
  127MOL   C23348365   5.484   5.118   3.537  0.0220  0.4328 -0.1576
  127MOL   C23448366   5.522   5.078   3.678  0.3071  0.0663  0.3501
  127MOL   C23548367   5.469   5.177   3.791  0.4587  0.2050  0.2318
  127MOL   O23648368   5.359   5.035   3.291  0.3155  0.2067 -0.6754
  127MOL   H23748369   5.502   4.845   3.181 -0.3562 -0.2170  2.5498
  127MOL   H23848370   5.664   4.922   3.191 -0.0272  0.5391 -0.3896
  127MOL   H23948371   5.540   5.138   3.252  0.7201 -0.3751  0.1008
  127MOL   H24048372   5.651   5.006   3.442 -0.5031  0.5562  1.6813
  127MOL   H24148373   5.499   4.919   3.452 -0.5210  0.0014  2.1137
  127MOL   H24248374   5.375   5.108   3.539  0.1283 -0.8229  0.3203
  127MOL   H24348375   5.512   5.217   3.504  0.5191  0.5036  0.4775
  127MOL   H24448376   5.501   4.975   3.703  1.1682 -0.2151 -0.0597
  127MOL   H24548377   5.631   5.085   3.677  0.3752 -0.9611 -2.3026
  127MOL   H24648378   5.376   5.137   3.832  0.7141 -0.8941 -0.2457
  127MOL   H24748379   5.450   5.276   3.752  1.1940  0.1807 -0.2004
  127MOL   H24848380   5.551   5.162   3.862  0.3786  3.0136  0.9696
  127MOL   C24948381   5.301   5.139   3.224  0.2702 -0.0222 -0.5011
  127MOL   C25048382   5.147   5.114   3.235 -0.3469  0.2990  0.6508
  127MOL   C25148383   5.096   4.986   3.175 -0.5487 -0.3104 -0.7470
  127MOL   C25248384   5.129   4.980   3.020 -0.3907 -0.0172  0.0138
  127MOL   C25348385   5.063   4.862   2.948 -0.6291  0.0659 -0.0236
  127MOL   C25448386   5.081   4.854   2.795  0.2360 -0.3111 -0.3308
  127MOL   O25548387   5.084   5.228   3.162  0.1291  0.3099  0.0722
  127MOL   H25648388   5.327   5.232   3.274  0.7835 -0.0925 -0.6396
  127MOL   H25748389   5.328   5.146   3.119 -1.8933  1.3025 -0.9940
  127MOL   H25848390   5.117   5.119   3.340 -0.6313  1.1069  0.5364
  127MOL   H25948391   5.144   4.905   3.230  0.1896 -0.5753 -1.7671
  127MOL   H26048392   4.989   4.969   3.182 -0.1257 -2.8534  0.1526
  127MOL   H26148393   5.088   5.067   2.968 -3.2993 -0.5513  1.3064
  127MOL   H26248394   5.236   4.983   3.004 -0.3646  0.8996  0.3180
  127MOL   H26348395   5.097   4.765   2.985  1.4172  0.3443 -1.0952
  127MOL   H26448396   4.957   4.868   2.974 -0.7406 -1.4681 -0.0872
  127MOL   H26548397   5.187   4.839   2.774  0.2880  2.3067 -2.1861
  127MOL   H26648398   5.060   4.948   2.744  1.3507  0.3681  0.4377
  127MOL   H26748399   5.012   4.778   2.759 -0.3129  0.2127 -0.3946
  127MOL   C26848400   5.078   5.352   3.233  0.1024 -0.6536  0.1407
  127MOL   C26948401   4.950   5.372   3.323  0.0392  0.3551  0.1566
  127MOL   C27048402   4.896   5.515   3.320 -0.3121 -0.4225 -0.0371
  127MOL   C27148403   4.761   5.542   3.398  0.2134 -0.0455 -0.3213
  127MOL   C27248404   4.719   5.688   3.380  0.0439  0.0084 -0.1106
  127MOL   C27348405   4.593   5.719   3.460 -0.2634 -0.4636  0.1057
  127MOL   O27448406   4.978   5.316   3.456  0.3029 -0.0717 -0.0589
  127MOL   H27548407   5.079   5.427   3.154 -2.6920 -0.4979  0.1771
  127MOL   H27648408   5.169   5.359   3.291 -1.0397  0.8981  1.7982
  127MOL   H27748409   4.871   5.311   3.280  1.4641  0.8512 -3.2813
  127MOL   H27848410   4.977   5.576   3.359 -0.4976 -1.1715  1.5300
  127MOL   H27948411   4.883   5.536   3.214  0.1528 -1.0127 -0.2174
  127MOL   H28048412   4.682   5.472   3.368 -0.6715  1.1012 -0.7553
  127MOL   H28148413   4.772   5.506   3.500  1.1766 -1.3026 -0.8528
  127MOL   H28248414   4.809   5.744   3.406  1.3349 -0.4548 -3.3461
  127MOL   H28348415   4.706   5.697   3.272 -1.6281 -1.7135 -0.0820
  127MOL   H28448416   4.508   5.669   3.414 -0.1372 -1.2368  0.7199
  127MOL   H28548417   4.602   5.676   3.559  0.4202 -0.7725 -0.0878
  127MOL   H28648418   4.586   5.827   3.473 -1.4650 -0.3753 -1.0662
  127MOL   C28748419   4.897   5.207   3.503  0.0165  0.4858 -0.7316
  127MOL   C28848420   4.945   5.165   3.643  0.6317 -0.0562  0.0299
  127MOL   C28948421   4.891   5.028   3.684 -0.3613  0.0576  0.0461
  127MOL   C29048422   4.967   4.959   3.798  0.4393  0.3100 -0.3236
  127MOL   C29148423   5.107   4.907   3.763  0.6229  0.8726 -0.0205
  127MOL   C29248424   5.104   4.800   3.660  0.2550  0.3376  0.9040
  127MOL   O29348425   4.907   5.255   3.746 -0.1007  0.2497  0.7062
  127MOL   H29448426   4.910   5.121   3.437 -2.5462 -1.4056  1.1251
  127MOL   H29548427   4.793   5.240   3.511  0.1227  0.4970  0.7071
  127MOL   H29648428   5.053   5.147   3.636  0.6022 -1.3208  2.2422
  127MOL   H29748429   4.783   5.031   3.701 -0.4806  0.7222 -0.7823
  127MOL   H29848430   4.883   4.967   3.594  0.0067  1.2521 -0.8097
  127MOL   H29948431   4.964   5.030   3.881 -1.8723  0.3353 -0.3939
  127MOL   H30048432   4.915   4.872   3.835 -0.4829 -0.3604 -3.0789
  127MOL   H30148433   5.157   4.854   3.844  0.2250 -2.2274 -1.7315
  127MOL   H30248434   5.176   4.984   3.729  1.4731 -0.1379 -0.6260
  127MOL   H30348435   5.073   4.702   3.697  0.8976 -0.3566 -0.3585
  127MOL   H30448436   5.042   4.831   3.576  0.7866  1.2954  0.8697
  127MOL   H30548437   5.206   4.777   3.627 -0.6538 -2.5199 -0.1455
  127MOL   C30648438   4.985   5.376   3.760 -0.3351  0.1580 -0.1372
  127MOL   C30748439   4.960   5.439   3.897  0.3528  0.1035 -0.0982
  127MOL   C30848440   4.992   5.353   4.013  0.9456  0.0166 -0.1878
  127MOL   C30948441   4.991   5.431   4.148 -0.1788 -0.7344 -0.1297
  127MOL   C31048442   5.060   5.358   4.261 -0.3586  0.2238 -0.6173
  127MOL   C31148443   5.026   5.216   4.304  0.1088 -0.0254 -0.2509
  127MOL   O31248444   4.825   5.475   3.922  0.7118 -0.4793  0.2648
  127MOL   H31348445   5.090   5.346   3.758 -0.4843 -0.4147  0.3952
  127MOL   H31448446   4.971   5.442   3.674  2.4288  0.1391 -0.6580
  127MOL   H31548447   5.018   5.531   3.906  0.7486 -0.2821  1.4068
  127MOL   H31648448   5.096   5.324   3.995  0.3686 -2.5301  0.3814
  127MOL   H31748449   4.931   5.262   4.017 -1.4966  1.6866  1.9372
  127MOL   H31848450   5.052   5.520   4.132  2.3676 -2.7571 -1.8947
  127MOL   H31948451   4.890   5.459   4.179 -1.1337 -4.5772  0.4380
  127MOL   H32048452   5.074   5.420   4.350  1.6729 -2.9268  1.3675
  127MOL   H32148453   5.163   5.351   4.226  0.5601  0.6329  1.8575
  127MOL   H32248454   4.997   5.166   4.211 -0.1480  2.3475 -1.4741
  127MOL   H32348455   5.121   5.183   4.347  1.0971  2.1355 -0.7442
  127MOL   H32448456   4.942   5.221   4.372 -0.2671  2.3973 -0.8691
  127MOL   C32548457   4.754   5.562   3.829  0.6074  0.0909  0.1489
  127MOL   C32648458   4.740   5.714   3.884  0.1863 -0.8844  0.5952
  127MOL   C32748459   4.639   5.811   3.811 -0.3944  0.2534  0.5717
  127MOL   C32848460   4.635   5.948   3.865 -0.2750 -0.5060 -0.2700
  127MOL   C32948461   4.531   6.044   3.807 -0.0740 -0.3060  0.0236
  127MOL   C33048462   4.521   6.174   3.898 -0.5149 -0.5530  0.9322
  127MOL   O33148463   4.873   5.763   3.888 -0.1631 -0.2224 -0.0524
  127MOL   H33248464   4.655   5.521   3.810  2.0843 -3.1524 -0.9352
  127MOL   H33348465   4.800   5.563   3.730 -0.3126  1.3106 -0.2779
  127MOL   H33448466   4.704   5.712   3.987  0.3972 -1.0320  0.6675
  127MOL   H33548467   4.672   5.836   3.710 -1.3876  0.6188  0.3259
  127MOL   H33648468   4.536   5.774   3.801 -0.5657  1.1863 -1.3833
  127MOL   H33748469   4.626   5.943   3.973 -1.1433 -1.7304 -0.3938
  127MOL   H33848470   4.733   5.992   3.848  0.1560 -0.6648  1.6751
  127MOL   H33948471   4.562   6.076   3.708  1.1649 -0.9402  0.1909
  127MOL   H34048472   4.434   5.996   3.803  0.2535 -1.1625  1.7948
  127MOL   H34148473   4.481   6.148   3.996 -2.4415 -0.4252  0.1911
  127MOL   H34248474   4.624   6.208   3.909 -1.0885  1.2662  0.9366
  127MOL   H34348475   4.464   6.251   3.846  1.3508  0.7287  0.7098
  127MOL   C34448476   4.912   5.828   4.012  0.0834 -0.1283  0.1671
  127MOL   C34548477   5.051   5.887   3.996  0.0875 -0.6402 -0.2613
  127MOL   C34648478   5.102   5.944   4.135  0.6626 -0.0311 -0.0095
  127MOL   C34748479   5.125   5.841   4.249 -0.8402 -0.4415  0.5483
  127MOL   C34848480   5.207   5.912   4.360 -0.2491  0.2795 -0.0689
  127MOL   C34948481   5.118   6.007   4.433  0.1002  0.0860 -0.1652
  127MOL   O35048482   5.139   5.776   3.966  0.3489  0.2669  0.4114
  127MOL   H35148483   4.914   5.754   4.092 -2.4704 -0.7498 -0.2930
  127MOL   H35248484   4.847   5.913   4.035  0.1090 -0.2761  0.7920
  127MOL   H35348485   5.041   5.959   3.915  0.0431  0.1031  0.4095
  127MOL   H35448486   5.029   6.021   4.156 -0.7262 -1.5244  0.6712
  127MOL   H35548487   5.193   6.004   4.126 -1.4810  3.0791 -1.7050
  127MOL   H35648488   5.190   5.760   4.219  1.7880  1.3837  1.1712
  127MOL   H35748489   5.027   5.805   4.282 -0.5276 -1.9685 -0.1739
  127MOL   H35848490   5.302   5.947   4.320  1.6177 -2.0229  2.1037
  127MOL   H35948491   5.230   5.834   4.434 -1.7784  0.1904  0.3153
  127MOL   H36048492   5.024   5.966   4.471  0.9461 -1.5396  0.2177
  127MOL   H36148493   5.100   6.091   4.367 -1.6326 -0.1141  0.0372
  127MOL   H36248494   5.173   6.051   4.517 -0.7987  2.6735 -0.9056
  127MOL   C36348495   5.252   5.819   3.892 -0.4794  0.1654 -0.3676
  127MOL   C36448496   5.300   5.691   3.837 -0.2650 -0.7188 -0.7211
  127MOL   C36548497   5.349   5.590   3.948 -0.1543  0.2415  0.0624
  127MOL   C36648498   5.467   5.633   4.035 -0.1296 -0.2107  0.6106
  127MOL   C36748499   5.527   5.539   4.132  0.1813  0.2725  0.3225
  127MOL   C36848500   5.637   5.583   4.225 -0.3849 -0.5218 -0.0210
  127MOL   O36948501   5.202   5.641   3.750  0.1294 -0.1625 -0.0033
  127MOL   H37048502   5.330   5.851   3.960 -2.0006 -1.6156  2.3205
  127MOL   H37148503   5.234   5.894   3.815 -0.8061  2.8537  2.2323
  127MOL   H37248504   5.388   5.705   3.775 -1.4707  0.5463 -2.2134
  127MOL   H37348505   5.260   5.564   4.006  0.2721 -0.8098  0.2593
  127MOL   H37448506   5.364   5.490   3.907 -1.6901 -0.3045  0.7614
  127MOL   H37548507   5.537   5.676   3.963 -0.6602 -0.8337 -0.2828
  127MOL   H37648508   5.427   5.721   4.086 -1.9371 -0.1816 -0.8426
  127MOL   H37748509   5.451   5.487   4.191  1.2892 -1.2447  0.4186
  127MOL   H37848510   5.560   5.452   4.076  1.6491  1.1593 -0.2122
  127MOL   H37948511   5.601   5.661   4.293  0.0319 -0.9877  0.7494
  127MOL   H38048512   5.671   5.503   4.292  2.5429 -0.1126 -0.9710
  127MOL   H38148513   5.726   5.619   4.173 -0.6337 -2.3118 -1.7320
  127MOL   H38248514   5.127   5.625   3.806  0.1369 -0.5691 -0.1105
  128MOL     C148515   4.101   7.248   4.820  1.2610  0.8641  0.0702
  128MOL     C248516   4.067   7.357   4.723 -0.6739  0.4259 -0.6720
  128MOL     C348517   3.936   7.318   4.654 -0.2743  0.0322  0.0457
  128MOL     C448518   3.906   7.419   4.539  0.1019  0.3835  1.0995
  128MOL     C548519   3.814   7.368   4.430  0.2245 -0.3689 -0.1874
  128MOL     C648520   3.779   7.470   4.320  0.3796  0.2953 -0.4011
  128MOL     O748521   4.044   7.482   4.792  0.2652 -0.0315 -0.2831
  128MOL     H848522   4.149   7.166   4.767  1.4779  0.1607  1.3420
  128MOL     H948523   4.022   7.216   4.888  0.2881  2.1564 -0.4360
  128MOL    H1048524   4.147   7.364   4.649  0.1585  0.5709  0.2470
  128MOL    H1148525   3.940   7.214   4.621  1.7104 -0.6498  2.2927
  128MOL    H1248526   3.859   7.306   4.730 -0.8604  1.7904 -0.2583
  128MOL    H1348527   3.864   7.513   4.574  1.0508  1.3330 -0.2627
  128MOL    H1448528   3.999   7.438   4.486  0.0668 -4.0752 -0.7970
  128MOL    H1548529   3.870   7.286   4.385  0.9784 -0.0483  0.1743
  128MOL    H1648530   3.727   7.328   4.482 -1.3440  0.0648 -2.3565
  128MOL    H1748531   3.721   7.421   4.242 -1.1458 -1.7819  1.9497
  128MOL    H1848532   3.722   7.553   4.361 -0.6023  0.6829 -2.5367
  128MOL    H1948533   3.869   7.503   4.269  0.9422  1.3800  1.2234
  128MOL    H2048534   4.183   7.292   4.877  1.5591  0.7422 -0.2644
  128MOL    C2148535   4.155   7.560   4.817 -0.0096  0.1249  0.0838
  128MOL    C2248536   4.124   7.656   4.933  0.5908  0.1163 -0.2136
  128MOL    C2348537   4.002   7.753   4.909  0.0094 -0.2506 -0.2825
  128MOL    C2448538   3.972   0.063   5.032 -0.5597  0.3786  0.0409
  128MOL    C2548539   3.885   0.182   4.992  0.4494 -0.3978  0.3093
  128MOL    C2648540   3.743   0.131   4.949  0.2442  0.1199 -0.2020
  128MOL    O2748541   4.111   7.584   5.052  0.5999  0.3681  0.9681
  128MOL    H2848542   4.244   7.506   4.847  0.0101  0.1545  0.0787
  128MOL    H2948543   4.176   7.623   4.730 -0.8197  0.2178 -0.0499
  128MOL    H3048544   4.209   7.721   4.953 -0.3391  1.8926 -1.8245
  128MOL    H3148545   3.911   7.694   4.905 -1.3762  1.8688 -0.8881
  128MOL    H3248546   4.005   0.026   4.817  1.4307  0.2514  0.0602
  128MOL    H3348547   4.063   0.092   5.084 -1.1064  1.1964  0.5445
  128MOL    H3448548   3.911   0.004   5.101 -0.4476  0.3322  0.0998
  128MOL    H3548549   3.882   0.261   5.067 -2.6853  1.3708 -1.5980
  128MOL    H3648550   3.940   0.224   4.907  2.6061  0.7728  2.2305
  128MOL    H3748551   3.746   0.052   4.875 -2.7060  0.4179 -0.7084
  128MOL    H3848552   3.688   0.212   4.900  0.7156 -0.7132 -2.1563
  128MOL    H3948553   3.690   0.108   5.042  0.5733  0.6041  0.1085
  128MOL    C4048554   4.227   7.552   5.134 -0.2702  0.1248 -0.1954
  128MOL    C4148555   4.174   7.461   5.248 -0.8810 -0.1327  0.7549
  128MOL    C4248556   4.075   7.356   5.194 -0.7119 -0.4695 -0.1867
  128MOL    C4348557   4.039   7.250   5.290  0.2120 -0.6227 -0.8421
  128MOL    C4448558   4.137   7.128   5.305  0.2271 -0.4026 -0.3453
  128MOL    C4548559   4.120   7.026   5.189  0.5670  0.7885  0.3172
  128MOL    O4648560   4.115   7.521   5.356  0.0482  0.1460 -0.1961
  128MOL    H4748561   4.289   7.631   5.177  0.5555  0.5028 -2.0406
  128MOL    H4848562   4.291   7.490   5.072  1.3225  2.4872 -0.9883
  128MOL    H4948563   4.257   7.401   5.286 -1.5744 -0.9006  1.0810
  128MOL    H5048564   3.990   7.410   5.153 -0.4871  1.9477  2.3621
  128MOL    H5148565   4.121   7.316   5.104  1.5679  2.6531 -0.5241
  128MOL    H5248566   3.936   7.218   5.284 -0.1671  0.6967 -1.5315
  128MOL    H5348567   4.043   7.293   5.390 -0.1393 -0.5571 -0.8576
  128MOL    H5448568   4.240   7.163   5.302  0.6271 -1.5233 -0.1156
  128MOL    H5548569   4.140   7.084   5.404 -2.0257  0.6924  0.2369
  128MOL    H5648570   4.020   6.983   5.193  0.7668  0.1731 -0.9040
  128MOL    H5748571   4.129   7.070   5.089 -0.9588  3.4114  1.2957
  128MOL    H5848572   4.190   6.943   5.201  0.3097  0.0839 -2.6181
  128MOL    C5948573   4.201   7.604   5.432  0.6822 -0.1831  0.0126
  128MOL    C6048574   4.134   7.634   5.568 -0.1696  0.0442  0.0800
  128MOL    C6148575   3.982   7.649   5.557 -0.3986  0.0771  0.3002
  128MOL    C6248576   3.922   7.675   5.698 -0.5629  0.1403  0.7169
  128MOL    C6348577   3.773   7.695   5.695  0.0147  0.1314 -0.0357
  128MOL    C6448578   3.721   7.710   5.839 -0.8406  0.3624 -0.1146
  128MOL    O6548579   4.161   7.518   5.643 -0.0817 -0.2605 -0.0200
  128MOL    H6648580   4.217   7.699   5.382 -0.4907  0.2414  0.4296
  128MOL    H6748581   4.297   7.554   5.450  0.1267 -1.0859  0.5224
  128MOL    H6848582   4.171   7.719   5.625 -2.2557  1.9793 -1.3769
  128MOL    H6948583   3.935   7.556   5.525 -1.1417 -0.4304  2.7369
  128MOL    H7048584   3.967   7.726   5.482  0.4985  0.1274  0.1721
  128MOL    H7148585   3.977   7.757   5.745 -2.3938 -0.2489  3.6560
  128MOL    H7248586   3.933   7.584   5.757  0.9905 -1.2829 -1.7353
  128MOL    H7348587   3.726   7.603   5.658 -1.1752  0.6440  0.1695
  128MOL    H7448588   3.752   7.783   5.635 -1.4004 -0.8894 -1.0857
  128MOL    H7548589   3.776   0.001   5.895  1.3938  0.6961 -2.6926
  128MOL    H7648590   3.616   7.737   5.846 -0.9743 -0.0314 -0.6169
  128MOL    H7748591   3.741   7.620   5.897  1.7627 -0.4914 -2.2437
  128MOL    C7848592   4.255   7.536   5.746  0.1082 -0.4257  0.7199
  128MOL    C7948593   4.269   7.402   5.818  0.0005 -0.7112  0.0337
  128MOL    C8048594   4.292   7.415   5.969 -0.4147  1.5498 -0.3318
  128MOL    C8148595   4.300   7.278   6.048  0.1744  0.4664 -0.7358
  128MOL    C8248596   4.175   7.190   6.021 -0.6269 -0.0285 -0.0407
  128MOL    C8348597   4.152   7.078   6.129  0.2338  0.7401 -0.5991
  128MOL    O8448598   4.376   7.326   5.757 -0.2258 -0.0061  0.7022
  128MOL    H8548599   4.221   7.613   5.814 -0.6665 -0.5651  0.4896
  128MOL    H8648600   4.352   7.569   5.708  0.4042  0.3147  2.0876
  128MOL    H8748601   4.175   7.352   5.797  1.5508 -2.3042 -3.5745
  128MOL    H8848602   4.389   7.464   5.980  1.3331 -1.4814 -1.7562
  128MOL    H8948603   4.221   7.482   6.018 -0.1930 -0.2925  2.6322
  128MOL    H9048604   4.308   7.298   6.155  0.3712 -1.4088 -0.3824
  128MOL    H9148605   4.392   7.224   6.028  0.3239 -0.0316  1.1987
  128MOL    H9248606   4.091   7.257   6.007  0.7794  2.2020  1.7909
  128MOL    H9348607   4.192   7.129   5.932  1.9370 -3.2991  2.5691
  128MOL    H9448608   4.127   7.102   6.232  0.1045 -2.7273  0.2317
  128MOL    H9548609   4.248   7.030   6.150  0.3428  0.2292 -2.1643
  128MOL    H9648610   4.095   7.000   6.080 -1.2445  1.3058  0.1973
  128MOL    C9748611   4.354   7.260   5.632 -0.0555 -0.0135  0.6529
  128MOL    C9848612   4.467   7.171   5.614  0.2513 -0.2802  0.2139
  128MOL    C9948613   4.471   7.107   5.466  0.2966  0.7426  0.6913
  128MOL   C10048614   4.557   6.978   5.446  0.4844 -0.5233  0.0693
  128MOL   C10148615   4.521   6.891   5.322  0.8908  0.1615 -0.0568
  128MOL   C10248616   4.617   6.774   5.298  0.1685 -0.2657  0.6702
  128MOL   O10348617   4.590   7.241   5.632 -0.0515  0.3899 -0.4000
  128MOL   H10448618   4.361   7.335   5.553  0.5748  1.0707  1.7281
  128MOL   H10548619   4.257   7.209   5.633  1.2202 -2.5400 -0.0422
  128MOL   H10648620   4.463   7.088   5.685  0.4468 -0.9323 -0.5315
  128MOL   H10748621   4.481   7.186   5.391 -1.4535  1.8753  1.5950
  128MOL   H10848622   4.370   7.070   5.449 -0.3335  2.9112 -0.6253
  128MOL   H10948623   4.553   6.916   5.535 -0.1503 -1.1719 -0.3989
  128MOL   H11048624   4.664   6.999   5.451  0.5737 -0.5619 -1.3363
  128MOL   H11148625   4.526   6.958   5.235 -2.3694 -2.0746 -2.0611
  128MOL   H11248626   4.427   6.837   5.322  0.2867  1.1915 -0.9154
  128MOL   H11348627   4.576   6.702   5.227  2.1583 -2.6909  1.9081
  128MOL   H11448628   4.717   6.802   5.264  0.7246 -0.7848  1.8832
  128MOL   H11548629   4.638   6.728   5.394  0.6573  0.1970  0.7888
  128MOL   C11648630   4.657   7.194   5.746 -0.4752 -1.0763 -0.1848
  128MOL   C11748631   4.788   7.278   5.763  1.6882  0.3851  0.1089
  128MOL   C11848632   4.883   7.216   5.862  0.9219 -0.4955  1.0617
  128MOL   C11948633   5.008   7.304   5.886  0.1944  0.0567  0.1384
  128MOL   C12048634   5.065   7.283   6.024  0.0975  0.2911 -0.1900
  128MOL   C12148635   4.973   7.322   6.138 -0.1053 -0.2489 -0.4895
  128MOL   O12248636   4.750   7.403   5.817  0.3606  0.4974 -0.3869
  128MOL   H12348637   4.597   7.198   5.837  0.1023  0.6973  0.1339
  128MOL   H12448638   4.683   7.091   5.723 -1.6100 -0.8287 -2.7989
  128MOL   H12548639   4.843   7.276   5.669 -0.1954  2.2781 -1.1011
  128MOL   H12648640   4.835   7.216   5.960  2.2509  0.5794  1.7254
  128MOL   H12748641   4.908   7.113   5.836  0.0648 -0.4249 -0.1094
  128MOL   H12848642   4.992   7.411   5.868 -1.9561 -0.4658 -1.2129
  128MOL   H12948643   5.084   7.269   5.817  0.4544 -0.8402  0.8647
  128MOL   H13048644   5.077   7.175   6.035  2.3942  0.7533  2.3822
  128MOL   H13148645   5.161   7.333   6.028 -0.2917  1.5314 -4.7239
  128MOL   H13248646   5.026   7.311   6.232 -0.2243 -1.1491 -0.5261
  128MOL   H13348647   4.949   7.429   6.142  2.0781  0.1905  4.3431
  128MOL   H13448648   4.889   7.256   6.161 -0.2821  0.4481  0.9039
  128MOL   C13548649   4.695   7.492   5.719 -0.4749 -0.8770  0.5394
  128MOL   C13648650   4.727   7.638   5.758 -0.4467 -0.2845  0.7422
  128MOL   C13748651   4.654   7.692   5.876 -0.6112 -0.1017 -0.4044
  128MOL   C13848652   4.669   7.616   6.008 -0.2463 -0.5239 -0.8196
  128MOL   C13948653   4.619   7.694   6.133  0.6036  0.1093 -0.2401
  128MOL   C14048654   4.471   7.730   6.147 -0.5932 -0.0298 -0.5434
  128MOL   O14148655   4.695   7.725   5.648 -0.6327 -0.2804 -0.5189
  128MOL   H14248656   4.745   7.482   5.623 -0.3721  1.5726  0.3164
  128MOL   H14348657   4.586   7.490   5.717 -0.4936  0.3041 -0.1355
  128MOL   H14448658   4.835   7.637   5.773  0.0282  2.1053 -2.1092
  128MOL   H14548659   4.695   0.006   5.895 -1.7295 -0.0135  1.7756
  128MOL   H14648660   4.552   7.715   5.844 -0.8164  0.2591  0.4685
  128MOL   H14748661   4.775   7.604   6.029 -0.2885 -1.4766 -1.0996
  128MOL   H14848662   4.625   7.516   6.007 -3.8916  1.0134 -0.8274
  128MOL   H14948663   4.666   0.006   6.138  0.2750  0.2469  0.3008
  128MOL   H15048664   4.640   7.648   6.230  1.7678  0.0099 -0.5314
  128MOL   H15148665   4.405   7.644   6.136  0.8661 -1.0468 -1.3054
  128MOL   H15248666   4.465   7.779   6.244  0.8170  0.0027 -0.4613
  128MOL   H15348667   4.451   0.015   6.066  1.0618 -2.1217 -2.8228
  128MOL   C15448668   4.810   7.765   5.572  0.1589 -0.7618  0.5549
  128MOL   C15548669   4.773   0.076   5.461 -0.1098  0.1096  0.3430
  128MOL   C15648670   4.867   0.183   5.415 -0.0020  0.4661  0.0603
  128MOL   C15748671   4.871   0.305   5.507 -0.6058  0.0870  0.9553
  128MOL   C15848672   4.935   0.434   5.455  1.0130 -0.6063  1.0867
  128MOL   C15948673   4.842   0.524   5.377  0.1244  0.2540  0.0880
  128MOL   O16048674   4.759   0.004   5.343  0.1409  0.1199  0.3477
  128MOL   H16148675   4.859   7.673   5.539 -0.8954 -0.7855 -0.9970
  128MOL   H16248676   4.879   0.035   5.634 -0.1226  0.1292  0.0769
  128MOL   H16348677   4.681   0.130   5.482  0.1652  0.5225  0.4913
  128MOL   H16448678   4.838   0.219   5.316 -0.0731 -0.5277 -0.2839
  128MOL   H16548679   4.970   0.145   5.409 -0.1797  0.0749 -0.6122
  128MOL   H16648680   4.925   0.271   5.595  1.1054 -0.3736 -0.2375
  128MOL   H16748681   4.766   0.313   5.534 -1.5272 -2.2968 -1.6520
  128MOL   H16848682   4.979   0.494   5.535  1.9734 -1.8366  1.4906
  128MOL   H16948683   5.023   0.407   5.397  0.3553 -0.1198 -0.1449
  128MOL   H17048684   4.762   0.557   5.444 -0.2055  2.3831 -1.3117
  128MOL   H17148685   4.785   0.467   5.303  2.0819 -0.3183 -1.0024
  128MOL   H17248686   4.884   0.614   5.334 -2.6587  1.1647 -0.8395
  128MOL   C17348687   4.660   7.695   5.346  0.3940  0.8958  0.5039
  128MOL   C17448688   4.633   7.635   5.210  0.1001 -0.1781 -0.1530
  128MOL   C17548689   4.578   7.489   5.225  0.3370  0.4087  0.8181
  128MOL   C17648690   4.562   7.419   5.092 -0.5107 -0.6472  0.6258
  128MOL   C17748691   4.523   7.269   5.108 -0.2520 -0.8012  0.3459
  128MOL   C17848692   4.469   7.205   4.981  0.2107 -0.0140  0.2231
  128MOL   O17948693   4.535   7.716   5.140 -0.2649  0.4772  0.3765
  128MOL   H18048694   4.569   7.738   5.388  0.6984  1.1314  0.9301
  128MOL   H18148695   4.679   7.608   5.409 -4.5318 -1.3185 -0.7787
  128MOL   H18248696   4.727   7.632   5.155 -0.1982 -1.1954 -0.6220
  128MOL   H18348697   4.644   7.426   5.285 -0.4447 -2.3301 -1.0515
  128MOL   H18448698   4.481   7.492   5.273  0.0172 -0.6100  0.2618
  128MOL   H18548699   4.509   7.477   5.016 -0.3238 -0.4816  0.6228
  128MOL   H18648700   4.667   7.427   5.064  0.0834 -1.9972  2.3948
  128MOL   H18748701   4.606   7.208   5.143  2.3389  1.9563 -0.6596
  128MOL   H18848702   4.450   7.270   5.188  0.3437  0.9251  0.8907
  128MOL   H18948703   4.516   7.211   4.883 -1.4071  1.9814 -0.4651
  128MOL   H19048704   4.373   7.255   4.972  0.3206 -0.0694 -1.3448
  128MOL   H19148705   4.445   7.100   4.998  0.8085 -0.3445 -0.9612
  128MOL   C19248706   4.589   0.051   5.058 -0.0259  0.7661 -0.5753
  128MOL   C19348707   4.482   0.152   5.013 -0.2898  0.6090  0.9049
  128MOL   C19448708   4.533   0.248   4.912 -0.0598  0.1564 -0.2353
  128MOL   C19548709   4.426   0.352   4.857  0.2903  1.0339 -0.0291
  128MOL   C19648710   4.484   0.462   4.767 -0.2838  0.0392 -0.2873
  128MOL   C19748711   4.513   0.429   4.622  0.0157  0.5593 -0.0038
  128MOL   O19848712   4.467   0.239   5.123  0.3959 -0.0057 -0.2706
  128MOL   H19948713   4.677   0.094   5.107 -0.1966  1.8124 -1.1901
  128MOL   H20048714   4.635   0.009   4.969  0.5791 -0.3685  0.2519
  128MOL   H20148715   4.383   0.115   4.987  1.1973 -0.9730 -2.8312
  128MOL   H20248716   4.627   0.297   4.936  1.1067 -1.5856 -1.1010
  128MOL   H20348717   4.559   0.187   4.825  1.9217  0.3513  0.2049
  128MOL   H20448718   4.377   0.387   4.948 -0.3558 -2.3708  0.9985
  128MOL   H20548719   4.347   0.303   4.799 -0.4265  0.5702  1.3045
  128MOL   H20648720   4.402   0.535   4.766  0.4579  0.8715 -0.9500
  128MOL   H20748721   4.572   0.511   4.808  0.1905  0.4370 -1.7768
  128MOL   H20848722   4.436   0.375   4.567  0.1610 -0.1296  0.4680
  128MOL   H20948723   4.536   0.528   4.583  1.8120  0.9040  1.8542
  128MOL   H21048724   4.601   0.366   4.607 -2.2929 -2.7242 -0.1875
  128MOL   C21148725   4.381   0.200   5.227  0.1833 -0.3180  0.1491
  128MOL   C21248726   4.355   0.312   5.324 -1.0218  0.3812 -0.5221
  128MOL   C21348727   4.484   0.324   5.414 -0.5008 -0.3462  0.8722
  128MOL   C21448728   4.476   0.431   5.517  0.1159  0.7112 -0.8858
  128MOL   C21548729   4.467   0.573   5.461 -0.1308  0.3920 -0.2783
  128MOL   C21648730   4.499   0.678   5.567  0.3215 -0.4892 -0.0226
  128MOL   O21748731   4.252   0.272   5.416 -0.2688  0.2119 -0.3990
  128MOL   H21848732   4.416   0.105   5.270  0.4837 -1.4186 -2.4531
  128MOL   H21948733   4.288   0.164   5.183 -0.5304  3.1664 -1.2946
  128MOL   H22048734   4.328   0.406   5.275 -0.4074  0.5559 -0.5309
  128MOL   H22148735   4.497   0.226   5.458 -0.7484 -2.2293 -3.0940
  128MOL   H22248736   4.575   0.346   5.359 -0.3129 -2.3529  0.3786
  128MOL   H22348737   4.390   0.413   5.580 -0.8136  2.1216 -1.7217
  128MOL   H22448738   4.567   0.421   5.576 -0.3435 -0.2892 -0.3340
  128MOL   H22548739   4.524   0.589   5.370  1.0072 -1.3431  0.1148
  128MOL   H22648740   4.361   0.589   5.440 -0.5627 -1.4268  0.4553
  128MOL   H22748741   4.486   0.773   5.517 -0.4768 -0.1809  0.7437
  128MOL   H22848742   4.601   0.677   5.605 -0.0273  2.2484  1.1067
  128MOL   H22948743   4.423   0.674   5.646 -0.7816  1.1803 -0.9671
  128MOL   C23048744   4.122   0.325   5.385 -0.0826  0.2539 -0.3053
  128MOL   C23148745   4.011   0.268   5.477  0.4317 -0.7021 -0.4271
  128MOL   C23248746   3.876   0.270   5.408 -0.2342  0.1048  0.1239
  128MOL   C23348747   3.828   0.411   5.373  0.4935 -0.2863 -0.0347
  128MOL   C23448748   3.689   0.416   5.309 -0.3642  0.2135  0.0721
  128MOL   C23548749   3.659   0.547   5.242 -0.5979  0.0438  0.0122
  128MOL   O23648750   3.992   0.330   5.599 -0.1478 -0.2326 -0.5356
  128MOL   H23748751   4.129   0.433   5.383  1.3780  0.1572 -0.9861
  128MOL   H23848752   4.100   0.302   5.281 -1.3857  0.5076 -0.0954
  128MOL   H23948753   4.028   0.161   5.494  0.7535 -0.9237 -2.0411
  128MOL   H24048754   3.800   0.228   5.474 -2.7519  0.8702 -2.1694
  128MOL   H24148755   3.877   0.210   5.317 -0.3721  0.8488 -0.3743
  128MOL   H24248756   3.898   0.462   5.307 -0.4227 -1.6272 -2.1150
  128MOL   H24348757   3.825   0.464   5.467 -0.2591  2.8464 -1.7644
  128MOL   H24448758   3.694   0.339   5.232  3.7247 -0.9089  1.3428
  128MOL   H24548759   3.613   0.393   5.383 -0.3783 -0.4196 -0.1418
  128MOL   H24648760   3.744   0.599   5.198 -0.7536  0.8738  0.6784
  128MOL   H24748761   3.595   0.613   5.301  0.5424  0.2649  1.0134
  128MOL   H24848762   3.593   0.537   5.155 -0.7717 -0.3862  0.1927
  128MOL   C24948763   4.073   0.266   5.701 -0.1321  0.1331  0.8309
  128MOL   C25048764   4.049   0.326   5.834 -0.0694 -0.5695  0.6460
  128MOL   C25148765   3.901   0.318   5.874  0.1151 -0.3491 -0.6527
  128MOL   C25248766   3.878   0.346   6.024  0.3509 -0.7219  0.6746
  128MOL   C25348767   3.746   0.305   6.085 -0.6508 -0.6335 -0.3772
  128MOL   C25448768   3.706   0.373   6.217  0.1190  0.5790 -0.0146
  128MOL   O25548769   4.109   0.456   5.859 -0.1354  0.2794 -0.2667
  128MOL   H25648770   4.050   0.160   5.698 -0.2116  0.0013  4.0625
  128MOL   H25748771   4.178   0.274   5.674  0.2136  0.2793  2.1682
  128MOL   H25848772   4.094   0.252   5.900 -2.5796 -2.4832  0.2781
  128MOL   H25948773   3.833   0.377   5.813 -0.9672  0.8872  1.6638
  128MOL   H26048774   3.864   0.220   5.846  0.9615 -0.2927 -1.9975
  128MOL   H26148775   3.959   0.309   6.088  1.7427  2.0647  0.5860
  128MOL   H26248776   3.873   0.454   6.037 -0.9101 -0.7418  0.3894
  128MOL   H26348777   3.661   0.302   6.017 -0.0702 -1.6942 -1.0847
  128MOL   H26448778   3.767   0.199   6.102  0.2708 -0.9120 -3.0093
  128MOL   H26548779   3.623   0.325   6.269  0.1494  1.2395  0.6587
  128MOL   H26648780   3.673   0.476   6.203  0.7055  0.6860 -0.6193
  128MOL   H26748781   3.798   0.388   6.273 -0.1973 -0.0786  0.6789
  128MOL   C26848782   4.255   0.465   5.856  0.3684  0.3557 -0.1085
  128MOL   C26948783   4.312   0.545   5.972  0.1805  0.1291 -0.2055
  128MOL   C27048784   4.457   0.605   5.939 -0.4507  0.7383  0.0781
  128MOL   C27148785   4.557   0.640   6.051  0.5919  0.2090 -0.1879
  128MOL   C27248786   4.690   0.693   5.998  0.0069  0.6192 -0.2378
  128MOL   C27348787   4.770   0.755   6.109  0.0933 -0.4152  0.4199
  128MOL   O27448788   4.337   0.460   6.079 -0.4482 -0.0618 -0.6775
  128MOL   H27548789   4.267   0.532   5.771  1.0651  0.2418 -0.1055
  128MOL   H27648790   4.304   0.371   5.833 -3.0047 -0.7800 -3.1424
  128MOL   H27748791   4.247   0.631   5.989  0.6798  0.6043 -0.6915
  128MOL   H27848792   4.499   0.530   5.872  0.9545 -0.5504  2.3104
  128MOL   H27948793   4.451   0.698   5.883 -2.2704  0.1556 -0.7384
  128MOL   H28048794   4.516   0.707   6.127  0.9339 -0.4858  0.6151
  128MOL   H28148795   4.561   0.547   6.107 -4.5415 -0.2013 -0.2928
  128MOL   H28248796   4.739   0.617   5.937  1.5385  0.6533  0.9136
  128MOL   H28348797   4.673   0.777   5.930  1.9108  1.8061  0.7292
  128MOL   H28448798   4.807   0.687   6.185 -0.6474  0.1244  1.2736
  128MOL   H28548799   4.863   0.800   6.073  0.1407  1.7833  3.0839
  128MOL   H28648800   4.715   0.826   6.171 -2.8607 -1.5395 -0.8531
  128MOL   C28748801   4.235   0.463   6.176 -0.1204 -0.4862 -0.3777
  128MOL   C28848802   4.270   0.352   6.278 -0.0354 -0.6749 -0.1635
  128MOL   C28948803   4.143   0.299   6.353  0.0877 -0.2456  0.8827
  128MOL   C29048804   4.184   0.164   6.415 -0.0850 -0.1111  0.2148
  128MOL   C29148805   4.067   0.087   6.470 -0.6602  0.8305  0.5322
  128MOL   C29248806   4.117   7.750   6.547  0.1797 -0.2536 -0.2063
  128MOL   O29348807   4.359   0.400   6.381  0.1436  0.4322 -0.6052
  128MOL   H29448808   4.148   0.440   6.114 -0.6938  2.2874 -0.6451
  128MOL   H29548809   4.214   0.556   6.228  1.6193  0.7508 -1.8522
  128MOL   H29648810   4.309   0.275   6.211  0.8584  0.2667 -0.7295
  128MOL   H29748811   4.109   0.376   6.422  0.9515  0.2748  0.7411
  128MOL   H29848812   4.062   0.283   6.282 -1.2596  1.0230  2.0848
  128MOL   H29948813   4.255   0.107   6.355 -1.9317 -0.1317 -2.0089
  128MOL   H30048814   4.237   0.198   6.504  0.2870  0.8892 -0.3799
  128MOL   H30148815   4.012   0.047   6.385  1.5662  1.2901 -1.1554
  128MOL   H30248816   4.004   0.154   6.529 -0.5814  0.3609  1.1546
  128MOL   H30348817   4.182   7.780   6.629  0.1978  1.8268 -0.9389
  128MOL   H30448818   4.038   7.691   6.593 -0.1117  0.2394 -0.0657
  128MOL   H30548819   4.157   7.688   6.467  1.2123 -0.8465  0.7566
  128MOL   C30648820   4.498   0.361   6.384  0.4253 -0.2381  0.1317
  128MOL   C30748821   4.559   0.438   6.506 -0.3265 -0.3061 -0.0965
  128MOL   C30848822   4.717   0.429   6.515  0.3884  0.7178 -0.3359
  128MOL   C30948823   4.799   0.502   6.405  0.4736 -0.1828 -0.1338
  128MOL   C31048824   4.951   0.474   6.405 -0.2051 -0.4820 -0.2873
  128MOL   C31148825   5.020   0.557   6.518  0.2669 -0.3525  0.2081
  128MOL   O31248826   4.516   0.389   6.632  0.1825 -0.3338  0.1457
  128MOL   H31348827   4.505   0.253   6.376 -0.0463 -0.1066 -3.0148
  128MOL   H31448828   4.546   0.389   6.290  1.6897 -2.9480 -0.0622
  128MOL   H31548829   4.536   0.544   6.493 -2.3316 -0.5958  0.8744
  128MOL   H31648830   4.741   0.323   6.521  0.4105  0.8613  3.1769
  128MOL   H31748831   4.750   0.478   6.607  1.1350 -0.9652  0.3168
  128MOL   H31848832   4.769   0.479   6.303 -0.2223 -1.3749  0.3294
  128MOL   H31948833   4.767   0.606   6.411  1.2255  0.1039 -1.0099
  128MOL   H32048834   4.998   0.502   6.311  0.1063 -0.1797 -0.0468
  128MOL   H32148835   4.976   0.369   6.420 -0.0311 -0.1269  2.2837
  128MOL   H32248836   4.952   0.563   6.603 -1.1813  1.8506 -1.0565
  128MOL   H32348837   5.115   0.521   6.556 -0.2812 -1.1326  0.8554
  128MOL   H32448838   5.041   0.657   6.480  0.3802 -0.7313 -0.7508
  128MOL   C32548839   4.408   0.462   6.688 -0.4309 -0.2136  0.5408
  128MOL   C32648840   4.311   0.376   6.776  0.1661 -0.8434 -0.6370
  128MOL   C32748841   4.194   0.463   6.822 -0.2398  0.1797 -0.0889
  128MOL   C32848842   4.090   0.386   6.902  0.4394 -0.7129  0.0808
  128MOL   C32948843   3.966   0.471   6.935  0.7779 -0.0533  0.5421
  128MOL   C33048844   3.990   0.609   7.008 -0.3509  0.2401 -1.0775
  128MOL   O33148845   4.361   0.331   6.907 -0.2378  0.3902  0.1231
  128MOL   H33248846   4.346   0.491   6.604 -0.5442 -1.0029  0.3548
  128MOL   H33348847   4.436   0.554   6.739  1.4965 -1.1485  1.2292
  128MOL   H33448848   4.272   0.295   6.714 -2.7947  0.2723 -0.2873
  128MOL   H33548849   4.225   0.536   6.896 -3.6561 -0.6438  2.2550
  128MOL   H33648850   4.139   0.517   6.744  0.3940 -0.4936 -1.0146
  128MOL   H33748851   4.069   0.296   6.844  0.5150 -0.4605 -0.3377
  128MOL   H33848852   4.132   0.333   6.988 -0.0830  0.4817  1.0869
  128MOL   H33948853   3.912   0.493   6.843 -1.6740 -2.0374  1.4669
  128MOL   H34048854   3.897   0.404   6.987  2.6158 -1.8810  0.6644
  128MOL   H34148855   4.056   0.597   7.094 -4.7826  0.1042  2.4513
  128MOL   H34248856   4.037   0.685   6.945  1.6089  2.1557  2.5301
  128MOL   H34348857   3.899   0.640   7.058  1.6013  2.0648  1.4921
  128MOL   C34448858   4.449   0.220   6.882  0.0169  0.4396  0.5321
  128MOL   C34548859   4.485   0.160   7.016 -0.5143 -0.1870 -0.1128
  128MOL   C34648860   4.547   0.026   6.999 -0.8664 -0.2003  0.0324
  128MOL   C34748861   4.599   7.751   7.131 -0.0178  0.4086 -0.8115
  128MOL   C34848862   4.496   7.721   7.239  0.2268  0.0733  0.8506
  128MOL   C34948863   4.566   7.661   7.366 -0.2686  0.0218  0.0065
  128MOL   O35048864   4.589   0.243   7.070  0.1075 -0.3224 -0.4800
  128MOL   H35148865   4.540   0.256   6.833  0.8167 -1.1065  0.8268
  128MOL   H35248866   4.394   0.161   6.808 -1.2270  1.3645  0.7105
  128MOL   H35348867   4.394   0.162   7.076 -0.5141  3.6561 -0.1054
  128MOL   H35448868   4.631   0.033   6.930 -0.5282  0.3509  0.4946
  128MOL   H35548869   4.479   7.748   6.941 -1.2971  1.1306 -0.9510
  128MOL   H35648870   4.672   0.033   7.174 -3.3845  4.0679 -0.6088
  128MOL   H35748871   4.654   7.657   7.120 -0.3828  0.0231  0.5804
  128MOL   H35848872   4.425   7.648   7.202  0.4913 -1.2283  2.8471
  128MOL   H35948873   4.451   0.033   7.256 -0.6417 -0.1828  0.0708
  128MOL   H36048874   4.656   7.717   7.389 -0.2880  1.2031 -2.6738
  128MOL   H36148875   4.596   7.557   7.350  1.4166  0.3490  0.9290
  128MOL   H36248876   4.500   7.660   7.453  0.5487 -1.5432  0.6334
  128MOL   C36348877   4.546   0.318   7.182 -0.1668  0.3021  0.5597
  128MOL   C36448878   4.648   0.419   7.224 -0.9663 -0.0393 -0.0248
  128MOL   C36548879   4.794   0.363   7.221  0.6384  0.3370  0.0708
  128MOL   C36648880   4.899   0.467   7.258 -0.4700  0.3219 -0.2430
  128MOL   C36748881   5.040   0.403   7.277 -0.2456  0.2274 -0.6367
  128MOL   C36848882   5.141   0.500   7.341  0.1294  0.1735  0.8883
  128MOL   O36948883   4.642   0.526   7.134  0.7802  1.0815 -0.0273
  128MOL   H37048884   4.536   0.248   7.265 -2.1189 -0.0915  0.0428
  128MOL   H37148885   4.455   0.377   7.169 -1.5086 -2.3191 -3.2755
  128MOL   H37248886   4.624   0.456   7.324  0.8057  0.6109  0.1879
  128MOL   H37348887   4.792   0.280   7.291 -0.3631 -0.0738 -0.4301
  128MOL   H37448888   4.823   0.305   7.134  0.9500 -0.0168  0.4090
  128MOL   H37548889   4.898   0.538   7.176 -1.6772 -2.0070 -2.3420
  128MOL   H37648890   4.862   0.503   7.354  0.9436 -5.6366  2.8181
  128MOL   H37748891   5.033   0.328   7.356 -0.6160  0.2018 -0.6940
  128MOL   H37848892   5.074   0.343   7.193 -0.7390 -2.0742  0.7658
  128MOL   H37948893   5.171   0.574   7.268 -0.4742  0.4832  0.9496
  128MOL   H38048894   5.103   0.560   7.424 -1.7618  1.4288 -0.8539
  128MOL   H38148895   5.236   0.454   7.371  0.6132 -0.5573 -1.6780
  128MOL   H38248896   4.644   0.488   7.048  1.0170  1.3182 -0.1281
  129MOL     C148897   4.610   6.147   0.891  0.1376  0.3781 -0.4674
  129MOL     C248898   4.596   6.236   1.024  0.3107  0.1376  1.0524
  129MOL     C348899   4.470   6.324   1.025  0.3053 -0.0546 -0.0606
  129MOL     C448900   4.480   6.430   1.138  0.4569 -0.2845 -1.0737
  129MOL     C548901   4.390   6.553   1.113  0.9753 -0.0366  0.1481
  129MOL     C648902   4.383   6.653   1.223  0.0739 -0.0041  0.9392
  129MOL     O748903   4.590   6.169   1.142 -0.0383  0.2181  0.4569
  129MOL     H848904   4.697   6.081   0.898  0.5126  0.7884 -1.2404
  129MOL     H948905   4.633   6.203   0.801  1.3678 -2.0556 -1.7078
  129MOL    H1048906   4.681   6.303   1.010  1.3900 -1.6985 -1.6726
  129MOL    H1148907   4.476   6.368   0.925 -2.4595  4.4587  1.6329
  129MOL    H1248908   4.381   6.262   1.029  1.2910 -1.5018 -0.1152
  129MOL    H1348909   4.466   6.388   1.237  0.4665 -3.3903 -2.3141
  129MOL    H1448910   4.576   6.481   1.130 -0.1142  1.0609  0.4460
  129MOL    H1548911   4.418   6.597   1.017  1.2982  2.1562  1.2277
  129MOL    H1648912   4.290   6.511   1.102  0.2536  0.9849  2.5561
  129MOL    H1748913   4.486   6.651   1.261  0.7649  1.5939 -0.7773
  129MOL    H1848914   4.367   6.751   1.179  1.7125 -0.2564 -0.2791
  129MOL    H1948915   4.329   6.618   1.311 -2.1103 -0.8504 -0.7066
  129MOL    H2048916   4.517   6.092   0.874 -0.4198 -0.3036  4.0894
  129MOL    C2148917   4.687   6.067   1.153 -0.7417  0.2186  0.4870
  129MOL    C2248918   4.699   6.031   1.302 -0.5793 -0.3576 -0.0412
  129MOL    C2348919   4.750   5.883   1.306 -0.5282  0.1192 -0.0108
  129MOL    C2448920   4.750   5.822   1.451  0.1435  0.2535  0.4405
  129MOL    C2548921   4.828   5.695   1.474 -0.3264  0.3713 -0.3539
  129MOL    C2648922   4.762   5.569   1.401 -0.1025 -0.4087 -0.2979
  129MOL    O2748923   4.806   6.099   1.365  0.0761  0.4088 -0.2484
  129MOL    H2848924   4.660   5.983   1.088  0.1560  1.1728 -1.1486
  129MOL    H2948925   4.781   6.099   1.108 -2.1541  0.4946 -2.3467
  129MOL    H3048926   4.603   6.046   1.352 -0.2656 -0.9894  0.7500
  129MOL    H3148927   4.845   5.878   1.253 -0.5041  2.2593 -0.1923
  129MOL    H3248928   4.694   5.813   1.243  1.0268 -0.7430 -0.4457
  129MOL    H3348929   4.648   5.803   1.484 -0.4877  2.4719 -0.1692
  129MOL    H3448930   4.794   5.896   1.518  1.3098  0.3598 -0.4104
  129MOL    H3548931   4.931   5.715   1.443 -1.1317  2.0768 -2.0376
  129MOL    H3648932   4.830   5.671   1.580 -0.4314 -1.1295 -0.6793
  129MOL    H3748933   4.657   5.560   1.431 -0.2551 -0.4153 -0.8369
  129MOL    H3848934   4.809   5.473   1.421  1.8386  0.7827  0.9631
  129MOL    H3948935   4.754   5.579   1.293 -2.4353 -1.0683 -0.2275
  129MOL    C4048936   4.780   6.239   1.384 -0.0078  0.4735  0.1112
  129MOL    C4148937   4.898   6.311   1.462 -0.2431  0.2573  0.2011
  129MOL    C4248938   4.855   6.450   1.505  0.1064 -0.6406  0.2238
  129MOL    C4348939   4.958   6.519   1.595  0.4066 -0.3631  0.4621
  129MOL    C4448940   4.955   6.480   1.741  0.2213 -0.3568  0.1871
  129MOL    C4548941   5.073   6.553   1.814  0.4981 -0.0065  1.0821
  129MOL    O4648942   5.007   6.321   1.382 -0.6093  0.2611  0.5659
  129MOL    H4748943   4.682   6.253   1.430  0.7931  1.5372  1.5341
  129MOL    H4848944   4.763   6.294   1.292 -0.4577 -1.3406 -0.9263
  129MOL    H4948945   4.923   6.256   1.552 -1.1313  1.0100  0.9098
  129MOL    H5048946   4.845   6.517   1.419  1.9573  0.2626  0.6974
  129MOL    H5148947   4.764   6.450   1.564 -2.0444 -0.8111 -2.9494
  129MOL    H5248948   4.946   6.628   1.593 -0.2309 -0.4155  1.4364
  129MOL    H5348949   5.060   6.499   1.561  0.5599 -0.8917  1.2392
  129MOL    H5448950   4.862   6.511   1.788  0.6028 -0.7449  1.2076
  129MOL    H5548951   4.978   6.373   1.741 -2.7845 -1.0534 -0.3370
  129MOL    H5648952   5.173   6.523   1.780  0.1642  0.1436 -0.0751
  129MOL    H5748953   5.065   6.660   1.799  1.9421 -0.2714 -2.0556
  129MOL    H5848954   5.077   6.540   1.922 -0.4085  0.2147  1.1432
  129MOL    C5948955   5.097   6.214   1.408 -0.3065  0.3173 -0.3454
  129MOL    C6048956   5.164   6.153   1.281  0.4867  0.1523 -0.7419
  129MOL    C6148957   5.237   6.266   1.199 -0.1767 -0.1623 -0.3280
  129MOL    C6248958   5.296   6.225   1.060  0.8471  0.3986  0.1364
  129MOL    C6348959   5.402   6.325   1.010  0.5208  0.1931 -0.0882
  129MOL    C6448960   5.492   6.275   0.892 -0.0112  0.3190  0.1821
  129MOL    O6548961   5.250   6.043   1.307  0.2404 -0.4670 -0.1823
  129MOL    H6648962   5.038   6.134   1.454  1.6016 -1.5375 -1.0393
  129MOL    H6748963   5.169   6.242   1.485 -0.1764  0.3861 -0.4932
  129MOL    H6848964   5.081   6.115   1.220  0.8909  0.1292 -1.2835
  129MOL    H6948965   5.314   6.303   1.267  2.2700 -2.5203 -1.7068
  129MOL    H7048966   5.166   6.342   1.168 -0.7244 -0.1140  0.9896
  129MOL    H7148967   5.216   6.206   0.988  1.1545  0.2986 -0.1768
  129MOL    H7248968   5.352   6.132   1.066  0.6583  0.2442 -0.4512
  129MOL    H7348969   5.471   6.359   1.087  0.5587 -0.4817  0.1797
  129MOL    H7448970   5.350   6.416   0.979 -0.3273 -0.3056 -0.1411
  129MOL    H7548971   5.431   6.250   0.804 -0.1132 -1.5443  0.7687
  129MOL    H7648972   5.562   6.351   0.859  0.7689 -0.2368  0.5454
  129MOL    H7748973   5.556   6.191   0.916 -1.2876 -0.3449  1.3524
  129MOL    C7848974   5.198   5.932   1.381 -0.2801 -0.1712  0.3019
  129MOL    C7948975   5.302   5.822   1.393  0.1397  0.2168 -0.4524
  129MOL    C8048976   5.229   5.695   1.426 -0.1105  0.0840  0.0906
  129MOL    C8148977   5.326   5.572   1.410 -0.4596 -0.1462  0.4268
  129MOL    C8248978   5.255   5.446   1.452 -0.7150  0.1700  0.0776
  129MOL    C8348979   5.316   5.315   1.393  0.3617  0.3731  0.3590
  129MOL    O8448980   5.383   5.836   1.507  0.1323 -0.6010 -0.3632
  129MOL    H8548981   5.109   5.917   1.319  0.5897 -2.1688 -0.5022
  129MOL    H8648982   5.151   5.961   1.475 -1.3600 -0.6007 -0.0958
  129MOL    H8748983   5.367   5.820   1.306  0.3081  1.8373 -0.3823
  129MOL    H8848984   5.192   5.707   1.528  0.0150  0.3310  0.1070
  129MOL    H8948985   5.144   5.684   1.360  1.2645 -2.9679 -1.2761
  129MOL    H9048986   5.422   5.586   1.459  0.5293 -0.7078 -1.3009
  129MOL    H9148987   5.344   5.575   1.302 -5.1260 -1.6843 -0.5178
  129MOL    H9248988   5.282   5.436   1.557 -1.5624  1.3391  0.4148
  129MOL    H9348989   5.147   5.438   1.438 -0.5865 -0.7581 -0.4005
  129MOL    H9448990   5.264   5.227   1.428  1.0105 -0.3739 -0.5299
  129MOL    H9548991   5.424   5.308   1.405  0.2161  0.0048  1.4689
  129MOL    H9648992   5.303   5.319   1.285  1.8944  1.1415  0.1795
  129MOL    C9748993   5.470   5.947   1.507  0.0639 -0.4538  0.4766
  129MOL    C9848994   5.577   5.911   1.621  0.0758  0.4925  0.0523
  129MOL    C9948995   5.703   5.837   1.555 -0.1372  0.8249 -0.2007
  129MOL   C10048996   5.792   5.774   1.664  0.0765 -0.5021  0.7140
  129MOL   C10148997   5.923   5.710   1.616 -0.3138 -0.4209 -0.2338
  129MOL   C10248998   5.898   5.564   1.574 -0.1014 -0.4558  0.0348
  129MOL   O10348999   5.619   6.038   1.678  0.2526 -0.5152  0.5038
  129MOL   H10449000   5.420   6.035   1.548  1.0585 -0.2868  1.3369
  129MOL   H10549001   5.510   5.971   1.408 -0.4103 -1.2898  0.0767
  129MOL   H10649002   5.542   5.845   1.699  0.9304  0.0628  0.0779
  129MOL   H10749003   5.751   5.915   1.496 -0.7866  0.8932 -0.6445
  129MOL   H10849004   5.674   5.760   1.484  0.0719  1.8986 -1.4753
  129MOL   H10949005   5.741   5.696   1.720 -1.9039  0.3751  0.1790
  129MOL   H11049006   5.820   5.854   1.733 -0.2457  1.2982 -1.1802
  129MOL   H11149007   5.993   5.721   1.699 -1.6593  1.0875  0.7154
  129MOL   H11249008   5.951   5.767   1.527  1.5813 -1.0648 -0.0686
  129MOL   H11349009   5.805   5.555   1.518  0.8013  0.8766 -1.7306
  129MOL   H11449010   5.981   5.530   1.512  0.4607 -2.0514  1.6307
  129MOL   H11549011   5.886   5.500   1.661  2.8717 -1.6703 -0.3917
  129MOL   C11649012   5.546   6.077   1.790  0.9274 -0.0756  0.3548
  129MOL   C11749013   5.555   6.233   1.808  0.6381  0.1720  0.1150
  129MOL   C11849014   5.545   6.321   1.675 -0.1940  0.5451  0.4661
  129MOL   C11949015   5.398   6.334   1.636  0.0731  0.3751 -0.7700
  129MOL   C12049016   5.375   6.449   1.538 -0.5054 -0.1387  0.4720
  129MOL   C12149017   5.400   6.596   1.596 -0.1935 -0.3388 -0.4391
  129MOL   O12249018   5.679   6.250   1.870  0.3964  0.5181  1.0000
  129MOL   H12349019   5.440   6.056   1.773  0.7048  2.4902 -1.6317
  129MOL   H12449020   5.556   6.022   1.884 -0.8706  0.2874  0.7910
  129MOL   H12549021   5.483   6.262   1.884 -1.1474  0.3837 -1.6125
  129MOL   H12649022   5.593   6.418   1.687  0.9968  0.2751 -1.9013
  129MOL   H12749023   5.593   6.278   1.587 -1.5960  0.3071 -0.1886
  129MOL   H12849024   5.340   6.356   1.726  0.3529 -0.4743 -0.3841
  129MOL   H12949025   5.363   6.237   1.602 -0.0869  0.4081 -0.6996
  129MOL   H13049026   5.447   6.430   1.458 -2.7349 -1.5309 -1.2668
  129MOL   H13149027   5.269   6.447   1.510 -0.5594 -0.4048  0.6880
  129MOL   H13249028   5.324   6.620   1.671 -1.1119  0.7430 -1.6939
  129MOL   H13349029   5.500   6.606   1.638 -0.3378 -4.3938  1.1030
  129MOL   H13449030   5.377   6.669   1.519 -1.4047  1.2713  1.3921
  129MOL   C13549031   5.696   6.376   1.929 -0.4815 -0.4293  0.0470
  129MOL   C13649032   5.843   6.377   1.977  0.2227  0.2628 -0.3303
  129MOL   C13749033   5.872   6.471   2.096  0.0110  0.1071 -0.4087
  129MOL   C13849034   5.845   6.624   2.091  0.3003  0.0783 -0.2097
  129MOL   C13949035   5.886   6.698   2.221 -0.4010  0.5266  0.4088
  129MOL   C14049036   5.861   6.853   2.197  0.4712 -0.0985  0.8284
  129MOL   O14149037   5.931   6.409   1.867 -0.1724 -0.2868  0.2796
  129MOL   H14249038   5.682   6.471   1.877 -0.2897 -0.3894  0.0674
  129MOL   H14349039   5.627   6.383   2.013 -1.1878  2.7634 -0.7092
  129MOL   H14449040   5.873   6.280   2.017  1.5467  1.3013  1.2223
  129MOL   H14549041   5.812   6.431   2.178 -0.0355 -0.6538 -0.8093
  129MOL   H14649042   5.977   6.457   2.119 -0.3224  0.1446  1.1902
  129MOL   H14749043   5.744   6.638   2.052  0.8769  2.6505 -0.8617
  129MOL   H14849044   5.919   6.657   2.018 -0.4173 -0.0236 -0.9987
  129MOL   H14949045   5.991   6.678   2.244  0.2236  1.1861 -1.7558
  129MOL   H15049046   5.829   6.659   2.305  1.1683 -1.5434  0.5807
  129MOL   H15149047   5.760   6.866   2.158  0.2803  0.5959  1.5442
  129MOL   H15249048   5.866   6.919   2.284  0.9320 -1.0142  1.4923
  129MOL   H15349049   5.929   6.894   2.122  0.3325  0.2413  0.8872
  129MOL   C15449050   5.971   6.294   1.791  0.0502 -0.2426 -0.4296
  129MOL   C15549051   6.121   6.266   1.822  0.5343 -1.0078 -0.4462
  129MOL   C15649052   6.195   6.159   1.728 -0.2594  0.1933  0.3420
  129MOL   C15749053   6.145   6.162   1.581  0.2560 -0.3773 -0.2332
  129MOL   C15849054   6.208   6.049   1.491  0.8354 -0.0614  0.1526
  129MOL   C15949055   6.121   6.037   1.367  0.2657  0.3604  0.1686
  129MOL   O16049056   6.187   6.390   1.802 -0.0420 -0.3173 -0.2003
  129MOL   H16149057   5.966   6.335   1.690 -0.1836  3.1522  0.8853
  129MOL   H16249058   5.904   6.211   1.810 -1.8434  1.4736  0.5356
  129MOL   H16349059   6.131   6.227   1.923  1.6346  0.8890  0.2006
  129MOL   H16449060   6.171   6.063   1.774  2.2169  0.1926  1.7054
  129MOL   H16549061   6.303   6.169   1.734  0.2652 -2.5811 -2.7224
  129MOL   H16649062   6.162   6.265   1.548 -1.4975  0.0916  0.2282
  129MOL   H16749063   6.036   6.151   1.586  0.4361 -2.7551 -1.1845
  129MOL   H16849064   6.313   6.075   1.477  0.3424  0.4968 -3.0214
  129MOL   H16949065   6.205   5.956   1.547  2.0498 -0.1361  0.1117
  129MOL   H17049066   6.016   6.018   1.386  0.3083 -0.4880 -0.4264
  129MOL   H17149067   6.160   5.962   1.298 -1.7352 -0.6177  0.0549
  129MOL   H17249068   6.124   6.129   1.308  0.0705  0.0339 -0.3533
  129MOL   C17349069   6.288   6.422   1.901  0.4733 -0.0922 -0.1118
  129MOL   C17449070   6.354   6.548   1.835 -0.6445 -0.1861 -0.9227
  129MOL   C17549071   6.422   6.634   1.949 -0.5915  0.2190 -0.1895
  129MOL   C17649072   6.327   6.683   2.054  0.1571 -0.6965 -0.1348
  129MOL   C17749073   6.392   6.788   2.142 -0.1729  0.7071  0.1416
  129MOL   C17849074   6.289   6.835   2.235 -0.0039  0.0008  0.0880
  129MOL   O17949075   6.455   6.515   1.745 -0.4337  0.2456  0.2217
  129MOL   H18049076   6.369   6.350   1.916  2.9138  2.5448 -0.1729
  129MOL   H18149077   6.235   6.443   1.994  0.5657 -0.3734  0.0036
  129MOL   H18249078   6.280   6.614   1.790  0.0524 -0.4543 -2.5106
  129MOL   H18349079   6.499   6.578   2.002 -2.9022 -1.2506  1.7452
  129MOL   H18449080   6.478   6.720   1.913  1.3416 -0.9342 -0.0380
  129MOL   H18549081   6.241   6.729   2.005  1.5473  2.1678  0.0462
  129MOL   H18649082   6.280   6.607   2.116 -0.5333 -0.4966 -0.4004
  129MOL   H18749083   6.473   6.733   2.192 -1.0323 -0.8309 -0.1116
  129MOL   H18849084   6.429   6.872   2.084  3.0008  1.2529  2.7537
  129MOL   H18949085   6.198   6.862   2.182 -1.3627 -1.6198  1.5120
  129MOL   H19049086   6.313   6.925   2.291  0.6248 -0.7793  1.0984
  129MOL   H19149087   6.274   6.758   2.311  0.7519 -0.1009  0.1412
  129MOL   C19249088   6.400   6.499   1.615 -0.8193  0.0227  0.2454
  129MOL   C19349089   6.523   6.491   1.517 -0.4037 -0.2145  0.4093
  129MOL   C19449090   6.637   6.406   1.570  0.2766 -0.8759  0.6086
  129MOL   C19549091   6.597   6.258   1.595 -0.2382 -0.3167 -0.2869
  129MOL   C19649092   6.713   6.167   1.633  0.4317 -0.5461 -0.4588
  129MOL   C19749093   6.684   6.025   1.618  0.4824  0.0147  0.4367
  129MOL   O19849094   6.561   6.616   1.467 -0.1657 -0.0872  0.4016
  129MOL   H19949095   6.341   6.408   1.621 -0.3033 -0.4464 -1.3965
  129MOL   H20049096   6.335   6.582   1.587 -0.0899  0.9497  1.2484
  129MOL   H20149097   6.487   6.455   1.421 -1.2918  1.3709  0.1343
  129MOL   H20249098   6.719   6.395   1.500  2.0817 -1.5915  2.7809
  129MOL   H20349099   6.681   6.451   1.658  1.1359  3.3479 -1.8546
  129MOL   H20449100   6.549   6.209   1.511 -0.3326 -0.0155 -0.4109
  129MOL   H20549101   6.526   6.252   1.678  0.4259  0.5155  0.3615
  129MOL   H20649102   6.798   6.191   1.569  0.2989 -1.6650 -1.0661
  129MOL   H20749103   6.750   6.200   1.731 -0.4316  0.1041 -0.3431
  129MOL   H20849104   6.600   5.996   1.681  0.1183  0.2657  0.0674
  129MOL   H20949105   6.655   6.009   1.514 -0.5474 -2.6824  1.0783
  129MOL   H21049106   6.775   5.969   1.636  1.5072  0.9145 -1.7821
  129MOL   C21149107   6.596   6.716   1.561 -0.3952 -0.0267 -0.6965
  129MOL   C21249108   6.654   6.845   1.498  0.1254 -0.1240 -0.5701
  129MOL   C21349109   6.804   6.847   1.466  0.5831  0.5070 -0.6586
  129MOL   C21449110   6.840   6.964   1.376 -0.2298  0.6284 -0.0076
  129MOL   C21549111   6.989   6.983   1.346  0.1453 -0.0290 -0.2356
  129MOL   C21649112   7.023   7.095   1.249 -0.1138  0.0431  0.1129
  129MOL   O21749113   6.625   6.960   1.577  0.2090 -0.1180 -0.2241
  129MOL   H21849114   6.660   6.675   1.640 -1.4345  1.3061  0.8813
  129MOL   H21949115   6.501   6.747   1.606 -0.2461 -0.9607  0.2944
  129MOL   H22049116   6.594   6.875   1.412 -1.1680  0.3178  0.4811
  129MOL   H22149117   6.854   6.837   1.562  2.2696 -0.4944 -1.6170
  129MOL   H22249118   6.827   6.763   1.400 -1.3548  1.3741 -2.5172
  129MOL   H22349119   6.783   6.957   1.283 -0.4698  1.4362  0.0725
  129MOL   H22449120   6.807   7.056   1.424 -0.4052 -0.1606  1.3977
  129MOL   H22549121   7.037   7.008   1.441 -0.3769 -0.0299  0.0282
  129MOL   H22649122   7.033   6.888   1.314  0.3950 -0.1481  0.4519
  129MOL   H22749123   7.128   7.124   1.245 -0.0829  0.3447  2.7844
  129MOL   H22849124   6.971   7.187   1.274 -0.9524  0.2070 -2.0889
  129MOL   H22949125   7.000   7.069   1.145  1.0565  0.5276 -0.2740
  129MOL   C23049126   6.644   6.962   1.717 -0.5365  0.0538  0.2375
  129MOL   C23149127   6.591   7.087   1.793 -0.4100  0.0796 -0.3216
  129MOL   C23249128   6.645   7.077   1.940 -1.0244  0.7738  0.2298
  129MOL   C23349129   6.602   7.193   2.033 -0.6071 -0.7482  0.8201
  129MOL   C23449130   6.651   7.189   2.183 -0.3456  0.0105  0.1333
  129MOL   C23549131   6.662   7.329   2.257  0.4215  0.1513  0.1752
  129MOL   O23649132   6.450   7.082   1.807  0.4121 -0.1477 -0.3459
  129MOL   H23749133   6.595   6.875   1.761 -0.8580  0.5453  0.8552
  129MOL   H23849134   6.751   6.954   1.736 -0.3511  0.6237 -0.5338
  129MOL   H23949135   6.630   7.183   1.760  1.6887  0.0639  1.9483
  129MOL   H24049136   6.754   7.078   1.946 -0.8230 -0.8623 -2.4734
  129MOL   H24149137   6.611   6.985   1.986 -0.3006 -0.6667 -2.0183
  129MOL   H24249138   6.494   7.205   2.033 -0.7508 -1.8044 -2.0136
  129MOL   H24349139   6.645   7.282   1.986 -1.8005 -0.6027 -0.0173
  129MOL   H24449140   6.590   7.121   2.242 -1.4234  1.9776  1.3505
  129MOL   H24549141   6.752   7.147   2.180 -0.4836 -0.4320  1.5541
  129MOL   H24649142   6.560   7.366   2.265  0.8198  1.0437  1.3028
  129MOL   H24749143   6.713   7.408   2.201 -1.1161 -0.1060 -1.6193
  129MOL   H24849144   6.699   7.334   2.359 -2.1303 -0.1369  1.1399
  129MOL   C24949145   6.373   7.117   1.693 -0.7010 -0.4349 -0.2788
  129MOL   C25049146   6.263   7.012   1.684 -0.5855  0.6456 -0.0068
  129MOL   C25149147   6.211   6.990   1.543  0.0832 -0.2634 -0.2080
  129MOL   C25249148   6.288   6.894   1.458 -0.1176 -0.8395  0.3393
  129MOL   C25349149   6.220   6.890   1.325 -0.3593 -0.0075  0.4245
  129MOL   C25449150   6.310   6.823   1.213 -0.4689 -0.4720  0.2345
  129MOL   O25549151   6.143   7.063   1.747 -0.3089 -0.4074 -0.5816
  129MOL   H25649152   6.332   7.218   1.701 -1.4936 -0.7567 -0.2300
  129MOL   H25749153   6.422   7.111   1.596 -2.1363  2.1610 -1.2146
  129MOL   H25849154   6.288   6.915   1.729  0.8918  0.4922 -1.0872
  129MOL   H25949155   6.114   6.945   1.564 -1.2965  3.5008  1.8286
  129MOL   H26049156   6.202   7.086   1.494 -1.7956 -0.1176  0.3845
  129MOL   H26149157   6.394   6.915   1.447 -1.2406  4.0433 -2.4600
  129MOL   H26249158   6.284   6.798   1.510  2.3147  0.2662  2.6627
  129MOL   H26349159   6.129   6.831   1.327  0.2553 -0.9909  0.0598
  129MOL   H26449160   6.168   6.977   1.286 -0.1141  0.6565  1.5582
  129MOL   H26549161   6.354   6.727   1.239  0.3237  0.1042  1.0684
  129MOL   H26649162   6.393   6.890   1.194 -1.1730  1.1063  2.5340
  129MOL   H26749163   6.249   6.834   1.123  0.5727  1.1267 -0.2833
  129MOL   C26849164   6.142   7.082   1.885  0.0971  0.2629  0.2986
  129MOL   C26949165   6.014   7.141   1.937 -0.6330 -1.1713  0.1757
  129MOL   C27049166   6.012   7.201   2.082 -0.1029 -0.3970  0.2553
  129MOL   C27149167   5.882   7.268   2.126  0.3764  0.2509  1.1419
  129MOL   C27249168   5.905   7.376   2.239  0.4765 -0.6296  0.1581
  129MOL   C27349169   5.795   7.483   2.251  0.3003  0.5356 -0.1158
  129MOL   O27449170   5.915   7.044   1.929  0.4685 -0.1636 -0.0342
  129MOL   H27549171   6.221   7.150   1.915 -0.8345  1.4565  0.0908
  129MOL   H27649172   6.163   6.988   1.936  1.4394  1.1032  1.3187
  129MOL   H27749173   5.997   7.221   1.865  0.5214 -2.2473 -1.3315
  129MOL   H27849174   6.023   7.127   2.161  1.7107 -2.2452 -1.6678
  129MOL   H27949175   6.091   7.276   2.084  0.6804 -1.2272  0.8236
  129MOL   H28049176   5.834   7.310   2.037  0.7017 -2.1955 -0.2342
  129MOL   H28149177   5.810   7.195   2.163  0.7615 -0.1320  1.1336
  129MOL   H28249178   5.910   7.326   2.335 -1.8328 -1.7793 -0.2807
  129MOL   H28349179   6.001   7.419   2.211  0.2309 -1.1281 -1.5662
  129MOL   H28449180   5.825   7.580   2.292 -1.5984  1.5088 -0.9693
  129MOL   H28549181   5.752   7.501   2.152  0.3731 -0.3940 -0.3187
  129MOL   H28649182   5.716   7.444   2.315  1.7908 -1.5182  0.5024
  129MOL   C28749183   5.815   7.062   1.827  0.4367  0.3450 -0.0141
  129MOL   C28849184   5.716   6.946   1.843  0.5037  0.0170 -0.7031
  129MOL   C28949185   5.710   6.832   1.735 -0.6140  0.1657 -0.4270
  129MOL   C29049186   5.847   6.774   1.696 -0.1820 -0.6153 -0.0842
  129MOL   C29149187   5.837   6.667   1.591  0.1413 -0.0539  0.0724
  129MOL   C29249188   5.973   6.599   1.577 -0.0535 -0.0625 -0.3395
  129MOL   O29349189   5.588   7.000   1.865 -0.4148 -0.1228 -0.4104
  129MOL   H29449190   5.849   7.059   1.724  0.2779  1.2866 -0.0960
  129MOL   H29549191   5.772   7.161   1.839  1.9420  1.2261 -1.6765
  129MOL   H29649192   5.740   6.897   1.938 -0.2890  1.3338  0.1964
  129MOL   H29749193   5.659   6.743   1.771  0.4322  0.2390  1.3137
  129MOL   H29849194   5.656   6.870   1.648 -3.7752  0.8763  1.7948
  129MOL   H29949195   5.922   6.844   1.658 -1.0625  0.6233  0.4077
  129MOL   H30049196   5.891   6.743   1.791 -0.7203 -1.7081 -0.1919
  129MOL   H30149197   5.816   6.720   1.498  0.4134  0.3767  0.2515
  129MOL   H30249198   5.754   6.598   1.603 -1.1223  1.0230 -2.0467
  129MOL   H30349199   6.054   6.658   1.533 -0.8643  1.4802  0.2010
  129MOL   H30449200   6.005   6.576   1.678  0.0107  0.7752 -0.1634
  129MOL   H30549201   5.971   6.508   1.516  0.5760 -0.8843  0.8501
  129MOL   C30649202   5.512   6.926   1.962 -0.1230  0.4659 -0.2441
  129MOL   C30749203   5.371   6.993   1.982 -0.2698 -0.8699 -0.1311
  129MOL   C30849204   5.281   7.022   1.857  0.7174 -0.2399 -0.3251
  129MOL   C30949205   5.273   6.904   1.765 -0.2907  0.1449  0.2786
  129MOL   C31049206   5.143   6.905   1.670 -0.4489  0.7203 -0.1827
  129MOL   C31149207   5.142   7.012   1.573 -0.0180 -0.2022  0.1407
  129MOL   O31249208   5.401   7.112   2.054  0.2792 -0.5618 -0.6306
  129MOL   H31349209   5.501   6.826   1.922  2.2791 -0.1797  0.6441
  129MOL   H31449210   5.575   6.922   2.051 -0.7886  1.3137  0.2713
  129MOL   H31549211   5.320   6.929   2.054  1.0160 -2.0388 -0.2478
  129MOL   H31649212   5.323   7.105   1.800 -2.4929  1.4341 -0.4139
  129MOL   H31749213   5.182   7.061   1.881  0.7783  1.0476 -2.0336
  129MOL   H31849214   5.369   6.893   1.715 -0.4610 -0.3146  0.0516
  129MOL   H31949215   5.247   6.813   1.818 -0.1384 -0.2210 -0.2661
  129MOL   H32049216   5.055   6.913   1.733  0.1328 -1.6034  0.9789
  129MOL   H32149217   5.135   6.809   1.618  1.8058  0.3904  0.0389
  129MOL   H32249218   5.064   7.003   1.497 -0.4613  1.2194  0.4087
  129MOL   H32349219   5.119   7.096   1.638  0.7945 -0.0834  0.2857
  129MOL   H32449220   5.241   7.022   1.528 -0.3462  0.4692 -0.4380
  129MOL   C32549221   5.289   7.159   2.126  0.9755 -0.2661  0.1481
  129MOL   C32649222   5.336   7.292   2.198 -0.1134 -0.2591 -0.5075
  129MOL   C32749223   5.257   7.328   2.325 -0.4495  0.5182  0.1413
  129MOL   C32849224   5.295   7.464   2.390 -0.2287  0.6180  0.4505
  129MOL   C32949225   5.228   7.488   2.524  0.2846 -0.1849  0.5463
  129MOL   C33049226   5.275   7.614   2.595  0.0512  0.3729 -0.2055
  129MOL   O33149227   5.329   7.401   2.104 -0.3755  0.1050  0.0439
  129MOL   H33249228   5.260   7.082   2.198  3.0964 -4.5169 -3.3123
  129MOL   H33349229   5.192   7.178   2.078  0.4451 -0.9687  0.9163
  129MOL   H33449230   5.436   7.276   2.238 -0.2390 -0.2819 -0.2002
  129MOL   H33549231   5.149   7.332   2.313 -0.6825  0.5320  2.1373
  129MOL   H33649232   5.277   7.245   2.393 -0.1002 -0.2522 -0.8776
  129MOL   H33749233   5.402   7.484   2.386 -0.2252  0.3861 -1.3934
  129MOL   H33849234   5.266   7.546   2.323  0.0232 -0.8547 -1.4787
  129MOL   H33949235   5.119   7.485   2.519  0.2653  0.1876  0.7855
  129MOL   H34049236   5.245   7.394   2.576 -2.0577  0.4822  2.6382
  129MOL   H34149237   5.252   7.603   2.701 -0.2417 -2.4586 -0.5060
  129MOL   H34249238   5.382   7.608   2.577  0.0991 -2.2378  0.6974
  129MOL   H34349239   5.229   7.698   2.544  0.3104  1.2685  1.0217
  129MOL   C34449240   5.426   7.433   2.011  0.2647 -0.3838 -0.4210
  129MOL   C34549241   5.382   7.411   1.864  0.1716  0.4839  0.1137
  129MOL   C34649242   5.259   7.490   1.826  0.5643 -0.0071 -0.1665
  129MOL   C34749243   5.194   7.467   1.685  0.2497  0.5707 -0.4165
  129MOL   C34849244   5.056   7.531   1.692 -0.1943 -0.1325  0.6103
  129MOL   C34949245   4.978   7.517   1.560 -0.1362  0.0279 -0.5584
  129MOL   O35049246   5.479   7.444   1.771 -0.3413 -0.9192 -0.3097
  129MOL   H35149247   5.520   7.383   2.033  0.7743  0.0609 -1.5674
  129MOL   H35249248   5.449   7.538   2.029 -1.9312  0.4010 -1.8855
  129MOL   H35349249   5.348   7.309   1.847  1.0231  0.4727 -1.6157
  129MOL   H35449250   5.291   7.594   1.831  1.6694 -0.3113 -0.6850
  129MOL   H35549251   5.191   7.476   1.910  1.4191 -0.9897  0.3740
  129MOL   H35649252   5.190   7.362   1.658  0.5283 -0.0836  1.9404
  129MOL   H35749253   5.252   7.517   1.607 -0.1487  0.1570 -0.9761
  129MOL   H35849254   5.079   7.633   1.723  0.2644 -0.1518  0.3285
  129MOL   H35949255   4.990   7.507   1.776 -1.5018  0.1852 -0.3064
  129MOL   H36049256   4.964   7.413   1.532 -0.6680  0.2488 -1.1158
  129MOL   H36149257   5.014   7.579   1.477 -0.8295 -0.8171 -1.5016
  129MOL   H36249258   4.883   7.557   1.595 -1.0021 -1.7656 -0.8303
  129MOL   C36349259   5.573   7.338   1.759 -0.0460 -0.4954 -0.8214
  129MOL   C36449260   5.662   7.403   1.653  0.3196 -0.5694  0.9029
  129MOL   C36549261   5.802   7.339   1.645  0.1326  0.2924 -0.1395
  129MOL   C36649262   5.901   7.404   1.556 -0.2038  0.2980 -0.3746
  129MOL   C36749263   6.031   7.330   1.532 -0.4805 -0.1781 -0.3109
  129MOL   C36849264   6.107   7.377   1.413 -0.3198  0.6336  0.3711
  129MOL   O36949265   5.610   7.384   1.525  0.3385 -0.3439 -0.0258
  129MOL   H37049266   5.533   7.242   1.726 -1.4659  0.8819 -3.2195
  129MOL   H37149267   5.623   7.318   1.854 -0.7070  1.9310  0.0882
  129MOL   H37249268   5.679   7.505   1.687 -0.0459  0.2082 -1.1311
  129MOL   H37349269   5.851   7.335   1.742 -1.1953 -0.8785  0.4963
  129MOL   H37449270   5.798   7.234   1.616 -1.3133 -0.0966  1.3893
  129MOL   H37549271   5.856   7.412   1.458 -0.1502 -1.6684 -0.5871
  129MOL   H37649272   5.937   7.497   1.598 -1.2437  0.6998 -0.3461
  129MOL   H37749273   6.096   7.342   1.618  0.7641  1.0677 -1.4030
  129MOL   H37849274   6.012   7.223   1.521  1.3531 -0.5327 -0.2705
  129MOL   H37949275   6.054   7.338   1.326  0.8251 -1.7017  0.6650
  129MOL   H38049276   6.101   7.485   1.403 -0.8537  0.3974 -2.2806
  129MOL   H38149277   6.210   7.344   1.416  0.0025  1.5920 -0.0078
  129MOL   H38249278   5.517   7.403   1.531  0.7716  1.7182  0.1551
  130MOL     C149279   1.694   4.653   4.125  0.3689 -0.3729  0.9952
  130MOL     C249280   1.729   4.804   4.147  0.9201  0.1812  1.0937
  130MOL     C349281   1.723   4.889   4.020 -0.2849 -0.0710  0.1882
  130MOL     C449282   1.837   4.861   3.921  0.4001  0.6282 -0.1112
  130MOL     C549283   1.851   4.961   3.813 -0.2152 -0.1916 -0.4231
  130MOL     C649284   1.731   4.956   3.715 -0.0783 -0.2972 -0.1509
  130MOL     O749285   1.621   4.857   4.232 -0.5796 -0.1053  0.7494
  130MOL     H849286   1.598   4.636   4.078  0.8472  0.3799 -0.2719
  130MOL     H949287   1.689   4.597   4.219  1.1498  0.6489  1.6697
  130MOL    H1049288   1.828   4.820   4.188  1.6091  0.9602 -0.8165
  130MOL    H1149289   1.627   4.873   3.971  0.3278  0.1532 -1.0897
  130MOL    H1249290   1.734   4.990   4.060  0.1879  0.1953 -0.6234
  130MOL    H1349291   1.928   4.867   3.980  0.8860  0.0752 -0.7914
  130MOL    H1449292   1.823   4.766   3.870  0.3281  0.4044  0.3321
  130MOL    H1549293   1.864   5.061   3.854  2.8243 -1.2997  1.5356
  130MOL    H1649294   1.937   4.930   3.753  0.5324  0.5413  0.2576
  130MOL    H1749295   1.716   4.853   3.682 -1.7475  0.4266 -1.7057
  130MOL    H1849296   1.639   4.978   3.770 -0.6745  0.3704 -1.3793
  130MOL    H1949297   1.727   5.028   3.633 -2.6010  0.3571  0.4789
  130MOL    H2049298   1.774   4.609   4.065  0.1861  0.4669  0.1216
  130MOL    C2149299   1.667   4.950   4.325  0.3892  0.6885 -0.5275
  130MOL    C2249300   1.556   4.996   4.421  0.7120 -0.4086 -1.0591
  130MOL    C2349301   1.597   4.997   4.574 -0.0985  0.7237 -0.0491
  130MOL    C2449302   1.718   5.090   4.596 -0.5695 -0.1546 -0.2362
  130MOL    C2549303   1.790   5.092   4.734 -0.3482  0.9349 -0.3626
  130MOL    C2649304   1.837   4.954   4.792  0.0549 -0.3266 -0.7264
  130MOL    O2749305   1.513   5.127   4.377  0.0957 -0.0595  0.2842
  130MOL    H2849306   1.738   4.893   4.385  0.6492 -0.3378 -1.7741
  130MOL    H2949307   1.713   5.033   4.270  0.3330 -0.8734 -3.0425
  130MOL    H3049308   1.476   4.922   4.406  1.8813 -1.9126 -0.0197
  130MOL    H3149309   1.618   4.893   4.597 -0.8726  0.1967 -1.5949
  130MOL    H3249310   1.517   5.034   4.638 -0.7368 -0.1444 -0.3379
  130MOL    H3349311   1.707   5.192   4.559  1.3528  0.4656  0.8278
  130MOL    H3449312   1.796   5.051   4.531  1.7236  0.5205  2.0469
  130MOL    H3549313   1.864   5.173   4.737 -0.3591  0.8964  1.5350
  130MOL    H3649314   1.712   5.132   4.798 -1.0914  1.5861 -1.6569
  130MOL    H3749315   1.921   4.909   4.739  0.9709  1.7271 -1.1016
  130MOL    H3849316   1.755   4.884   4.805 -2.1049  2.3891  0.7309
  130MOL    H3949317   1.876   4.968   4.893 -0.4714 -0.7504 -0.4645
  130MOL    C4049318   1.393   5.126   4.300 -0.0065 -0.5281 -0.3779
  130MOL    C4149319   1.359   5.271   4.263  0.1171 -0.2212 -0.2841
  130MOL    C4249320   1.210   5.306   4.255  0.7038 -0.0007 -0.1165
  130MOL    C4349321   1.186   5.455   4.242  0.0733 -0.7521  0.0732
  130MOL    C4449322   1.036   5.481   4.235  0.4222 -0.2482  0.5182
  130MOL    C4549323   0.978   5.531   4.369 -0.5413 -0.4580 -0.4655
  130MOL    O4649324   1.424   5.298   4.135  0.3252  0.0287  0.2616
  130MOL    H4749325   1.312   5.089   4.362  1.2016  0.6922  2.0109
  130MOL    H4849326   1.411   5.054   4.220  0.8859 -1.4167  0.6126
  130MOL    H4949327   1.402   5.342   4.334 -1.3046 -0.2392  0.6160
  130MOL    H5049328   1.155   5.250   4.180  0.7821 -2.3873  1.5367
  130MOL    H5149329   1.167   5.257   4.343  1.1708 -0.5966 -0.2218
  130MOL    H5249330   1.239   5.482   4.150 -1.6228  0.3202 -0.6088
  130MOL    H5349331   1.241   5.503   4.323  0.5872 -0.6513 -0.3295
  130MOL    H5449332   1.030   5.565   4.166 -1.0141 -2.0548 -1.6581
  130MOL    H5549333   0.978   5.396   4.199  1.9839 -1.0833 -0.0391
  130MOL    H5649334   0.871   5.555   4.369 -0.3024  0.6019 -0.2566
  130MOL    H5749335   0.990   5.461   4.452  0.2881  0.0269 -0.1830
  130MOL    H5849336   1.024   5.627   4.392  2.3467 -2.3209  1.8619
  130MOL    C5949337   1.557   5.325   4.139 -0.7423  0.3611 -0.1861
  130MOL    C6049338   1.617   5.329   4.000  0.4615 -0.1970  0.0798
  130MOL    C6149339   1.528   5.403   3.893 -0.2371 -0.5484  0.7137
  130MOL    C6249340   1.576   5.371   3.743  0.3175  0.4058  0.4138
  130MOL    C6349341   1.524   5.475   3.646  0.4165  0.4350 -0.8076
  130MOL    C6449342   1.595   5.476   3.512 -0.5446  0.1700  0.0287
  130MOL    O6549343   1.743   5.393   4.021 -0.3540  0.1392  0.0795
  130MOL    H6649344   1.618   5.259   4.200  0.5088  1.2438 -0.4446
  130MOL    H6749345   1.582   5.423   4.180  0.7425  0.3829 -1.0918
  130MOL    H6849346   1.634   5.234   3.948 -1.0559 -0.3405 -0.1639
  130MOL    H6949347   1.535   5.510   3.909 -2.0440  0.2176 -3.1163
  130MOL    H7049348   1.420   5.395   3.906 -0.1001  1.1450  3.2953
  130MOL    H7149349   1.541   5.271   3.720  0.3811  0.2156  1.1286
  130MOL    H7249350   1.682   5.347   3.739  0.8532  2.8098 -0.6716
  130MOL    H7349351   1.535   5.572   3.695  0.8422  1.3305 -2.6063
  130MOL    H7449352   1.419   5.460   3.620  0.3730  0.8616 -0.8849
  130MOL    H7549353   1.589   5.375   3.471  1.1051 -0.3166  0.9514
  130MOL    H7649354   1.551   5.543   3.438  1.2124 -1.5866 -2.7150
  130MOL    H7749355   1.698   5.507   3.530 -0.9352  2.7465 -1.7987
  130MOL    C7849356   1.858   5.310   4.025  0.8038  0.4202 -0.4835
  130MOL    C7949357   1.974   5.406   4.074 -0.4486 -0.8286  0.9007
  130MOL    C8049358   2.028   5.482   3.954 -0.5933  0.1878 -0.0884
  130MOL    C8149359   2.142   5.574   3.990  0.2823 -0.2876  0.1850
  130MOL    C8249360   2.207   5.640   3.866  0.3179 -0.0421 -0.1173
  130MOL    C8349361   2.297   5.751   3.903  0.4661  0.2668 -0.1837
  130MOL    O8449362   2.085   5.340   4.133  0.5264 -0.7403  0.4594
  130MOL    H8549363   1.881   5.270   3.927  0.7978 -0.3760 -0.1685
  130MOL    H8649364   1.842   5.232   4.099 -0.1768  0.9268 -0.1531
  130MOL    H8749365   1.937   5.479   4.146  0.1306  2.5522 -2.0766
  130MOL    H8849366   2.077   5.411   3.887  1.2102  1.6391 -0.3081
  130MOL    H8949367   1.957   5.531   3.887  0.4225  1.5676 -0.1768
  130MOL    H9049368   2.217   5.515   4.042 -0.3763  0.8354  2.4979
  130MOL    H9149369   2.110   5.660   4.050 -1.5572  1.2170 -2.8273
  130MOL    H9249370   2.241   5.565   3.794  0.3356 -0.4947  0.3622
  130MOL    H9349371   2.133   5.697   3.809  0.2801  0.2623  0.2352
  130MOL    H9449372   2.357   5.783   3.818 -0.7339  0.8601 -0.8120
  130MOL    H9549373   2.370   5.718   3.978 -0.2832  0.9317  0.8607
  130MOL    H9649374   2.247   5.840   3.942  1.8017  1.9738 -2.2666
  130MOL    C9749375   2.061   5.289   4.260  0.4453  0.5525  0.6432
  130MOL    C9849376   2.100   5.381   4.380 -0.2295 -0.1856  0.1818
  130MOL    C9949377   2.223   5.451   4.349 -0.2944 -0.1578  0.4197
  130MOL   C10049378   2.278   5.522   4.472 -0.1415  0.8222  0.5089
  130MOL   C10149379   2.385   5.632   4.437  0.1102 -0.4189  0.3518
  130MOL   C10249380   2.532   5.577   4.399 -0.0317 -0.6350 -0.3187
  130MOL   O10349381   1.991   5.466   4.413  0.4958 -0.0348  0.1232
  130MOL   H10449382   2.119   5.197   4.261  2.0741  1.5479 -0.5155
  130MOL   H10549383   1.959   5.253   4.274  1.3046 -2.1239  0.2474
  130MOL   H10649384   2.116   5.314   4.464 -0.9518 -0.4194  0.1436
  130MOL   H10749385   2.209   5.511   4.259 -1.0385 -0.8387  0.0797
  130MOL   H10849386   2.296   5.376   4.319 -0.8620 -0.6759  0.3307
  130MOL   H10949387   2.311   5.459   4.554 -0.0653  1.7707  1.2148
  130MOL   H11049388   2.195   5.578   4.515  0.2274  1.0486  0.9345
  130MOL   H11149389   2.393   5.688   4.530  0.4857  0.0172  0.0552
  130MOL   H11249390   2.342   5.701   4.363 -0.7149 -0.8429  0.4240
  130MOL   H11349391   2.557   5.492   4.463 -1.6311  0.7070  2.1870
  130MOL   H11449392   2.530   5.537   4.298  1.3716 -1.3677 -0.0778
  130MOL   H11549393   2.608   5.656   4.403  1.7213 -2.2374 -1.4063
  130MOL   C11649394   1.870   5.408   4.475  0.5585 -0.8020 -0.7087
  130MOL   C11749395   1.754   5.506   4.481  0.4778 -0.0060 -0.8667
  130MOL   C11849396   1.737   5.606   4.364  0.1662  0.5378  0.8862
  130MOL   C11949397   1.595   5.661   4.348  0.0409  0.0687 -0.0359
  130MOL   C12049398   1.577   5.740   4.216  0.1006 -0.6424  0.7513
  130MOL   C12149399   1.441   5.774   4.159 -0.1749  0.5200 -0.0030
  130MOL   O12249400   1.753   5.575   4.602  0.1126 -0.1548  0.4081
  130MOL   H12349401   1.829   5.325   4.418 -0.6601 -0.2150 -0.6976
  130MOL   H12449402   1.885   5.367   4.575  0.4397 -0.8243 -0.6998
  130MOL   H12549403   1.661   5.450   4.480  0.4868 -0.0646  0.5992
  130MOL   H12649404   1.808   5.688   4.374  0.1785  0.3800  2.0517
  130MOL   H12749405   1.766   5.545   4.278 -2.3218 -1.1108  1.1464
  130MOL   H12849406   1.565   5.728   4.428  1.7310 -0.2937  0.9195
  130MOL   H12949407   1.528   5.576   4.356 -1.3686  1.0808 -0.8124
  130MOL   H13049408   1.631   5.833   4.202 -0.3887 -0.7162 -2.0165
  130MOL   H13149409   1.622   5.680   4.136 -0.4508 -1.0765  0.7650
  130MOL   H13249410   1.382   5.683   4.154  2.0782 -1.0247  0.4411
  130MOL   H13349411   1.388   5.831   4.235  1.3741  1.3715  0.4748
  130MOL   H13449412   1.444   5.805   4.055  1.0271 -0.4347 -0.2708
  130MOL   C13549413   1.870   5.633   4.644 -0.3860  0.0012 -0.7825
  130MOL   C13649414   1.855   5.722   4.769 -0.2299 -0.4608 -0.6531
  130MOL   C13749415   1.990   5.776   4.819  0.0726  1.3225 -0.3714
  130MOL   C13849416   2.053   5.879   4.729 -0.2992  0.0177  0.8887
  130MOL   C13949417   2.206   5.908   4.770  0.3884  0.3099 -0.4838
  130MOL   C14049418   2.270   6.016   4.673 -0.5015 -0.1523  0.1998
  130MOL   O14149419   1.814   5.635   4.871 -0.6232  0.1351  0.1193
  130MOL   H14249420   1.937   5.552   4.672 -0.2767  0.1006 -0.7560
  130MOL   H14349421   1.916   5.686   4.560  0.8192  0.4765  0.1496
  130MOL   H14449422   1.793   5.809   4.749 -0.0256  0.0137  0.6955
  130MOL   H14549423   1.992   5.826   4.916  3.0269 -0.0959  0.3727
  130MOL   H14649424   2.060   5.693   4.831  0.6722  1.8524 -0.1660
  130MOL   H14749425   2.002   5.975   4.723  1.7559  1.0744 -0.1811
  130MOL   H14849426   2.041   5.843   4.627 -0.9608  0.9652  0.6347
  130MOL   H14949427   2.256   5.812   4.780 -2.2401 -1.2095 -1.3453
  130MOL   H15049428   2.208   5.954   4.869  0.1326  1.1334 -0.8596
  130MOL   H15149429   2.221   6.114   4.674 -0.1045  0.1189 -2.7385
  130MOL   H15249430   2.373   6.030   4.706 -0.5449 -0.4556  0.4650
  130MOL   H15349431   2.270   5.991   4.567  1.4825  1.1978 -0.1383
  130MOL   C15449432   1.682   5.611   4.884  0.8363 -0.7087 -0.0585
  130MOL   C15549433   1.673   5.458   4.899  0.1119 -0.2170  0.6999
  130MOL   C15649434   1.731   5.424   5.039 -0.3081 -0.3458 -0.4465
  130MOL   C15749435   1.761   5.276   5.054  0.9216 -0.4035  0.1027
  130MOL   C15849436   1.790   5.230   5.194 -0.5670 -0.9392  0.2925
  130MOL   C15949437   1.900   5.310   5.244  0.0746 -0.0871 -0.3691
  130MOL   O16049438   1.541   5.416   4.906  0.3260 -0.0118 -0.1443
  130MOL   H16149439   1.620   5.643   4.799 -1.3093 -2.5346  0.7547
  130MOL   H16249440   1.642   5.668   4.968 -0.0546 -1.5867  0.1234
  130MOL   H16349441   1.727   5.407   4.819  1.5275  1.5575  0.4735
  130MOL   H16449442   1.661   5.456   5.116 -0.1828 -1.1401  0.0004
  130MOL   H16549443   1.824   5.479   5.051 -0.4595 -0.2098  0.0966
  130MOL   H16649444   1.846   5.252   4.989 -0.0340 -0.4863 -1.1250
  130MOL   H16749445   1.673   5.221   5.022  0.9353 -0.2155 -0.2666
  130MOL   H16849446   1.699   5.243   5.252 -0.4078 -1.4608  0.6577
  130MOL   H16949447   1.821   5.126   5.201  3.0674  0.1560  1.8370
  130MOL   H17049448   1.885   5.417   5.253  1.6056  0.2048 -1.0767
  130MOL   H17149449   1.998   5.305   5.195 -0.3577  0.1827 -1.2660
  130MOL   H17249450   1.914   5.288   5.350 -0.3337  1.2187 -0.0483
  130MOL   C17349451   1.491   5.372   4.781  0.2951  0.5035  0.3506
  130MOL   C17449452   1.341   5.335   4.789  0.2405 -0.4783  0.2965
  130MOL   C17549453   1.282   5.295   4.647  0.5228 -0.2564 -0.5200
  130MOL   C17649454   1.139   5.235   4.649  0.1656  0.1839  0.0054
  130MOL   C17749455   1.027   5.329   4.706 -0.2399 -1.0907  0.0946
  130MOL   C17849456   0.890   5.260   4.687 -0.0919  0.2409  0.2879
  130MOL   O17949457   1.322   5.214   4.867 -0.2287  0.0184  0.4152
  130MOL   H18049458   1.539   5.277   4.756 -2.4859 -0.8969  0.0972
  130MOL   H18149459   1.508   5.435   4.694  1.0557  0.7327  0.6668
  130MOL   H18249460   1.296   5.422   4.839  0.5557 -1.7529  2.8735
  130MOL   H18349461   1.282   5.380   4.580 -0.9016 -0.9950 -1.4663
  130MOL   H18449462   1.353   5.228   4.599  0.3386 -0.6618 -0.2337
  130MOL   H18549463   1.108   5.203   4.549 -0.8885  0.0635  0.3667
  130MOL   H18649464   1.139   5.134   4.690 -0.2753  0.0190 -0.3992
  130MOL   H18749465   1.037   5.326   4.815 -2.7011  2.2015  0.4938
  130MOL   H18849466   1.020   5.437   4.694 -1.1591 -0.8879  2.2239
  130MOL   H18949467   0.899   5.157   4.719 -1.2407 -0.3409 -1.1976
  130MOL   H19049468   0.857   5.270   4.583 -0.1348 -0.5341  0.2272
  130MOL   H19149469   0.811   5.295   4.754 -1.1466 -1.9048  0.1964
  130MOL   C19249470   1.320   5.233   5.012  0.0852  0.6583 -0.5790
  130MOL   C19349471   1.329   5.091   5.078 -0.0524  0.4712  0.8771
  130MOL   C19449472   1.449   5.006   5.027  0.1998  0.0931 -0.2076
  130MOL   C19549473   1.453   4.875   5.097  0.5037  0.2760 -0.3168
  130MOL   C19649474   1.569   4.786   5.051  0.2031  0.3004 -0.2159
  130MOL   C19749475   1.550   4.726   4.912  0.2252  0.2914  1.0721
  130MOL   O19849476   1.211   5.025   5.050 -0.0259  0.2255  0.1138
  130MOL   H19949477   1.403   5.286   5.058 -0.6457  0.6843  0.7427
  130MOL   H20049478   1.234   5.294   5.041 -0.5460 -0.4060 -0.1544
  130MOL   H20149479   1.339   5.107   5.185 -0.7973 -2.8530  1.4961
  130MOL   H20249480   1.440   4.997   4.919 -0.1367 -1.9549 -0.0353
  130MOL   H20349481   1.534   5.067   5.055  2.0758 -1.4064 -2.4610
  130MOL   H20449482   1.362   4.815   5.100  1.3005 -0.8890  0.9416
  130MOL   H20549483   1.475   4.890   5.202  0.6044 -1.1825 -0.1140
  130MOL   H20649484   1.655   4.851   5.032  1.1751 -1.2137 -1.1580
  130MOL   H20749485   1.604   4.709   5.120 -0.8053 -1.1139 -1.2622
  130MOL   H20849486   1.641   4.676   4.876 -0.9309  0.0017 -1.5306
  130MOL   H20949487   1.461   4.664   4.902 -0.4127  1.5242 -1.3548
  130MOL   H21049488   1.542   4.807   4.839  2.4878  0.0841  0.5363
  130MOL   C21149489   1.105   5.059   5.136  0.0860  0.0648  0.8330
  130MOL   C21249490   0.979   4.990   5.087  0.2008  0.3246  0.2661
  130MOL   C21349491   0.845   5.043   5.150  0.2608 -0.0248 -0.5073
  130MOL   C21449492   0.720   4.973   5.094 -0.1999 -0.1573 -0.3378
  130MOL   C21549493   0.588   5.032   5.128  0.1492  0.9202  0.2104
  130MOL   C21649494   0.561   5.007   5.275 -0.1225 -0.2475 -0.5096
  130MOL   O21749495   1.001   4.862   5.134  0.1436  0.3457 -0.3649
  130MOL   H21849496   1.088   5.167   5.137 -2.7543 -0.3324  1.3288
  130MOL   H21949497   1.136   5.045   5.240  0.5026  1.0851  0.8532
  130MOL   H22049498   0.966   4.985   4.978  2.0284  0.7745  0.0139
  130MOL   H22149499   0.848   5.029   5.258  0.3732 -0.5547 -0.5766
  130MOL   H22249500   0.836   5.151   5.141  0.5100  0.3757  3.0278
  130MOL   H22349501   0.728   4.963   4.986 -1.6487  0.3875 -0.5152
  130MOL   H22449502   0.730   4.870   5.129 -0.6058  0.7569  2.6705
  130MOL   H22549503   0.578   5.136   5.096  0.8399  0.8469 -0.2457
  130MOL   H22649504   0.505   4.978   5.082  0.6115  0.1404  0.3042
  130MOL   H22749505   0.464   5.050   5.301  0.6595  1.6231 -0.5768
  130MOL   H22849506   0.633   5.053   5.343 -1.5628  0.1454  0.7736
  130MOL   H22949507   0.564   4.902   5.303  1.0782  0.3776  1.8239
  130MOL   C23049508   0.997   4.762   5.028  0.4902  0.2053  0.2243
  130MOL   C23149509   1.014   4.619   5.070 -0.2240 -0.2797 -0.3008
  130MOL   C23249510   1.021   4.532   4.946  0.7229  0.4424 -0.2992
  130MOL   C23349511   1.049   4.383   4.976 -0.1723  0.3557  0.5018
  130MOL   C23449512   0.988   4.298   4.863  0.1374  0.2244  0.1235
  130MOL   C23549513   0.837   4.270   4.872  0.5463  0.2295 -0.2848
  130MOL   O23649514   0.898   4.578   5.138  0.0941 -0.1309 -0.0376
  130MOL   H23749515   0.897   4.763   4.984 -0.6428  2.2326  2.7638
  130MOL   H23849516   1.064   4.788   4.945 -0.9572 -0.3669 -1.1567
  130MOL   H23949517   1.100   4.613   5.137 -0.1631 -2.5957 -0.5529
  130MOL   H24049518   1.098   4.578   4.884 -0.4472 -1.0472 -2.9361
  130MOL   H24149519   0.934   4.539   4.880  0.2254 -1.0876  0.1734
  130MOL   H24249520   1.014   4.351   5.074  1.0419 -2.7233 -0.0260
  130MOL   H24349521   1.155   4.356   4.974 -0.2582  0.1209 -1.0623
  130MOL   H24449522   1.014   4.354   4.773 -1.1595 -0.4744 -0.6907
  130MOL   H24549523   1.037   4.202   4.846 -1.3693 -0.5042 -0.1509
  130MOL   H24649524   0.781   4.363   4.879  2.0104  1.2934 -2.2372
  130MOL   H24749525   0.823   4.207   4.960  0.5862  2.2011  1.1586
  130MOL   H24849526   0.802   4.219   4.782  1.0355  0.5859 -0.6775
  130MOL   C24949527   0.907   4.602   5.277 -0.0773 -0.0733 -0.0499
  130MOL   C25049528   0.768   4.590   5.343 -0.4161 -0.1087  0.0268
  130MOL   C25149529   0.750   4.693   5.456  0.2674 -0.4415  0.2833
  130MOL   C25249530   0.639   4.643   5.548  0.2908  0.3366  0.3379
  130MOL   C25349531   0.585   4.736   5.654 -0.7314  0.4911  0.6990
  130MOL   C25449532   0.460   4.697   5.726 -0.4897 -0.3518 -0.2802
  130MOL   O25549533   0.745   4.453   5.387  0.5717 -0.4495  0.1300
  130MOL   H25649534   0.972   4.525   5.319 -1.6952 -2.0444 -1.0399
  130MOL   H25749535   0.942   4.702   5.302 -1.5403  0.0955  1.4288
  130MOL   H25849536   0.683   4.612   5.278  0.3202  1.6013 -0.3800
  130MOL   H25949537   0.849   4.694   5.502 -0.3931  0.1597  1.6941
  130MOL   H26049538   0.745   4.794   5.416  3.5486  0.2709  1.4561
  130MOL   H26149539   0.554   4.612   5.487  1.0799  0.9979 -1.1213
  130MOL   H26249540   0.671   4.553   5.600  2.3879 -0.0605 -1.5878
  130MOL   H26349541   0.664   4.767   5.723 -0.9478 -1.3092  1.7776
  130MOL   H26449542   0.568   4.832   5.605  0.4982  0.1695 -0.3968
  130MOL   H26549543   0.475   4.604   5.781  0.6892  0.2236  0.4108
  130MOL   H26649544   0.381   4.669   5.657  0.2579 -0.2695 -1.1815
  130MOL   H26749545   0.416   4.777   5.787  0.4821  0.6477 -0.8691
  130MOL   C26849546   0.715   4.364   5.284  0.4301 -0.3380 -0.3034
  130MOL   C26949547   0.667   4.228   5.344 -0.3155 -0.3697  0.4816
  130MOL   C27049548   0.663   4.127   5.225  0.3943 -0.2616 -0.1784
  130MOL   C27149549   0.634   3.975   5.261  0.4788  0.7444 -1.1589
  130MOL   C27249550   0.639   3.873   5.143  0.6146  0.0675 -0.4870
  130MOL   C27349551   0.607   3.729   5.173 -0.2957  0.5698  0.1344
  130MOL   O27449552   0.537   4.237   5.400 -0.1427  0.2675  0.4957
  130MOL   H27549553   0.802   4.347   5.219  0.9219 -2.4810  0.8653
  130MOL   H27649554   0.651   4.416   5.212 -1.4054 -2.3310 -0.1497
  130MOL   H27749555   0.740   4.189   5.414  2.0455  1.6164 -0.7651
  130MOL   H27849556   0.588   4.165   5.157  1.2159  0.8477 -0.4693
  130MOL   H27949557   0.755   4.131   5.167 -0.1765  0.6328 -1.0343
  130MOL   H28049558   0.708   3.939   5.333  0.0669 -0.8085 -1.4904
  130MOL   H28149559   0.538   3.977   5.312  2.1601 -0.4045  2.2087
  130MOL   H28249560   0.570   3.899   5.063 -0.4570 -1.2913 -0.0173
  130MOL   H28349561   0.735   3.882   5.091  0.2474 -1.9336 -1.5634
  130MOL   H28449562   0.697   3.672   5.193 -0.1402  0.6514 -0.3460
  130MOL   H28549563   0.540   3.726   5.260 -1.7222  3.4379 -0.7890
  130MOL   H28649564   0.551   3.680   5.094  0.0342 -0.1923  0.3668
  130MOL   C28749565   0.537   4.274   5.535 -0.3382 -0.0411  0.0661
  130MOL   C28849566   0.395   4.266   5.597 -0.3716  0.3168  0.2483
  130MOL   C28949567   0.325   4.134   5.554  0.4443  0.3113  0.4549
  130MOL   C29049568   0.182   4.108   5.597 -0.5497  0.1362 -0.5120
  130MOL   C29149569   0.111   3.985   5.538 -0.5199 -0.0226  0.7122
  130MOL   C29249570   0.094   3.998   5.386  0.1538 -0.2939  0.3883
  130MOL   O29349571   0.321   4.385   5.572  0.7446 -0.6305  0.3842
  130MOL   H29449572   0.571   4.374   5.563  0.5891 -0.8336  1.8951
  130MOL   H29549573   0.599   4.198   5.584 -0.1958 -0.1363 -0.2626
  130MOL   H29649574   0.414   4.260   5.704  0.9857  0.7306  0.0459
  130MOL   H29749575   0.326   4.130   5.445 -1.2434  0.0420  0.4454
  130MOL   H29849576   0.377   4.044   5.587  0.0618 -0.9132 -2.1529
  130MOL   H29949577   0.190   4.094   5.705  3.5034  1.4592 -0.5713
  130MOL   H30049578   0.126   4.198   5.569  1.2672  0.9752 -1.5482
  130MOL   H30149579   0.025   3.961   5.600 -0.7919  0.4441  0.5140
  130MOL   H30249580   0.171   3.894   5.549 -2.6807 -1.5868 -0.2586
  130MOL   H30349581   0.188   4.006   5.332  1.4242 -1.2615  2.4374
  130MOL   H30449582   0.047   3.904   5.355  0.8430 -0.7783  0.8064
  130MOL   H30549583   0.027   4.079   5.357  0.7677  1.3328  3.3111
  130MOL   C30649584   0.269   4.403   5.437 -0.0577  0.2909 -0.1186
  130MOL   C30749585   0.214   4.549   5.425  0.0792  0.1212 -0.7055
  130MOL   C30849586   0.104   4.577   5.534 -0.6238 -0.0969 -0.7914
  130MOL   C30949587   7.752   4.517   5.491 -0.2601  0.1863 -0.0052
  130MOL   C31049588   7.636   4.557   5.582  0.0243  0.1618 -0.4787
  130MOL   C31149589   7.618   4.707   5.577 -0.0084 -0.3864  0.1645
  130MOL   O31249590   0.173   4.580   5.292  0.1392 -0.5028  0.0210
  130MOL   H31349591   0.358   4.405   5.374 -0.8214  0.0902 -1.2274
  130MOL   H31449592   0.205   4.319   5.411  0.9500 -0.4045 -0.3613
  130MOL   H31549593   0.294   4.620   5.447  0.5153 -0.5469 -0.0917
  130MOL   H31649594   0.101   4.682   5.562 -1.9095 -0.6845  1.4014
  130MOL   H31749595   0.132   4.532   5.629  1.8130  3.3686  0.2254
  130MOL   H31849596   7.715   4.532   5.390 -2.5705 -0.5365  0.6972
  130MOL   H31949597   7.770   4.410   5.482 -1.0819 -0.0939  1.4625
  130MOL   H32049598   7.641   4.519   5.684 -0.5897  0.1616 -0.4498
  130MOL   H32149599   7.550   4.496   5.553 -0.1669  0.7694 -1.1963
  130MOL   H32249600   7.520   4.746   5.603  1.3593  1.6500  2.5299
  130MOL   H32349601   7.691   4.765   5.633 -1.2179  1.5034 -0.1607
  130MOL   H32449602   7.648   4.736   5.476  2.1075 -0.7208  0.6625
  130MOL   C32549603   0.269   4.604   5.192  0.1693  0.8095 -0.0183
  130MOL   C32649604   0.268   4.491   5.084  0.3861  0.0942  0.3027
  130MOL   C32749605   0.376   4.510   4.985 -0.4104  0.2922 -0.0428
  130MOL   C32849606   0.399   4.390   4.886  0.0317 -0.2199  0.6989
  130MOL   C32949607   0.481   4.275   4.930 -0.1282  0.0735  0.2650
  130MOL   C33049608   0.500   4.166   4.826  0.0956  0.7018 -0.1714
  130MOL   O33149609   0.136   4.490   5.018 -0.0576 -0.3817 -0.5820
  130MOL   H33249610   0.370   4.614   5.232  0.0768  0.3110  0.3427
  130MOL   H33349611   0.254   4.704   5.150  2.4662  1.7559  1.2851
  130MOL   H33449612   0.291   4.399   5.136  1.4278  1.5530  2.4827
  130MOL   H33549613   0.361   4.603   4.930 -0.5952  0.1555 -0.2243
  130MOL   H33649614   0.476   4.523   5.026  1.0189 -0.2504 -3.1634
  130MOL   H33749615   0.297   4.367   4.857  0.0869  0.3699  0.0184
  130MOL   H33849616   0.449   4.438   4.802 -1.6702 -0.0440 -0.2443
  130MOL   H33949617   0.577   4.297   4.977 -0.2321 -1.0212  0.9945
  130MOL   H34049618   0.432   4.231   5.016 -0.5749  1.0054  0.4945
  130MOL   H34149619   0.574   4.091   4.852  0.5186  0.3825 -2.2260
  130MOL   H34249620   0.407   4.110   4.814  0.6892 -0.7618  1.7587
  130MOL   H34349621   0.528   4.216   4.733 -0.1982  0.3811 -0.4350
  130MOL   C34449622   0.047   4.397   5.082 -0.4824 -0.0496 -0.2582
  130MOL   C34549623   7.696   4.394   5.009 -0.0165  0.1800 -0.2343
  130MOL   C34649624   7.709   4.331   4.870  0.0813 -0.0908 -0.2070
  130MOL   C34749625   7.577   4.292   4.808  0.4405 -0.4869 -0.2559
  130MOL   C34849626   7.579   4.255   4.661  0.4996 -0.4620  0.4707
  130MOL   C34949627   7.430   4.241   4.604  0.3263  0.0707  0.4017
  130MOL   O35049628   7.606   4.319   5.084  0.2235  0.6896  0.2129
  130MOL   H35149629   0.022   4.440   5.179 -3.0784  2.1014 -1.8041
  130MOL   H35249630   0.096   4.300   5.091 -1.3065 -0.5024 -0.6785
  130MOL   H35349631   7.667   4.498   4.994 -0.3563 -0.1688 -2.1634
  130MOL   H35449632   7.770   4.241   4.874 -0.9259 -0.7810 -0.2691
  130MOL   H35549633   7.770   4.399   4.810  0.3847  2.2856  2.6605
  130MOL   H35649634   7.515   4.382   4.815  1.1331 -0.0968  1.0347
  130MOL   H35749635   7.522   4.218   4.866 -1.9281  0.8114 -0.7793
  130MOL   H35849636   7.634   4.162   4.648  2.0361  0.3387  1.1326
  130MOL   H35949637   7.634   4.328   4.602 -1.4264  1.2886  0.8120
  130MOL   H36049638   7.381   4.168   4.668  1.8239 -1.4122 -0.1227
  130MOL   H36149639   7.434   4.204   4.502  3.5182 -1.9101  1.2093
  130MOL   H36249640   7.371   4.333   4.598 -0.2126 -0.3681 -1.7155
  130MOL   C36349641   7.497   4.392   5.145 -0.2903  0.4698 -0.3201
  130MOL   C36449642   7.432   4.299   5.253  0.1459 -0.6318 -0.1043
  130MOL   C36549643   7.416   4.151   5.207  0.0382 -0.2639  0.1024
  130MOL   C36649644   7.279   4.126   5.137 -0.1138  0.1489  0.7437
  130MOL   C36749645   7.234   3.980   5.122  0.8143  1.2891 -0.3265
  130MOL   C36849646   7.109   3.961   5.035 -0.1115  0.1586  0.1215
  130MOL   O36949647   7.509   4.307   5.378  0.3613 -0.1659 -0.0756
  130MOL   H37049648   7.417   4.405   5.071 -1.8971 -2.2950  0.8532
  130MOL   H37149649   7.529   4.487   5.189 -3.0678  1.9732 -1.4074
  130MOL   H37249650   7.333   4.338   5.276 -0.9942 -1.3730 -3.4561
  130MOL   H37349651   7.494   4.123   5.136 -1.5089 -2.2299 -0.8945
  130MOL   H37449652   7.431   4.073   5.282 -2.2923  0.2971  1.1953
  130MOL   H37549653   7.194   4.166   5.193 -0.5390  1.6090 -0.9015
  130MOL   H37649654   7.267   4.179   5.043  0.9575 -0.1326  0.4507
  130MOL   H37749655   7.314   3.917   5.082 -1.1511 -1.0054 -0.7794
  130MOL   H37849656   7.214   3.938   5.220  0.2975  1.9454 -0.1498
  130MOL   H37949657   7.031   4.037   5.041  1.2160  1.7103 -1.5823
  130MOL   H38049658   7.135   3.968   4.929  0.4076  2.0392  0.3566
  130MOL   H38149659   7.068   3.861   5.051  0.3015 -0.0848 -0.3156
  130MOL   H38249660   7.598   4.280   5.361  0.3134 -0.2088 -0.2628
   7.78557   7.78557   7.78557
