;
; Gromacs include topology (itp) file.
; For Molecular Group XYZ
; Force field scheme: opls2005
; Produced from DL_FIELD v4.11
;


[ moleculetype ]
; name    nrexcl
XYZ    3

[ atoms ]
; nr   type   resnr   residu    atom    cgnr    charge    mass
    1        CT    1  MOL      C1     1  -0.1800000   12.0115
    2        CT    1  MOL      C2     2   0.1700000   12.0115
    3        OS    1  MOL      O3     3  -0.4000000   15.9994
    4        CT    1  MOL      C4     4   0.1700000   12.0115
    5        CT    1  MOL      C5     5  -0.1800000   12.0115
    6        CT    1  MOL      C6     6  -0.1800000   12.0115
    7        HC    1  MOL      H7     7   0.0600000    1.0080
    8        HC    1  MOL      H8     8   0.0600000    1.0080
    9        HC    1  MOL      H9     9   0.0300000    1.0080
   10        HC    1  MOL     H10    10   0.0300000    1.0080
   11        HC    1  MOL     H11    11   0.0600000    1.0080
   12        HC    1  MOL     H12    12   0.0600000    1.0080
   13        HC    1  MOL     H13    13   0.0600000    1.0080
   14        HC    1  MOL     H14    14   0.0600000    1.0080
   15        HC    1  MOL     H15    15   0.0600000    1.0080
   16        HC    1  MOL     H16    16   0.0600000    1.0080
   17        HC    1  MOL     H17    17   0.0600000    1.0080
   18        CT    1  MOL     C18    18  -0.1200000   12.0115
   19        CT    1  MOL     C19    19   0.1700000   12.0115
   20        OS    1  MOL     O20    20  -0.4000000   15.9994
   21        CT    1  MOL     C21    21   0.1700000   12.0115
   22        CT    1  MOL     C22    22  -0.1800000   12.0115
   23        CT    1  MOL     C23    23  -0.1800000   12.0115
   24        HC    1  MOL     H24    24   0.0600000    1.0080
   25        HC    1  MOL     H25    25   0.0600000    1.0080
   26        HC    1  MOL     H26    26   0.0300000    1.0080
   27        HC    1  MOL     H27    27   0.0300000    1.0080
   28        HC    1  MOL     H28    28   0.0600000    1.0080
   29        HC    1  MOL     H29    29   0.0600000    1.0080
   30        HC    1  MOL     H30    30   0.0600000    1.0080
   31        HC    1  MOL     H31    31   0.0600000    1.0080
   32        HC    1  MOL     H32    32   0.0600000    1.0080
   33        HC    1  MOL     H33    33   0.0600000    1.0080
   34        CT    1  MOL     C34    34  -0.1200000   12.0115
   35        CT    1  MOL     C35    35   0.1700000   12.0115
   36        OS    1  MOL     O36    36  -0.4000000   15.9994
   37        CT    1  MOL     C37    37   0.1700000   12.0115
   38        CT    1  MOL     C38    38  -0.1800000   12.0115
   39        CT    1  MOL     C39    39  -0.1800000   12.0115
   40        HC    1  MOL     H40    40   0.0600000    1.0080
   41        HC    1  MOL     H41    41   0.0600000    1.0080
   42        HC    1  MOL     H42    42   0.0300000    1.0080
   43        HC    1  MOL     H43    43   0.0300000    1.0080
   44        HC    1  MOL     H44    44   0.0600000    1.0080
   45        HC    1  MOL     H45    45   0.0600000    1.0080
   46        HC    1  MOL     H46    46   0.0600000    1.0080
   47        HC    1  MOL     H47    47   0.0600000    1.0080
   48        HC    1  MOL     H48    48   0.0600000    1.0080
   49        HC    1  MOL     H49    49   0.0600000    1.0080
   50        CT    1  MOL     C50    50  -0.1200000   12.0115
   51        CT    1  MOL     C51    51   0.1700000   12.0115
   52        OS    1  MOL     O52    52  -0.4000000   15.9994
   53        CT    1  MOL     C53    53   0.1700000   12.0115
   54        CT    1  MOL     C54    54  -0.1800000   12.0115
   55        CT    1  MOL     C55    55  -0.1800000   12.0115
   56        HC    1  MOL     H56    56   0.0600000    1.0080
   57        HC    1  MOL     H57    57   0.0600000    1.0080
   58        HC    1  MOL     H58    58   0.0300000    1.0080
   59        HC    1  MOL     H59    59   0.0300000    1.0080
   60        HC    1  MOL     H60    60   0.0600000    1.0080
   61        HC    1  MOL     H61    61   0.0600000    1.0080
   62        HC    1  MOL     H62    62   0.0600000    1.0080
   63        HC    1  MOL     H63    63   0.0600000    1.0080
   64        HC    1  MOL     H64    64   0.0600000    1.0080
   65        HC    1  MOL     H65    65   0.0600000    1.0080
   66        CT    1  MOL     C66    66  -0.1200000   12.0115
   67        CT    1  MOL     C67    67   0.1700000   12.0115
   68        OS    1  MOL     O68    68  -0.4000000   15.9994
   69        CT    1  MOL     C69    69   0.1700000   12.0115
   70        CT    1  MOL     C70    70  -0.1800000   12.0115
   71        CT    1  MOL     C71    71  -0.1800000   12.0115
   72        HC    1  MOL     H72    72   0.0600000    1.0080
   73        HC    1  MOL     H73    73   0.0600000    1.0080
   74        HC    1  MOL     H74    74   0.0300000    1.0080
   75        HC    1  MOL     H75    75   0.0300000    1.0080
   76        HC    1  MOL     H76    76   0.0600000    1.0080
   77        HC    1  MOL     H77    77   0.0600000    1.0080
   78        HC    1  MOL     H78    78   0.0600000    1.0080
   79        HC    1  MOL     H79    79   0.0600000    1.0080
   80        HC    1  MOL     H80    80   0.0600000    1.0080
   81        HC    1  MOL     H81    81   0.0600000    1.0080
   82        CT    1  MOL     C82    82  -0.1200000   12.0115
   83        CT    1  MOL     C83    83   0.1700000   12.0115
   84        OS    1  MOL     O84    84  -0.4000000   15.9994
   85        CT    1  MOL     C85    85   0.1700000   12.0115
   86        CT    1  MOL     C86    86  -0.1800000   12.0115
   87        CT    1  MOL     C87    87  -0.1800000   12.0115
   88        HC    1  MOL     H88    88   0.0600000    1.0080
   89        HC    1  MOL     H89    89   0.0600000    1.0080
   90        HC    1  MOL     H90    90   0.0300000    1.0080
   91        HC    1  MOL     H91    91   0.0300000    1.0080
   92        HC    1  MOL     H92    92   0.0600000    1.0080
   93        HC    1  MOL     H93    93   0.0600000    1.0080
   94        HC    1  MOL     H94    94   0.0600000    1.0080
   95        HC    1  MOL     H95    95   0.0600000    1.0080
   96        HC    1  MOL     H96    96   0.0600000    1.0080
   97        HC    1  MOL     H97    97   0.0600000    1.0080
   98        CT    1  MOL     C98    98  -0.1200000   12.0115
   99        CT    1  MOL     C99    99   0.1700000   12.0115
  100        OS    1  MOL    O100   100  -0.4000000   15.9994
  101        CT    1  MOL    C101   101   0.1700000   12.0115
  102        CT    1  MOL    C102   102  -0.1800000   12.0115
  103        CT    1  MOL    C103   103  -0.1800000   12.0115
  104        HC    1  MOL    H104   104   0.0600000    1.0080
  105        HC    1  MOL    H105   105   0.0600000    1.0080
  106        HC    1  MOL    H106   106   0.0300000    1.0080
  107        HC    1  MOL    H107   107   0.0300000    1.0080
  108        HC    1  MOL    H108   108   0.0600000    1.0080
  109        HC    1  MOL    H109   109   0.0600000    1.0080
  110        HC    1  MOL    H110   110   0.0600000    1.0080
  111        HC    1  MOL    H111   111   0.0600000    1.0080
  112        HC    1  MOL    H112   112   0.0600000    1.0080
  113        HC    1  MOL    H113   113   0.0600000    1.0080
  114        CT    1  MOL    C114   114  -0.1200000   12.0115
  115        CT    1  MOL    C115   115   0.1700000   12.0115
  116        OS    1  MOL    O116   116  -0.4000000   15.9994
  117        CT    1  MOL    C117   117   0.1700000   12.0115
  118        CT    1  MOL    C118   118  -0.1800000   12.0115
  119        CT    1  MOL    C119   119  -0.1800000   12.0115
  120        HC    1  MOL    H120   120   0.0600000    1.0080
  121        HC    1  MOL    H121   121   0.0600000    1.0080
  122        HC    1  MOL    H122   122   0.0300000    1.0080
  123        HC    1  MOL    H123   123   0.0300000    1.0080
  124        HC    1  MOL    H124   124   0.0600000    1.0080
  125        HC    1  MOL    H125   125   0.0600000    1.0080
  126        HC    1  MOL    H126   126   0.0600000    1.0080
  127        HC    1  MOL    H127   127   0.0600000    1.0080
  128        HC    1  MOL    H128   128   0.0600000    1.0080
  129        HC    1  MOL    H129   129   0.0600000    1.0080
  130        CT    1  MOL    C130   130  -0.1200000   12.0115
  131        CT    1  MOL    C131   131   0.1700000   12.0115
  132        OS    1  MOL    O132   132  -0.4000000   15.9994
  133        CT    1  MOL    C133   133   0.1700000   12.0115
  134        CT    1  MOL    C134   134  -0.1800000   12.0115
  135        CT    1  MOL    C135   135  -0.1800000   12.0115
  136        HC    1  MOL    H136   136   0.0600000    1.0080
  137        HC    1  MOL    H137   137   0.0600000    1.0080
  138        HC    1  MOL    H138   138   0.0300000    1.0080
  139        HC    1  MOL    H139   139   0.0300000    1.0080
  140        HC    1  MOL    H140   140   0.0600000    1.0080
  141        HC    1  MOL    H141   141   0.0600000    1.0080
  142        HC    1  MOL    H142   142   0.0600000    1.0080
  143        HC    1  MOL    H143   143   0.0600000    1.0080
  144        HC    1  MOL    H144   144   0.0600000    1.0080
  145        HC    1  MOL    H145   145   0.0600000    1.0080
  146        CT    1  MOL    C146   146  -0.1200000   12.0115
  147        CT    1  MOL    C147   147   0.1700000   12.0115
  148        OS    1  MOL    O148   148  -0.4000000   15.9994
  149        CT    1  MOL    C149   149   0.1700000   12.0115
  150        CT    1  MOL    C150   150  -0.1800000   12.0115
  151        CT    1  MOL    C151   151  -0.1800000   12.0115
  152        HC    1  MOL    H152   152   0.0600000    1.0080
  153        HC    1  MOL    H153   153   0.0600000    1.0080
  154        HC    1  MOL    H154   154   0.0300000    1.0080
  155        HC    1  MOL    H155   155   0.0300000    1.0080
  156        HC    1  MOL    H156   156   0.0600000    1.0080
  157        HC    1  MOL    H157   157   0.0600000    1.0080
  158        HC    1  MOL    H158   158   0.0600000    1.0080
  159        HC    1  MOL    H159   159   0.0600000    1.0080
  160        HC    1  MOL    H160   160   0.0600000    1.0080
  161        HC    1  MOL    H161   161   0.0600000    1.0080
  162        CT    1  MOL    C162   162  -0.1200000   12.0115
  163        CT    1  MOL    C163   163   0.1700000   12.0115
  164        OS    1  MOL    O164   164  -0.4000000   15.9994
  165        CT    1  MOL    C165   165   0.1700000   12.0115
  166        CT    1  MOL    C166   166  -0.1800000   12.0115
  167        CT    1  MOL    C167   167  -0.1800000   12.0115
  168        HC    1  MOL    H168   168   0.0600000    1.0080
  169        HC    1  MOL    H169   169   0.0600000    1.0080
  170        HC    1  MOL    H170   170   0.0300000    1.0080
  171        HC    1  MOL    H171   171   0.0300000    1.0080
  172        HC    1  MOL    H172   172   0.0600000    1.0080
  173        HC    1  MOL    H173   173   0.0600000    1.0080
  174        HC    1  MOL    H174   174   0.0600000    1.0080
  175        HC    1  MOL    H175   175   0.0600000    1.0080
  176        HC    1  MOL    H176   176   0.0600000    1.0080
  177        HC    1  MOL    H177   177   0.0600000    1.0080
  178        CT    1  MOL    C178   178  -0.1200000   12.0115
  179        CT    1  MOL    C179   179   0.1700000   12.0115
  180        OS    1  MOL    O180   180  -0.4000000   15.9994
  181        CT    1  MOL    C181   181   0.1700000   12.0115
  182        CT    1  MOL    C182   182  -0.1800000   12.0115
  183        CT    1  MOL    C183   183  -0.1800000   12.0115
  184        HC    1  MOL    H184   184   0.0600000    1.0080
  185        HC    1  MOL    H185   185   0.0600000    1.0080
  186        HC    1  MOL    H186   186   0.0300000    1.0080
  187        HC    1  MOL    H187   187   0.0300000    1.0080
  188        HC    1  MOL    H188   188   0.0600000    1.0080
  189        HC    1  MOL    H189   189   0.0600000    1.0080
  190        HC    1  MOL    H190   190   0.0600000    1.0080
  191        HC    1  MOL    H191   191   0.0600000    1.0080
  192        HC    1  MOL    H192   192   0.0600000    1.0080
  193        HC    1  MOL    H193   193   0.0600000    1.0080
  194        CT    1  MOL    C194   194  -0.1200000   12.0115
  195        CT    1  MOL    C195   195   0.1700000   12.0115
  196        OS    1  MOL    O196   196  -0.4000000   15.9994
  197        CT    1  MOL    C197   197   0.1700000   12.0115
  198        CT    1  MOL    C198   198  -0.1800000   12.0115
  199        CT    1  MOL    C199   199  -0.1800000   12.0115
  200        HC    1  MOL    H200   200   0.0600000    1.0080
  201        HC    1  MOL    H201   201   0.0600000    1.0080
  202        HC    1  MOL    H202   202   0.0300000    1.0080
  203        HC    1  MOL    H203   203   0.0300000    1.0080
  204        HC    1  MOL    H204   204   0.0600000    1.0080
  205        HC    1  MOL    H205   205   0.0600000    1.0080
  206        HC    1  MOL    H206   206   0.0600000    1.0080
  207        HC    1  MOL    H207   207   0.0600000    1.0080
  208        HC    1  MOL    H208   208   0.0600000    1.0080
  209        HC    1  MOL    H209   209   0.0600000    1.0080
  210        CT    1  MOL    C210   210  -0.1200000   12.0115
  211        CT    1  MOL    C211   211   0.1700000   12.0115
  212        OS    1  MOL    O212   212  -0.4000000   15.9994
  213        CT    1  MOL    C213   213   0.1700000   12.0115
  214        CT    1  MOL    C214   214  -0.1800000   12.0115
  215        CT    1  MOL    C215   215  -0.1800000   12.0115
  216        HC    1  MOL    H216   216   0.0600000    1.0080
  217        HC    1  MOL    H217   217   0.0600000    1.0080
  218        HC    1  MOL    H218   218   0.0300000    1.0080
  219        HC    1  MOL    H219   219   0.0300000    1.0080
  220        HC    1  MOL    H220   220   0.0600000    1.0080
  221        HC    1  MOL    H221   221   0.0600000    1.0080
  222        HC    1  MOL    H222   222   0.0600000    1.0080
  223        HC    1  MOL    H223   223   0.0600000    1.0080
  224        HC    1  MOL    H224   224   0.0600000    1.0080
  225        HC    1  MOL    H225   225   0.0600000    1.0080
  226        CT    1  MOL    C226   226  -0.1200000   12.0115
  227        CT    1  MOL    C227   227   0.1700000   12.0115
  228        OS    1  MOL    O228   228  -0.4000000   15.9994
  229        CT    1  MOL    C229   229   0.1700000   12.0115
  230        CT    1  MOL    C230   230  -0.1800000   12.0115
  231        CT    1  MOL    C231   231  -0.1800000   12.0115
  232        HC    1  MOL    H232   232   0.0600000    1.0080
  233        HC    1  MOL    H233   233   0.0600000    1.0080
  234        HC    1  MOL    H234   234   0.0300000    1.0080
  235        HC    1  MOL    H235   235   0.0300000    1.0080
  236        HC    1  MOL    H236   236   0.0600000    1.0080
  237        HC    1  MOL    H237   237   0.0600000    1.0080
  238        HC    1  MOL    H238   238   0.0600000    1.0080
  239        HC    1  MOL    H239   239   0.0600000    1.0080
  240        HC    1  MOL    H240   240   0.0600000    1.0080
  241        HC    1  MOL    H241   241   0.0600000    1.0080
  242        CT    1  MOL    C242   242  -0.1200000   12.0115
  243        CT    1  MOL    C243   243   0.1700000   12.0115
  244        OS    1  MOL    O244   244  -0.4000000   15.9994
  245        CT    1  MOL    C245   245   0.1700000   12.0115
  246        CT    1  MOL    C246   246  -0.1800000   12.0115
  247        CT    1  MOL    C247   247  -0.1800000   12.0115
  248        HC    1  MOL    H248   248   0.0600000    1.0080
  249        HC    1  MOL    H249   249   0.0600000    1.0080
  250        HC    1  MOL    H250   250   0.0300000    1.0080
  251        HC    1  MOL    H251   251   0.0300000    1.0080
  252        HC    1  MOL    H252   252   0.0600000    1.0080
  253        HC    1  MOL    H253   253   0.0600000    1.0080
  254        HC    1  MOL    H254   254   0.0600000    1.0080
  255        HC    1  MOL    H255   255   0.0600000    1.0080
  256        HC    1  MOL    H256   256   0.0600000    1.0080
  257        HC    1  MOL    H257   257   0.0600000    1.0080
  258        CT    1  MOL    C258   258  -0.1200000   12.0115
  259        CT    1  MOL    C259   259   0.1700000   12.0115
  260        OS    1  MOL    O260   260  -0.4000000   15.9994
  261        CT    1  MOL    C261   261   0.1700000   12.0115
  262        CT    1  MOL    C262   262  -0.1800000   12.0115
  263        CT    1  MOL    C263   263  -0.1800000   12.0115
  264        HC    1  MOL    H264   264   0.0600000    1.0080
  265        HC    1  MOL    H265   265   0.0600000    1.0080
  266        HC    1  MOL    H266   266   0.0300000    1.0080
  267        HC    1  MOL    H267   267   0.0300000    1.0080
  268        HC    1  MOL    H268   268   0.0600000    1.0080
  269        HC    1  MOL    H269   269   0.0600000    1.0080
  270        HC    1  MOL    H270   270   0.0600000    1.0080
  271        HC    1  MOL    H271   271   0.0600000    1.0080
  272        HC    1  MOL    H272   272   0.0600000    1.0080
  273        HC    1  MOL    H273   273   0.0600000    1.0080
  274        CT    1  MOL    C274   274  -0.1200000   12.0115
  275        CT    1  MOL    C275   275   0.1700000   12.0115
  276        OS    1  MOL    O276   276  -0.4000000   15.9994
  277        CT    1  MOL    C277   277   0.1700000   12.0115
  278        CT    1  MOL    C278   278  -0.1800000   12.0115
  279        CT    1  MOL    C279   279  -0.1800000   12.0115
  280        HC    1  MOL    H280   280   0.0600000    1.0080
  281        HC    1  MOL    H281   281   0.0600000    1.0080
  282        HC    1  MOL    H282   282   0.0300000    1.0080
  283        HC    1  MOL    H283   283   0.0300000    1.0080
  284        HC    1  MOL    H284   284   0.0600000    1.0080
  285        HC    1  MOL    H285   285   0.0600000    1.0080
  286        HC    1  MOL    H286   286   0.0600000    1.0080
  287        HC    1  MOL    H287   287   0.0600000    1.0080
  288        HC    1  MOL    H288   288   0.0600000    1.0080
  289        HC    1  MOL    H289   289   0.0600000    1.0080
  290        CT    1  MOL    C290   290  -0.1200000   12.0115
  291        CT    1  MOL    C291   291   0.1700000   12.0115
  292        OS    1  MOL    O292   292  -0.4000000   15.9994
  293        CT    1  MOL    C293   293   0.1700000   12.0115
  294        CT    1  MOL    C294   294  -0.1800000   12.0115
  295        CT    1  MOL    C295   295  -0.1800000   12.0115
  296        HC    1  MOL    H296   296   0.0600000    1.0080
  297        HC    1  MOL    H297   297   0.0600000    1.0080
  298        HC    1  MOL    H298   298   0.0300000    1.0080
  299        HC    1  MOL    H299   299   0.0300000    1.0080
  300        HC    1  MOL    H300   300   0.0600000    1.0080
  301        HC    1  MOL    H301   301   0.0600000    1.0080
  302        HC    1  MOL    H302   302   0.0600000    1.0080
  303        HC    1  MOL    H303   303   0.0600000    1.0080
  304        HC    1  MOL    H304   304   0.0600000    1.0080
  305        HC    1  MOL    H305   305   0.0600000    1.0080
  306        CT    1  MOL    C306   306  -0.1200000   12.0115
  307        CT    1  MOL    C307   307   0.1400000   12.0115
  308        OS    1  MOL    O308   308  -0.4000000   15.9994
  309        CT    1  MOL    C309   309   0.1700000   12.0115
  310        CT    1  MOL    C310   310  -0.1800000   12.0115
  311        CT    1  MOL    C311   311  -0.1800000   12.0115
  312        HC    1  MOL    H312   312   0.0600000    1.0080
  313        HC    1  MOL    H313   313   0.0600000    1.0080
  314        HC    1  MOL    H314   314   0.0300000    1.0080
  315        HC    1  MOL    H315   315   0.0300000    1.0080
  316        HC    1  MOL    H316   316   0.0600000    1.0080
  317        HC    1  MOL    H317   317   0.0600000    1.0080
  318        HC    1  MOL    H318   318   0.0600000    1.0080
  319        HC    1  MOL    H319   319   0.0600000    1.0080
  320        HC    1  MOL    H320   320   0.0600000    1.0080
  321        HC    1  MOL    H321   321   0.0600000    1.0080
  322        HC    1  MOL    H322   322   0.0300000    1.0080

[ bonds ]
      1      2   1      0.1529 224262.4000
      1      7   1      0.1090 284512.0000
      1      8   1      0.1090 284512.0000
      1     17   1      0.1090 284512.0000
      2      3   1      0.1410 267776.0000
      2      9   1      0.1090 284512.0000
      2     18   1      0.1529 224262.4000
      3      4   1      0.1410 267776.0000
      4      5   1      0.1529 224262.4000
      4      6   1      0.1529 224262.4000
      4     10   1      0.1090 284512.0000
      5     11   1      0.1090 284512.0000
      5     12   1      0.1090 284512.0000
      5     13   1      0.1090 284512.0000
      6     14   1      0.1090 284512.0000
      6     15   1      0.1090 284512.0000
      6     16   1      0.1090 284512.0000
     18     19   1      0.1529 224262.4000
     18     24   1      0.1090 284512.0000
     18     25   1      0.1090 284512.0000
     19     20   1      0.1410 267776.0000
     19     26   1      0.1090 284512.0000
     19     34   1      0.1529 224262.4000
     20     21   1      0.1410 267776.0000
     21     22   1      0.1529 224262.4000
     21     23   1      0.1529 224262.4000
     21     27   1      0.1090 284512.0000
     22     28   1      0.1090 284512.0000
     22     29   1      0.1090 284512.0000
     22     30   1      0.1090 284512.0000
     23     31   1      0.1090 284512.0000
     23     32   1      0.1090 284512.0000
     23     33   1      0.1090 284512.0000
     34     35   1      0.1529 224262.4000
     34     40   1      0.1090 284512.0000
     34     41   1      0.1090 284512.0000
     35     36   1      0.1410 267776.0000
     35     42   1      0.1090 284512.0000
     35     50   1      0.1529 224262.4000
     36     37   1      0.1410 267776.0000
     37     38   1      0.1529 224262.4000
     37     39   1      0.1529 224262.4000
     37     43   1      0.1090 284512.0000
     38     44   1      0.1090 284512.0000
     38     45   1      0.1090 284512.0000
     38     46   1      0.1090 284512.0000
     39     47   1      0.1090 284512.0000
     39     48   1      0.1090 284512.0000
     39     49   1      0.1090 284512.0000
     50     51   1      0.1529 224262.4000
     50     56   1      0.1090 284512.0000
     50     57   1      0.1090 284512.0000
     51     52   1      0.1410 267776.0000
     51     58   1      0.1090 284512.0000
     51     66   1      0.1529 224262.4000
     52     53   1      0.1410 267776.0000
     53     54   1      0.1529 224262.4000
     53     55   1      0.1529 224262.4000
     53     59   1      0.1090 284512.0000
     54     60   1      0.1090 284512.0000
     54     61   1      0.1090 284512.0000
     54     62   1      0.1090 284512.0000
     55     63   1      0.1090 284512.0000
     55     64   1      0.1090 284512.0000
     55     65   1      0.1090 284512.0000
     66     67   1      0.1529 224262.4000
     66     72   1      0.1090 284512.0000
     66     73   1      0.1090 284512.0000
     67     68   1      0.1410 267776.0000
     67     74   1      0.1090 284512.0000
     67     82   1      0.1529 224262.4000
     68     69   1      0.1410 267776.0000
     69     70   1      0.1529 224262.4000
     69     71   1      0.1529 224262.4000
     69     75   1      0.1090 284512.0000
     70     76   1      0.1090 284512.0000
     70     77   1      0.1090 284512.0000
     70     78   1      0.1090 284512.0000
     71     79   1      0.1090 284512.0000
     71     80   1      0.1090 284512.0000
     71     81   1      0.1090 284512.0000
     82     83   1      0.1529 224262.4000
     82     88   1      0.1090 284512.0000
     82     89   1      0.1090 284512.0000
     83     84   1      0.1410 267776.0000
     83     90   1      0.1090 284512.0000
     83     98   1      0.1529 224262.4000
     84     85   1      0.1410 267776.0000
     85     86   1      0.1529 224262.4000
     85     87   1      0.1529 224262.4000
     85     91   1      0.1090 284512.0000
     86     92   1      0.1090 284512.0000
     86     93   1      0.1090 284512.0000
     86     94   1      0.1090 284512.0000
     87     95   1      0.1090 284512.0000
     87     96   1      0.1090 284512.0000
     87     97   1      0.1090 284512.0000
     98     99   1      0.1529 224262.4000
     98    104   1      0.1090 284512.0000
     98    105   1      0.1090 284512.0000
     99    100   1      0.1410 267776.0000
     99    106   1      0.1090 284512.0000
     99    114   1      0.1529 224262.4000
    100    101   1      0.1410 267776.0000
    101    102   1      0.1529 224262.4000
    101    103   1      0.1529 224262.4000
    101    107   1      0.1090 284512.0000
    102    108   1      0.1090 284512.0000
    102    109   1      0.1090 284512.0000
    102    110   1      0.1090 284512.0000
    103    111   1      0.1090 284512.0000
    103    112   1      0.1090 284512.0000
    103    113   1      0.1090 284512.0000
    114    115   1      0.1529 224262.4000
    114    120   1      0.1090 284512.0000
    114    121   1      0.1090 284512.0000
    115    116   1      0.1410 267776.0000
    115    122   1      0.1090 284512.0000
    115    130   1      0.1529 224262.4000
    116    117   1      0.1410 267776.0000
    117    118   1      0.1529 224262.4000
    117    119   1      0.1529 224262.4000
    117    123   1      0.1090 284512.0000
    118    124   1      0.1090 284512.0000
    118    125   1      0.1090 284512.0000
    118    126   1      0.1090 284512.0000
    119    127   1      0.1090 284512.0000
    119    128   1      0.1090 284512.0000
    119    129   1      0.1090 284512.0000
    130    131   1      0.1529 224262.4000
    130    136   1      0.1090 284512.0000
    130    137   1      0.1090 284512.0000
    131    132   1      0.1410 267776.0000
    131    138   1      0.1090 284512.0000
    131    146   1      0.1529 224262.4000
    132    133   1      0.1410 267776.0000
    133    134   1      0.1529 224262.4000
    133    135   1      0.1529 224262.4000
    133    139   1      0.1090 284512.0000
    134    140   1      0.1090 284512.0000
    134    141   1      0.1090 284512.0000
    134    142   1      0.1090 284512.0000
    135    143   1      0.1090 284512.0000
    135    144   1      0.1090 284512.0000
    135    145   1      0.1090 284512.0000
    146    147   1      0.1529 224262.4000
    146    152   1      0.1090 284512.0000
    146    153   1      0.1090 284512.0000
    147    148   1      0.1410 267776.0000
    147    154   1      0.1090 284512.0000
    147    162   1      0.1529 224262.4000
    148    149   1      0.1410 267776.0000
    149    150   1      0.1529 224262.4000
    149    151   1      0.1529 224262.4000
    149    155   1      0.1090 284512.0000
    150    156   1      0.1090 284512.0000
    150    157   1      0.1090 284512.0000
    150    158   1      0.1090 284512.0000
    151    159   1      0.1090 284512.0000
    151    160   1      0.1090 284512.0000
    151    161   1      0.1090 284512.0000
    162    163   1      0.1529 224262.4000
    162    168   1      0.1090 284512.0000
    162    169   1      0.1090 284512.0000
    163    164   1      0.1410 267776.0000
    163    170   1      0.1090 284512.0000
    163    178   1      0.1529 224262.4000
    164    165   1      0.1410 267776.0000
    165    166   1      0.1529 224262.4000
    165    167   1      0.1529 224262.4000
    165    171   1      0.1090 284512.0000
    166    172   1      0.1090 284512.0000
    166    173   1      0.1090 284512.0000
    166    174   1      0.1090 284512.0000
    167    175   1      0.1090 284512.0000
    167    176   1      0.1090 284512.0000
    167    177   1      0.1090 284512.0000
    178    179   1      0.1529 224262.4000
    178    184   1      0.1090 284512.0000
    178    185   1      0.1090 284512.0000
    179    180   1      0.1410 267776.0000
    179    186   1      0.1090 284512.0000
    179    194   1      0.1529 224262.4000
    180    181   1      0.1410 267776.0000
    181    182   1      0.1529 224262.4000
    181    183   1      0.1529 224262.4000
    181    187   1      0.1090 284512.0000
    182    188   1      0.1090 284512.0000
    182    189   1      0.1090 284512.0000
    182    190   1      0.1090 284512.0000
    183    191   1      0.1090 284512.0000
    183    192   1      0.1090 284512.0000
    183    193   1      0.1090 284512.0000
    194    195   1      0.1529 224262.4000
    194    200   1      0.1090 284512.0000
    194    201   1      0.1090 284512.0000
    195    196   1      0.1410 267776.0000
    195    202   1      0.1090 284512.0000
    195    210   1      0.1529 224262.4000
    196    197   1      0.1410 267776.0000
    197    198   1      0.1529 224262.4000
    197    199   1      0.1529 224262.4000
    197    203   1      0.1090 284512.0000
    198    204   1      0.1090 284512.0000
    198    205   1      0.1090 284512.0000
    198    206   1      0.1090 284512.0000
    199    207   1      0.1090 284512.0000
    199    208   1      0.1090 284512.0000
    199    209   1      0.1090 284512.0000
    210    211   1      0.1529 224262.4000
    210    216   1      0.1090 284512.0000
    210    217   1      0.1090 284512.0000
    211    212   1      0.1410 267776.0000
    211    218   1      0.1090 284512.0000
    211    226   1      0.1529 224262.4000
    212    213   1      0.1410 267776.0000
    213    214   1      0.1529 224262.4000
    213    215   1      0.1529 224262.4000
    213    219   1      0.1090 284512.0000
    214    220   1      0.1090 284512.0000
    214    221   1      0.1090 284512.0000
    214    222   1      0.1090 284512.0000
    215    223   1      0.1090 284512.0000
    215    224   1      0.1090 284512.0000
    215    225   1      0.1090 284512.0000
    226    227   1      0.1529 224262.4000
    226    232   1      0.1090 284512.0000
    226    233   1      0.1090 284512.0000
    227    228   1      0.1410 267776.0000
    227    234   1      0.1090 284512.0000
    227    242   1      0.1529 224262.4000
    228    229   1      0.1410 267776.0000
    229    230   1      0.1529 224262.4000
    229    231   1      0.1529 224262.4000
    229    235   1      0.1090 284512.0000
    230    236   1      0.1090 284512.0000
    230    237   1      0.1090 284512.0000
    230    238   1      0.1090 284512.0000
    231    239   1      0.1090 284512.0000
    231    240   1      0.1090 284512.0000
    231    241   1      0.1090 284512.0000
    242    243   1      0.1529 224262.4000
    242    248   1      0.1090 284512.0000
    242    249   1      0.1090 284512.0000
    243    244   1      0.1410 267776.0000
    243    250   1      0.1090 284512.0000
    243    258   1      0.1529 224262.4000
    244    245   1      0.1410 267776.0000
    245    246   1      0.1529 224262.4000
    245    247   1      0.1529 224262.4000
    245    251   1      0.1090 284512.0000
    246    252   1      0.1090 284512.0000
    246    253   1      0.1090 284512.0000
    246    254   1      0.1090 284512.0000
    247    255   1      0.1090 284512.0000
    247    256   1      0.1090 284512.0000
    247    257   1      0.1090 284512.0000
    258    259   1      0.1529 224262.4000
    258    264   1      0.1090 284512.0000
    258    265   1      0.1090 284512.0000
    259    260   1      0.1410 267776.0000
    259    266   1      0.1090 284512.0000
    259    274   1      0.1529 224262.4000
    260    261   1      0.1410 267776.0000
    261    262   1      0.1529 224262.4000
    261    263   1      0.1529 224262.4000
    261    267   1      0.1090 284512.0000
    262    268   1      0.1090 284512.0000
    262    269   1      0.1090 284512.0000
    262    270   1      0.1090 284512.0000
    263    271   1      0.1090 284512.0000
    263    272   1      0.1090 284512.0000
    263    273   1      0.1090 284512.0000
    274    275   1      0.1529 224262.4000
    274    280   1      0.1090 284512.0000
    274    281   1      0.1090 284512.0000
    275    276   1      0.1410 267776.0000
    275    282   1      0.1090 284512.0000
    275    290   1      0.1529 224262.4000
    276    277   1      0.1410 267776.0000
    277    278   1      0.1529 224262.4000
    277    279   1      0.1529 224262.4000
    277    283   1      0.1090 284512.0000
    278    284   1      0.1090 284512.0000
    278    285   1      0.1090 284512.0000
    278    286   1      0.1090 284512.0000
    279    287   1      0.1090 284512.0000
    279    288   1      0.1090 284512.0000
    279    289   1      0.1090 284512.0000
    290    291   1      0.1529 224262.4000
    290    296   1      0.1090 284512.0000
    290    297   1      0.1090 284512.0000
    291    292   1      0.1410 267776.0000
    291    298   1      0.1090 284512.0000
    291    306   1      0.1529 224262.4000
    292    293   1      0.1410 267776.0000
    293    294   1      0.1529 224262.4000
    293    295   1      0.1529 224262.4000
    293    299   1      0.1090 284512.0000
    294    300   1      0.1090 284512.0000
    294    301   1      0.1090 284512.0000
    294    302   1      0.1090 284512.0000
    295    303   1      0.1090 284512.0000
    295    304   1      0.1090 284512.0000
    295    305   1      0.1090 284512.0000
    306    307   1      0.1529 224262.4000
    306    312   1      0.1090 284512.0000
    306    313   1      0.1090 284512.0000
    307    308   1      0.1410 267776.0000
    307    314   1      0.1090 284512.0000
    307    322   1      0.1090 284512.0000
    308    309   1      0.1410 267776.0000
    309    310   1      0.1529 224262.4000
    309    311   1      0.1529 224262.4000
    309    315   1      0.1090 284512.0000
    310    316   1      0.1090 284512.0000
    310    317   1      0.1090 284512.0000
    310    318   1      0.1090 284512.0000
    311    319   1      0.1090 284512.0000
    311    320   1      0.1090 284512.0000
    311    321   1      0.1090 284512.0000

[ pairs ]
; ai   aj   funct   fudge_QQ  charge_i   charge_j   c6    c12
      7      3   2   0.50000     0.0600000   -0.4000000   2.066619e-04  7.875431e-08
      7      9   2   0.50000     0.0600000    0.0300000   6.128906e-05  1.496315e-08
      7     18   2   0.50000     0.0600000   -0.1200000   2.494471e-04  1.671101e-07
      8      3   2   0.50000     0.0600000   -0.4000000   2.066619e-04  7.875431e-08
      8      9   2   0.50000     0.0600000    0.0300000   6.128906e-05  1.496315e-08
      8     18   2   0.50000     0.0600000   -0.1200000   2.494471e-04  1.671101e-07
     17      3   2   0.50000     0.0600000   -0.4000000   2.066619e-04  7.875431e-08
     17      9   2   0.50000     0.0600000    0.0300000   6.128906e-05  1.496315e-08
     17     18   2   0.50000     0.0600000   -0.1200000   2.494471e-04  1.671101e-07
      1      4   2   0.50000    -0.1800000    0.1700000   1.015252e-03  1.866303e-06
      9      4   2   0.50000     0.0300000    0.1700000   2.494471e-04  1.671101e-07
     18      4   2   0.50000    -0.1200000    0.1700000   1.015252e-03  1.866303e-06
      1     19   2   0.50000    -0.1800000    0.1700000   1.015252e-03  1.866303e-06
      1     24   2   0.50000    -0.1800000    0.0600000   2.494471e-04  1.671101e-07
      1     25   2   0.50000    -0.1800000    0.0600000   2.494471e-04  1.671101e-07
      3     19   2   0.50000    -0.4000000    0.1700000   8.411158e-04  8.795366e-07
      3     24   2   0.50000    -0.4000000    0.0600000   2.066619e-04  7.875431e-08
      3     25   2   0.50000    -0.4000000    0.0600000   2.066619e-04  7.875431e-08
      9     19   2   0.50000     0.0300000    0.1700000   2.494471e-04  1.671101e-07
      9     24   2   0.50000     0.0300000    0.0600000   6.128906e-05  1.496315e-08
      9     25   2   0.50000     0.0300000    0.0600000   6.128906e-05  1.496315e-08
      2      5   2   0.50000     0.1700000   -0.1800000   1.015252e-03  1.866303e-06
      2      6   2   0.50000     0.1700000   -0.1800000   1.015252e-03  1.866303e-06
      2     10   2   0.50000     0.1700000    0.0300000   2.494471e-04  1.671101e-07
      3     11   2   0.50000    -0.4000000    0.0600000   2.066619e-04  7.875431e-08
      3     12   2   0.50000    -0.4000000    0.0600000   2.066619e-04  7.875431e-08
      3     13   2   0.50000    -0.4000000    0.0600000   2.066619e-04  7.875431e-08
      6     11   2   0.50000    -0.1800000    0.0600000   2.494471e-04  1.671101e-07
      6     12   2   0.50000    -0.1800000    0.0600000   2.494471e-04  1.671101e-07
      6     13   2   0.50000    -0.1800000    0.0600000   2.494471e-04  1.671101e-07
     10     11   2   0.50000     0.0300000    0.0600000   6.128906e-05  1.496315e-08
     10     12   2   0.50000     0.0300000    0.0600000   6.128906e-05  1.496315e-08
     10     13   2   0.50000     0.0300000    0.0600000   6.128906e-05  1.496315e-08
      3     14   2   0.50000    -0.4000000    0.0600000   2.066619e-04  7.875431e-08
      3     15   2   0.50000    -0.4000000    0.0600000   2.066619e-04  7.875431e-08
      3     16   2   0.50000    -0.4000000    0.0600000   2.066619e-04  7.875431e-08
      5     14   2   0.50000    -0.1800000    0.0600000   2.494471e-04  1.671101e-07
      5     15   2   0.50000    -0.1800000    0.0600000   2.494471e-04  1.671101e-07
      5     16   2   0.50000    -0.1800000    0.0600000   2.494471e-04  1.671101e-07
     10     14   2   0.50000     0.0300000    0.0600000   6.128906e-05  1.496315e-08
     10     15   2   0.50000     0.0300000    0.0600000   6.128906e-05  1.496315e-08
     10     16   2   0.50000     0.0300000    0.0600000   6.128906e-05  1.496315e-08
      2     20   2   0.50000     0.1700000   -0.4000000   8.411158e-04  8.795366e-07
      2     26   2   0.50000     0.1700000    0.0300000   2.494471e-04  1.671101e-07
      2     34   2   0.50000     0.1700000   -0.1200000   1.015252e-03  1.866303e-06
     24     20   2   0.50000     0.0600000   -0.4000000   2.066619e-04  7.875431e-08
     24     26   2   0.50000     0.0600000    0.0300000   6.128906e-05  1.496315e-08
     24     34   2   0.50000     0.0600000   -0.1200000   2.494471e-04  1.671101e-07
     25     20   2   0.50000     0.0600000   -0.4000000   2.066619e-04  7.875431e-08
     25     26   2   0.50000     0.0600000    0.0300000   6.128906e-05  1.496315e-08
     25     34   2   0.50000     0.0600000   -0.1200000   2.494471e-04  1.671101e-07
     18     21   2   0.50000    -0.1200000    0.1700000   1.015252e-03  1.866303e-06
     26     21   2   0.50000     0.0300000    0.1700000   2.494471e-04  1.671101e-07
     34     21   2   0.50000    -0.1200000    0.1700000   1.015252e-03  1.866303e-06
     18     35   2   0.50000    -0.1200000    0.1700000   1.015252e-03  1.866303e-06
     18     40   2   0.50000    -0.1200000    0.0600000   2.494471e-04  1.671101e-07
     18     41   2   0.50000    -0.1200000    0.0600000   2.494471e-04  1.671101e-07
     20     35   2   0.50000    -0.4000000    0.1700000   8.411158e-04  8.795366e-07
     20     40   2   0.50000    -0.4000000    0.0600000   2.066619e-04  7.875431e-08
     20     41   2   0.50000    -0.4000000    0.0600000   2.066619e-04  7.875431e-08
     26     35   2   0.50000     0.0300000    0.1700000   2.494471e-04  1.671101e-07
     26     40   2   0.50000     0.0300000    0.0600000   6.128906e-05  1.496315e-08
     26     41   2   0.50000     0.0300000    0.0600000   6.128906e-05  1.496315e-08
     19     22   2   0.50000     0.1700000   -0.1800000   1.015252e-03  1.866303e-06
     19     23   2   0.50000     0.1700000   -0.1800000   1.015252e-03  1.866303e-06
     19     27   2   0.50000     0.1700000    0.0300000   2.494471e-04  1.671101e-07
     20     28   2   0.50000    -0.4000000    0.0600000   2.066619e-04  7.875431e-08
     20     29   2   0.50000    -0.4000000    0.0600000   2.066619e-04  7.875431e-08
     20     30   2   0.50000    -0.4000000    0.0600000   2.066619e-04  7.875431e-08
     23     28   2   0.50000    -0.1800000    0.0600000   2.494471e-04  1.671101e-07
     23     29   2   0.50000    -0.1800000    0.0600000   2.494471e-04  1.671101e-07
     23     30   2   0.50000    -0.1800000    0.0600000   2.494471e-04  1.671101e-07
     27     28   2   0.50000     0.0300000    0.0600000   6.128906e-05  1.496315e-08
     27     29   2   0.50000     0.0300000    0.0600000   6.128906e-05  1.496315e-08
     27     30   2   0.50000     0.0300000    0.0600000   6.128906e-05  1.496315e-08
     20     31   2   0.50000    -0.4000000    0.0600000   2.066619e-04  7.875431e-08
     20     32   2   0.50000    -0.4000000    0.0600000   2.066619e-04  7.875431e-08
     20     33   2   0.50000    -0.4000000    0.0600000   2.066619e-04  7.875431e-08
     22     31   2   0.50000    -0.1800000    0.0600000   2.494471e-04  1.671101e-07
     22     32   2   0.50000    -0.1800000    0.0600000   2.494471e-04  1.671101e-07
     22     33   2   0.50000    -0.1800000    0.0600000   2.494471e-04  1.671101e-07
     27     31   2   0.50000     0.0300000    0.0600000   6.128906e-05  1.496315e-08
     27     32   2   0.50000     0.0300000    0.0600000   6.128906e-05  1.496315e-08
     27     33   2   0.50000     0.0300000    0.0600000   6.128906e-05  1.496315e-08
     19     36   2   0.50000     0.1700000   -0.4000000   8.411158e-04  8.795366e-07
     19     42   2   0.50000     0.1700000    0.0300000   2.494471e-04  1.671101e-07
     19     50   2   0.50000     0.1700000   -0.1200000   1.015252e-03  1.866303e-06
     40     36   2   0.50000     0.0600000   -0.4000000   2.066619e-04  7.875431e-08
     40     42   2   0.50000     0.0600000    0.0300000   6.128906e-05  1.496315e-08
     40     50   2   0.50000     0.0600000   -0.1200000   2.494471e-04  1.671101e-07
     41     36   2   0.50000     0.0600000   -0.4000000   2.066619e-04  7.875431e-08
     41     42   2   0.50000     0.0600000    0.0300000   6.128906e-05  1.496315e-08
     41     50   2   0.50000     0.0600000   -0.1200000   2.494471e-04  1.671101e-07
     34     37   2   0.50000    -0.1200000    0.1700000   1.015252e-03  1.866303e-06
     42     37   2   0.50000     0.0300000    0.1700000   2.494471e-04  1.671101e-07
     50     37   2   0.50000    -0.1200000    0.1700000   1.015252e-03  1.866303e-06
     34     51   2   0.50000    -0.1200000    0.1700000   1.015252e-03  1.866303e-06
     34     56   2   0.50000    -0.1200000    0.0600000   2.494471e-04  1.671101e-07
     34     57   2   0.50000    -0.1200000    0.0600000   2.494471e-04  1.671101e-07
     36     51   2   0.50000    -0.4000000    0.1700000   8.411158e-04  8.795366e-07
     36     56   2   0.50000    -0.4000000    0.0600000   2.066619e-04  7.875431e-08
     36     57   2   0.50000    -0.4000000    0.0600000   2.066619e-04  7.875431e-08
     42     51   2   0.50000     0.0300000    0.1700000   2.494471e-04  1.671101e-07
     42     56   2   0.50000     0.0300000    0.0600000   6.128906e-05  1.496315e-08
     42     57   2   0.50000     0.0300000    0.0600000   6.128906e-05  1.496315e-08
     35     38   2   0.50000     0.1700000   -0.1800000   1.015252e-03  1.866303e-06
     35     39   2   0.50000     0.1700000   -0.1800000   1.015252e-03  1.866303e-06
     35     43   2   0.50000     0.1700000    0.0300000   2.494471e-04  1.671101e-07
     36     44   2   0.50000    -0.4000000    0.0600000   2.066619e-04  7.875431e-08
     36     45   2   0.50000    -0.4000000    0.0600000   2.066619e-04  7.875431e-08
     36     46   2   0.50000    -0.4000000    0.0600000   2.066619e-04  7.875431e-08
     39     44   2   0.50000    -0.1800000    0.0600000   2.494471e-04  1.671101e-07
     39     45   2   0.50000    -0.1800000    0.0600000   2.494471e-04  1.671101e-07
     39     46   2   0.50000    -0.1800000    0.0600000   2.494471e-04  1.671101e-07
     43     44   2   0.50000     0.0300000    0.0600000   6.128906e-05  1.496315e-08
     43     45   2   0.50000     0.0300000    0.0600000   6.128906e-05  1.496315e-08
     43     46   2   0.50000     0.0300000    0.0600000   6.128906e-05  1.496315e-08
     36     47   2   0.50000    -0.4000000    0.0600000   2.066619e-04  7.875431e-08
     36     48   2   0.50000    -0.4000000    0.0600000   2.066619e-04  7.875431e-08
     36     49   2   0.50000    -0.4000000    0.0600000   2.066619e-04  7.875431e-08
     38     47   2   0.50000    -0.1800000    0.0600000   2.494471e-04  1.671101e-07
     38     48   2   0.50000    -0.1800000    0.0600000   2.494471e-04  1.671101e-07
     38     49   2   0.50000    -0.1800000    0.0600000   2.494471e-04  1.671101e-07
     43     47   2   0.50000     0.0300000    0.0600000   6.128906e-05  1.496315e-08
     43     48   2   0.50000     0.0300000    0.0600000   6.128906e-05  1.496315e-08
     43     49   2   0.50000     0.0300000    0.0600000   6.128906e-05  1.496315e-08
     35     52   2   0.50000     0.1700000   -0.4000000   8.411158e-04  8.795366e-07
     35     58   2   0.50000     0.1700000    0.0300000   2.494471e-04  1.671101e-07
     35     66   2   0.50000     0.1700000   -0.1200000   1.015252e-03  1.866303e-06
     56     52   2   0.50000     0.0600000   -0.4000000   2.066619e-04  7.875431e-08
     56     58   2   0.50000     0.0600000    0.0300000   6.128906e-05  1.496315e-08
     56     66   2   0.50000     0.0600000   -0.1200000   2.494471e-04  1.671101e-07
     57     52   2   0.50000     0.0600000   -0.4000000   2.066619e-04  7.875431e-08
     57     58   2   0.50000     0.0600000    0.0300000   6.128906e-05  1.496315e-08
     57     66   2   0.50000     0.0600000   -0.1200000   2.494471e-04  1.671101e-07
     50     53   2   0.50000    -0.1200000    0.1700000   1.015252e-03  1.866303e-06
     58     53   2   0.50000     0.0300000    0.1700000   2.494471e-04  1.671101e-07
     66     53   2   0.50000    -0.1200000    0.1700000   1.015252e-03  1.866303e-06
     50     67   2   0.50000    -0.1200000    0.1700000   1.015252e-03  1.866303e-06
     50     72   2   0.50000    -0.1200000    0.0600000   2.494471e-04  1.671101e-07
     50     73   2   0.50000    -0.1200000    0.0600000   2.494471e-04  1.671101e-07
     52     67   2   0.50000    -0.4000000    0.1700000   8.411158e-04  8.795366e-07
     52     72   2   0.50000    -0.4000000    0.0600000   2.066619e-04  7.875431e-08
     52     73   2   0.50000    -0.4000000    0.0600000   2.066619e-04  7.875431e-08
     58     67   2   0.50000     0.0300000    0.1700000   2.494471e-04  1.671101e-07
     58     72   2   0.50000     0.0300000    0.0600000   6.128906e-05  1.496315e-08
     58     73   2   0.50000     0.0300000    0.0600000   6.128906e-05  1.496315e-08
     51     54   2   0.50000     0.1700000   -0.1800000   1.015252e-03  1.866303e-06
     51     55   2   0.50000     0.1700000   -0.1800000   1.015252e-03  1.866303e-06
     51     59   2   0.50000     0.1700000    0.0300000   2.494471e-04  1.671101e-07
     52     60   2   0.50000    -0.4000000    0.0600000   2.066619e-04  7.875431e-08
     52     61   2   0.50000    -0.4000000    0.0600000   2.066619e-04  7.875431e-08
     52     62   2   0.50000    -0.4000000    0.0600000   2.066619e-04  7.875431e-08
     55     60   2   0.50000    -0.1800000    0.0600000   2.494471e-04  1.671101e-07
     55     61   2   0.50000    -0.1800000    0.0600000   2.494471e-04  1.671101e-07
     55     62   2   0.50000    -0.1800000    0.0600000   2.494471e-04  1.671101e-07
     59     60   2   0.50000     0.0300000    0.0600000   6.128906e-05  1.496315e-08
     59     61   2   0.50000     0.0300000    0.0600000   6.128906e-05  1.496315e-08
     59     62   2   0.50000     0.0300000    0.0600000   6.128906e-05  1.496315e-08
     52     63   2   0.50000    -0.4000000    0.0600000   2.066619e-04  7.875431e-08
     52     64   2   0.50000    -0.4000000    0.0600000   2.066619e-04  7.875431e-08
     52     65   2   0.50000    -0.4000000    0.0600000   2.066619e-04  7.875431e-08
     54     63   2   0.50000    -0.1800000    0.0600000   2.494471e-04  1.671101e-07
     54     64   2   0.50000    -0.1800000    0.0600000   2.494471e-04  1.671101e-07
     54     65   2   0.50000    -0.1800000    0.0600000   2.494471e-04  1.671101e-07
     59     63   2   0.50000     0.0300000    0.0600000   6.128906e-05  1.496315e-08
     59     64   2   0.50000     0.0300000    0.0600000   6.128906e-05  1.496315e-08
     59     65   2   0.50000     0.0300000    0.0600000   6.128906e-05  1.496315e-08
     51     68   2   0.50000     0.1700000   -0.4000000   8.411158e-04  8.795366e-07
     51     74   2   0.50000     0.1700000    0.0300000   2.494471e-04  1.671101e-07
     51     82   2   0.50000     0.1700000   -0.1200000   1.015252e-03  1.866303e-06
     72     68   2   0.50000     0.0600000   -0.4000000   2.066619e-04  7.875431e-08
     72     74   2   0.50000     0.0600000    0.0300000   6.128906e-05  1.496315e-08
     72     82   2   0.50000     0.0600000   -0.1200000   2.494471e-04  1.671101e-07
     73     68   2   0.50000     0.0600000   -0.4000000   2.066619e-04  7.875431e-08
     73     74   2   0.50000     0.0600000    0.0300000   6.128906e-05  1.496315e-08
     73     82   2   0.50000     0.0600000   -0.1200000   2.494471e-04  1.671101e-07
     66     69   2   0.50000    -0.1200000    0.1700000   1.015252e-03  1.866303e-06
     74     69   2   0.50000     0.0300000    0.1700000   2.494471e-04  1.671101e-07
     82     69   2   0.50000    -0.1200000    0.1700000   1.015252e-03  1.866303e-06
     66     83   2   0.50000    -0.1200000    0.1700000   1.015252e-03  1.866303e-06
     66     88   2   0.50000    -0.1200000    0.0600000   2.494471e-04  1.671101e-07
     66     89   2   0.50000    -0.1200000    0.0600000   2.494471e-04  1.671101e-07
     68     83   2   0.50000    -0.4000000    0.1700000   8.411158e-04  8.795366e-07
     68     88   2   0.50000    -0.4000000    0.0600000   2.066619e-04  7.875431e-08
     68     89   2   0.50000    -0.4000000    0.0600000   2.066619e-04  7.875431e-08
     74     83   2   0.50000     0.0300000    0.1700000   2.494471e-04  1.671101e-07
     74     88   2   0.50000     0.0300000    0.0600000   6.128906e-05  1.496315e-08
     74     89   2   0.50000     0.0300000    0.0600000   6.128906e-05  1.496315e-08
     67     70   2   0.50000     0.1700000   -0.1800000   1.015252e-03  1.866303e-06
     67     71   2   0.50000     0.1700000   -0.1800000   1.015252e-03  1.866303e-06
     67     75   2   0.50000     0.1700000    0.0300000   2.494471e-04  1.671101e-07
     68     76   2   0.50000    -0.4000000    0.0600000   2.066619e-04  7.875431e-08
     68     77   2   0.50000    -0.4000000    0.0600000   2.066619e-04  7.875431e-08
     68     78   2   0.50000    -0.4000000    0.0600000   2.066619e-04  7.875431e-08
     71     76   2   0.50000    -0.1800000    0.0600000   2.494471e-04  1.671101e-07
     71     77   2   0.50000    -0.1800000    0.0600000   2.494471e-04  1.671101e-07
     71     78   2   0.50000    -0.1800000    0.0600000   2.494471e-04  1.671101e-07
     75     76   2   0.50000     0.0300000    0.0600000   6.128906e-05  1.496315e-08
     75     77   2   0.50000     0.0300000    0.0600000   6.128906e-05  1.496315e-08
     75     78   2   0.50000     0.0300000    0.0600000   6.128906e-05  1.496315e-08
     68     79   2   0.50000    -0.4000000    0.0600000   2.066619e-04  7.875431e-08
     68     80   2   0.50000    -0.4000000    0.0600000   2.066619e-04  7.875431e-08
     68     81   2   0.50000    -0.4000000    0.0600000   2.066619e-04  7.875431e-08
     70     79   2   0.50000    -0.1800000    0.0600000   2.494471e-04  1.671101e-07
     70     80   2   0.50000    -0.1800000    0.0600000   2.494471e-04  1.671101e-07
     70     81   2   0.50000    -0.1800000    0.0600000   2.494471e-04  1.671101e-07
     75     79   2   0.50000     0.0300000    0.0600000   6.128906e-05  1.496315e-08
     75     80   2   0.50000     0.0300000    0.0600000   6.128906e-05  1.496315e-08
     75     81   2   0.50000     0.0300000    0.0600000   6.128906e-05  1.496315e-08
     67     84   2   0.50000     0.1700000   -0.4000000   8.411158e-04  8.795366e-07
     67     90   2   0.50000     0.1700000    0.0300000   2.494471e-04  1.671101e-07
     67     98   2   0.50000     0.1700000   -0.1200000   1.015252e-03  1.866303e-06
     88     84   2   0.50000     0.0600000   -0.4000000   2.066619e-04  7.875431e-08
     88     90   2   0.50000     0.0600000    0.0300000   6.128906e-05  1.496315e-08
     88     98   2   0.50000     0.0600000   -0.1200000   2.494471e-04  1.671101e-07
     89     84   2   0.50000     0.0600000   -0.4000000   2.066619e-04  7.875431e-08
     89     90   2   0.50000     0.0600000    0.0300000   6.128906e-05  1.496315e-08
     89     98   2   0.50000     0.0600000   -0.1200000   2.494471e-04  1.671101e-07
     82     85   2   0.50000    -0.1200000    0.1700000   1.015252e-03  1.866303e-06
     90     85   2   0.50000     0.0300000    0.1700000   2.494471e-04  1.671101e-07
     98     85   2   0.50000    -0.1200000    0.1700000   1.015252e-03  1.866303e-06
     82     99   2   0.50000    -0.1200000    0.1700000   1.015252e-03  1.866303e-06
     82    104   2   0.50000    -0.1200000    0.0600000   2.494471e-04  1.671101e-07
     82    105   2   0.50000    -0.1200000    0.0600000   2.494471e-04  1.671101e-07
     84     99   2   0.50000    -0.4000000    0.1700000   8.411158e-04  8.795366e-07
     84    104   2   0.50000    -0.4000000    0.0600000   2.066619e-04  7.875431e-08
     84    105   2   0.50000    -0.4000000    0.0600000   2.066619e-04  7.875431e-08
     90     99   2   0.50000     0.0300000    0.1700000   2.494471e-04  1.671101e-07
     90    104   2   0.50000     0.0300000    0.0600000   6.128906e-05  1.496315e-08
     90    105   2   0.50000     0.0300000    0.0600000   6.128906e-05  1.496315e-08
     83     86   2   0.50000     0.1700000   -0.1800000   1.015252e-03  1.866303e-06
     83     87   2   0.50000     0.1700000   -0.1800000   1.015252e-03  1.866303e-06
     83     91   2   0.50000     0.1700000    0.0300000   2.494471e-04  1.671101e-07
     84     92   2   0.50000    -0.4000000    0.0600000   2.066619e-04  7.875431e-08
     84     93   2   0.50000    -0.4000000    0.0600000   2.066619e-04  7.875431e-08
     84     94   2   0.50000    -0.4000000    0.0600000   2.066619e-04  7.875431e-08
     87     92   2   0.50000    -0.1800000    0.0600000   2.494471e-04  1.671101e-07
     87     93   2   0.50000    -0.1800000    0.0600000   2.494471e-04  1.671101e-07
     87     94   2   0.50000    -0.1800000    0.0600000   2.494471e-04  1.671101e-07
     91     92   2   0.50000     0.0300000    0.0600000   6.128906e-05  1.496315e-08
     91     93   2   0.50000     0.0300000    0.0600000   6.128906e-05  1.496315e-08
     91     94   2   0.50000     0.0300000    0.0600000   6.128906e-05  1.496315e-08
     84     95   2   0.50000    -0.4000000    0.0600000   2.066619e-04  7.875431e-08
     84     96   2   0.50000    -0.4000000    0.0600000   2.066619e-04  7.875431e-08
     84     97   2   0.50000    -0.4000000    0.0600000   2.066619e-04  7.875431e-08
     86     95   2   0.50000    -0.1800000    0.0600000   2.494471e-04  1.671101e-07
     86     96   2   0.50000    -0.1800000    0.0600000   2.494471e-04  1.671101e-07
     86     97   2   0.50000    -0.1800000    0.0600000   2.494471e-04  1.671101e-07
     91     95   2   0.50000     0.0300000    0.0600000   6.128906e-05  1.496315e-08
     91     96   2   0.50000     0.0300000    0.0600000   6.128906e-05  1.496315e-08
     91     97   2   0.50000     0.0300000    0.0600000   6.128906e-05  1.496315e-08
     83    100   2   0.50000     0.1700000   -0.4000000   8.411158e-04  8.795366e-07
     83    106   2   0.50000     0.1700000    0.0300000   2.494471e-04  1.671101e-07
     83    114   2   0.50000     0.1700000   -0.1200000   1.015252e-03  1.866303e-06
    104    100   2   0.50000     0.0600000   -0.4000000   2.066619e-04  7.875431e-08
    104    106   2   0.50000     0.0600000    0.0300000   6.128906e-05  1.496315e-08
    104    114   2   0.50000     0.0600000   -0.1200000   2.494471e-04  1.671101e-07
    105    100   2   0.50000     0.0600000   -0.4000000   2.066619e-04  7.875431e-08
    105    106   2   0.50000     0.0600000    0.0300000   6.128906e-05  1.496315e-08
    105    114   2   0.50000     0.0600000   -0.1200000   2.494471e-04  1.671101e-07
     98    101   2   0.50000    -0.1200000    0.1700000   1.015252e-03  1.866303e-06
    106    101   2   0.50000     0.0300000    0.1700000   2.494471e-04  1.671101e-07
    114    101   2   0.50000    -0.1200000    0.1700000   1.015252e-03  1.866303e-06
     98    115   2   0.50000    -0.1200000    0.1700000   1.015252e-03  1.866303e-06
     98    120   2   0.50000    -0.1200000    0.0600000   2.494471e-04  1.671101e-07
     98    121   2   0.50000    -0.1200000    0.0600000   2.494471e-04  1.671101e-07
    100    115   2   0.50000    -0.4000000    0.1700000   8.411158e-04  8.795366e-07
    100    120   2   0.50000    -0.4000000    0.0600000   2.066619e-04  7.875431e-08
    100    121   2   0.50000    -0.4000000    0.0600000   2.066619e-04  7.875431e-08
    106    115   2   0.50000     0.0300000    0.1700000   2.494471e-04  1.671101e-07
    106    120   2   0.50000     0.0300000    0.0600000   6.128906e-05  1.496315e-08
    106    121   2   0.50000     0.0300000    0.0600000   6.128906e-05  1.496315e-08
     99    102   2   0.50000     0.1700000   -0.1800000   1.015252e-03  1.866303e-06
     99    103   2   0.50000     0.1700000   -0.1800000   1.015252e-03  1.866303e-06
     99    107   2   0.50000     0.1700000    0.0300000   2.494471e-04  1.671101e-07
    100    108   2   0.50000    -0.4000000    0.0600000   2.066619e-04  7.875431e-08
    100    109   2   0.50000    -0.4000000    0.0600000   2.066619e-04  7.875431e-08
    100    110   2   0.50000    -0.4000000    0.0600000   2.066619e-04  7.875431e-08
    103    108   2   0.50000    -0.1800000    0.0600000   2.494471e-04  1.671101e-07
    103    109   2   0.50000    -0.1800000    0.0600000   2.494471e-04  1.671101e-07
    103    110   2   0.50000    -0.1800000    0.0600000   2.494471e-04  1.671101e-07
    107    108   2   0.50000     0.0300000    0.0600000   6.128906e-05  1.496315e-08
    107    109   2   0.50000     0.0300000    0.0600000   6.128906e-05  1.496315e-08
    107    110   2   0.50000     0.0300000    0.0600000   6.128906e-05  1.496315e-08
    100    111   2   0.50000    -0.4000000    0.0600000   2.066619e-04  7.875431e-08
    100    112   2   0.50000    -0.4000000    0.0600000   2.066619e-04  7.875431e-08
    100    113   2   0.50000    -0.4000000    0.0600000   2.066619e-04  7.875431e-08
    102    111   2   0.50000    -0.1800000    0.0600000   2.494471e-04  1.671101e-07
    102    112   2   0.50000    -0.1800000    0.0600000   2.494471e-04  1.671101e-07
    102    113   2   0.50000    -0.1800000    0.0600000   2.494471e-04  1.671101e-07
    107    111   2   0.50000     0.0300000    0.0600000   6.128906e-05  1.496315e-08
    107    112   2   0.50000     0.0300000    0.0600000   6.128906e-05  1.496315e-08
    107    113   2   0.50000     0.0300000    0.0600000   6.128906e-05  1.496315e-08
     99    116   2   0.50000     0.1700000   -0.4000000   8.411158e-04  8.795366e-07
     99    122   2   0.50000     0.1700000    0.0300000   2.494471e-04  1.671101e-07
     99    130   2   0.50000     0.1700000   -0.1200000   1.015252e-03  1.866303e-06
    120    116   2   0.50000     0.0600000   -0.4000000   2.066619e-04  7.875431e-08
    120    122   2   0.50000     0.0600000    0.0300000   6.128906e-05  1.496315e-08
    120    130   2   0.50000     0.0600000   -0.1200000   2.494471e-04  1.671101e-07
    121    116   2   0.50000     0.0600000   -0.4000000   2.066619e-04  7.875431e-08
    121    122   2   0.50000     0.0600000    0.0300000   6.128906e-05  1.496315e-08
    121    130   2   0.50000     0.0600000   -0.1200000   2.494471e-04  1.671101e-07
    114    117   2   0.50000    -0.1200000    0.1700000   1.015252e-03  1.866303e-06
    122    117   2   0.50000     0.0300000    0.1700000   2.494471e-04  1.671101e-07
    130    117   2   0.50000    -0.1200000    0.1700000   1.015252e-03  1.866303e-06
    114    131   2   0.50000    -0.1200000    0.1700000   1.015252e-03  1.866303e-06
    114    136   2   0.50000    -0.1200000    0.0600000   2.494471e-04  1.671101e-07
    114    137   2   0.50000    -0.1200000    0.0600000   2.494471e-04  1.671101e-07
    116    131   2   0.50000    -0.4000000    0.1700000   8.411158e-04  8.795366e-07
    116    136   2   0.50000    -0.4000000    0.0600000   2.066619e-04  7.875431e-08
    116    137   2   0.50000    -0.4000000    0.0600000   2.066619e-04  7.875431e-08
    122    131   2   0.50000     0.0300000    0.1700000   2.494471e-04  1.671101e-07
    122    136   2   0.50000     0.0300000    0.0600000   6.128906e-05  1.496315e-08
    122    137   2   0.50000     0.0300000    0.0600000   6.128906e-05  1.496315e-08
    115    118   2   0.50000     0.1700000   -0.1800000   1.015252e-03  1.866303e-06
    115    119   2   0.50000     0.1700000   -0.1800000   1.015252e-03  1.866303e-06
    115    123   2   0.50000     0.1700000    0.0300000   2.494471e-04  1.671101e-07
    116    124   2   0.50000    -0.4000000    0.0600000   2.066619e-04  7.875431e-08
    116    125   2   0.50000    -0.4000000    0.0600000   2.066619e-04  7.875431e-08
    116    126   2   0.50000    -0.4000000    0.0600000   2.066619e-04  7.875431e-08
    119    124   2   0.50000    -0.1800000    0.0600000   2.494471e-04  1.671101e-07
    119    125   2   0.50000    -0.1800000    0.0600000   2.494471e-04  1.671101e-07
    119    126   2   0.50000    -0.1800000    0.0600000   2.494471e-04  1.671101e-07
    123    124   2   0.50000     0.0300000    0.0600000   6.128906e-05  1.496315e-08
    123    125   2   0.50000     0.0300000    0.0600000   6.128906e-05  1.496315e-08
    123    126   2   0.50000     0.0300000    0.0600000   6.128906e-05  1.496315e-08
    116    127   2   0.50000    -0.4000000    0.0600000   2.066619e-04  7.875431e-08
    116    128   2   0.50000    -0.4000000    0.0600000   2.066619e-04  7.875431e-08
    116    129   2   0.50000    -0.4000000    0.0600000   2.066619e-04  7.875431e-08
    118    127   2   0.50000    -0.1800000    0.0600000   2.494471e-04  1.671101e-07
    118    128   2   0.50000    -0.1800000    0.0600000   2.494471e-04  1.671101e-07
    118    129   2   0.50000    -0.1800000    0.0600000   2.494471e-04  1.671101e-07
    123    127   2   0.50000     0.0300000    0.0600000   6.128906e-05  1.496315e-08
    123    128   2   0.50000     0.0300000    0.0600000   6.128906e-05  1.496315e-08
    123    129   2   0.50000     0.0300000    0.0600000   6.128906e-05  1.496315e-08
    115    132   2   0.50000     0.1700000   -0.4000000   8.411158e-04  8.795366e-07
    115    138   2   0.50000     0.1700000    0.0300000   2.494471e-04  1.671101e-07
    115    146   2   0.50000     0.1700000   -0.1200000   1.015252e-03  1.866303e-06
    136    132   2   0.50000     0.0600000   -0.4000000   2.066619e-04  7.875431e-08
    136    138   2   0.50000     0.0600000    0.0300000   6.128906e-05  1.496315e-08
    136    146   2   0.50000     0.0600000   -0.1200000   2.494471e-04  1.671101e-07
    137    132   2   0.50000     0.0600000   -0.4000000   2.066619e-04  7.875431e-08
    137    138   2   0.50000     0.0600000    0.0300000   6.128906e-05  1.496315e-08
    137    146   2   0.50000     0.0600000   -0.1200000   2.494471e-04  1.671101e-07
    130    133   2   0.50000    -0.1200000    0.1700000   1.015252e-03  1.866303e-06
    138    133   2   0.50000     0.0300000    0.1700000   2.494471e-04  1.671101e-07
    146    133   2   0.50000    -0.1200000    0.1700000   1.015252e-03  1.866303e-06
    130    147   2   0.50000    -0.1200000    0.1700000   1.015252e-03  1.866303e-06
    130    152   2   0.50000    -0.1200000    0.0600000   2.494471e-04  1.671101e-07
    130    153   2   0.50000    -0.1200000    0.0600000   2.494471e-04  1.671101e-07
    132    147   2   0.50000    -0.4000000    0.1700000   8.411158e-04  8.795366e-07
    132    152   2   0.50000    -0.4000000    0.0600000   2.066619e-04  7.875431e-08
    132    153   2   0.50000    -0.4000000    0.0600000   2.066619e-04  7.875431e-08
    138    147   2   0.50000     0.0300000    0.1700000   2.494471e-04  1.671101e-07
    138    152   2   0.50000     0.0300000    0.0600000   6.128906e-05  1.496315e-08
    138    153   2   0.50000     0.0300000    0.0600000   6.128906e-05  1.496315e-08
    131    134   2   0.50000     0.1700000   -0.1800000   1.015252e-03  1.866303e-06
    131    135   2   0.50000     0.1700000   -0.1800000   1.015252e-03  1.866303e-06
    131    139   2   0.50000     0.1700000    0.0300000   2.494471e-04  1.671101e-07
    132    140   2   0.50000    -0.4000000    0.0600000   2.066619e-04  7.875431e-08
    132    141   2   0.50000    -0.4000000    0.0600000   2.066619e-04  7.875431e-08
    132    142   2   0.50000    -0.4000000    0.0600000   2.066619e-04  7.875431e-08
    135    140   2   0.50000    -0.1800000    0.0600000   2.494471e-04  1.671101e-07
    135    141   2   0.50000    -0.1800000    0.0600000   2.494471e-04  1.671101e-07
    135    142   2   0.50000    -0.1800000    0.0600000   2.494471e-04  1.671101e-07
    139    140   2   0.50000     0.0300000    0.0600000   6.128906e-05  1.496315e-08
    139    141   2   0.50000     0.0300000    0.0600000   6.128906e-05  1.496315e-08
    139    142   2   0.50000     0.0300000    0.0600000   6.128906e-05  1.496315e-08
    132    143   2   0.50000    -0.4000000    0.0600000   2.066619e-04  7.875431e-08
    132    144   2   0.50000    -0.4000000    0.0600000   2.066619e-04  7.875431e-08
    132    145   2   0.50000    -0.4000000    0.0600000   2.066619e-04  7.875431e-08
    134    143   2   0.50000    -0.1800000    0.0600000   2.494471e-04  1.671101e-07
    134    144   2   0.50000    -0.1800000    0.0600000   2.494471e-04  1.671101e-07
    134    145   2   0.50000    -0.1800000    0.0600000   2.494471e-04  1.671101e-07
    139    143   2   0.50000     0.0300000    0.0600000   6.128906e-05  1.496315e-08
    139    144   2   0.50000     0.0300000    0.0600000   6.128906e-05  1.496315e-08
    139    145   2   0.50000     0.0300000    0.0600000   6.128906e-05  1.496315e-08
    131    148   2   0.50000     0.1700000   -0.4000000   8.411158e-04  8.795366e-07
    131    154   2   0.50000     0.1700000    0.0300000   2.494471e-04  1.671101e-07
    131    162   2   0.50000     0.1700000   -0.1200000   1.015252e-03  1.866303e-06
    152    148   2   0.50000     0.0600000   -0.4000000   2.066619e-04  7.875431e-08
    152    154   2   0.50000     0.0600000    0.0300000   6.128906e-05  1.496315e-08
    152    162   2   0.50000     0.0600000   -0.1200000   2.494471e-04  1.671101e-07
    153    148   2   0.50000     0.0600000   -0.4000000   2.066619e-04  7.875431e-08
    153    154   2   0.50000     0.0600000    0.0300000   6.128906e-05  1.496315e-08
    153    162   2   0.50000     0.0600000   -0.1200000   2.494471e-04  1.671101e-07
    146    149   2   0.50000    -0.1200000    0.1700000   1.015252e-03  1.866303e-06
    154    149   2   0.50000     0.0300000    0.1700000   2.494471e-04  1.671101e-07
    162    149   2   0.50000    -0.1200000    0.1700000   1.015252e-03  1.866303e-06
    146    163   2   0.50000    -0.1200000    0.1700000   1.015252e-03  1.866303e-06
    146    168   2   0.50000    -0.1200000    0.0600000   2.494471e-04  1.671101e-07
    146    169   2   0.50000    -0.1200000    0.0600000   2.494471e-04  1.671101e-07
    148    163   2   0.50000    -0.4000000    0.1700000   8.411158e-04  8.795366e-07
    148    168   2   0.50000    -0.4000000    0.0600000   2.066619e-04  7.875431e-08
    148    169   2   0.50000    -0.4000000    0.0600000   2.066619e-04  7.875431e-08
    154    163   2   0.50000     0.0300000    0.1700000   2.494471e-04  1.671101e-07
    154    168   2   0.50000     0.0300000    0.0600000   6.128906e-05  1.496315e-08
    154    169   2   0.50000     0.0300000    0.0600000   6.128906e-05  1.496315e-08
    147    150   2   0.50000     0.1700000   -0.1800000   1.015252e-03  1.866303e-06
    147    151   2   0.50000     0.1700000   -0.1800000   1.015252e-03  1.866303e-06
    147    155   2   0.50000     0.1700000    0.0300000   2.494471e-04  1.671101e-07
    148    156   2   0.50000    -0.4000000    0.0600000   2.066619e-04  7.875431e-08
    148    157   2   0.50000    -0.4000000    0.0600000   2.066619e-04  7.875431e-08
    148    158   2   0.50000    -0.4000000    0.0600000   2.066619e-04  7.875431e-08
    151    156   2   0.50000    -0.1800000    0.0600000   2.494471e-04  1.671101e-07
    151    157   2   0.50000    -0.1800000    0.0600000   2.494471e-04  1.671101e-07
    151    158   2   0.50000    -0.1800000    0.0600000   2.494471e-04  1.671101e-07
    155    156   2   0.50000     0.0300000    0.0600000   6.128906e-05  1.496315e-08
    155    157   2   0.50000     0.0300000    0.0600000   6.128906e-05  1.496315e-08
    155    158   2   0.50000     0.0300000    0.0600000   6.128906e-05  1.496315e-08
    148    159   2   0.50000    -0.4000000    0.0600000   2.066619e-04  7.875431e-08
    148    160   2   0.50000    -0.4000000    0.0600000   2.066619e-04  7.875431e-08
    148    161   2   0.50000    -0.4000000    0.0600000   2.066619e-04  7.875431e-08
    150    159   2   0.50000    -0.1800000    0.0600000   2.494471e-04  1.671101e-07
    150    160   2   0.50000    -0.1800000    0.0600000   2.494471e-04  1.671101e-07
    150    161   2   0.50000    -0.1800000    0.0600000   2.494471e-04  1.671101e-07
    155    159   2   0.50000     0.0300000    0.0600000   6.128906e-05  1.496315e-08
    155    160   2   0.50000     0.0300000    0.0600000   6.128906e-05  1.496315e-08
    155    161   2   0.50000     0.0300000    0.0600000   6.128906e-05  1.496315e-08
    147    164   2   0.50000     0.1700000   -0.4000000   8.411158e-04  8.795366e-07
    147    170   2   0.50000     0.1700000    0.0300000   2.494471e-04  1.671101e-07
    147    178   2   0.50000     0.1700000   -0.1200000   1.015252e-03  1.866303e-06
    168    164   2   0.50000     0.0600000   -0.4000000   2.066619e-04  7.875431e-08
    168    170   2   0.50000     0.0600000    0.0300000   6.128906e-05  1.496315e-08
    168    178   2   0.50000     0.0600000   -0.1200000   2.494471e-04  1.671101e-07
    169    164   2   0.50000     0.0600000   -0.4000000   2.066619e-04  7.875431e-08
    169    170   2   0.50000     0.0600000    0.0300000   6.128906e-05  1.496315e-08
    169    178   2   0.50000     0.0600000   -0.1200000   2.494471e-04  1.671101e-07
    162    165   2   0.50000    -0.1200000    0.1700000   1.015252e-03  1.866303e-06
    170    165   2   0.50000     0.0300000    0.1700000   2.494471e-04  1.671101e-07
    178    165   2   0.50000    -0.1200000    0.1700000   1.015252e-03  1.866303e-06
    162    179   2   0.50000    -0.1200000    0.1700000   1.015252e-03  1.866303e-06
    162    184   2   0.50000    -0.1200000    0.0600000   2.494471e-04  1.671101e-07
    162    185   2   0.50000    -0.1200000    0.0600000   2.494471e-04  1.671101e-07
    164    179   2   0.50000    -0.4000000    0.1700000   8.411158e-04  8.795366e-07
    164    184   2   0.50000    -0.4000000    0.0600000   2.066619e-04  7.875431e-08
    164    185   2   0.50000    -0.4000000    0.0600000   2.066619e-04  7.875431e-08
    170    179   2   0.50000     0.0300000    0.1700000   2.494471e-04  1.671101e-07
    170    184   2   0.50000     0.0300000    0.0600000   6.128906e-05  1.496315e-08
    170    185   2   0.50000     0.0300000    0.0600000   6.128906e-05  1.496315e-08
    163    166   2   0.50000     0.1700000   -0.1800000   1.015252e-03  1.866303e-06
    163    167   2   0.50000     0.1700000   -0.1800000   1.015252e-03  1.866303e-06
    163    171   2   0.50000     0.1700000    0.0300000   2.494471e-04  1.671101e-07
    164    172   2   0.50000    -0.4000000    0.0600000   2.066619e-04  7.875431e-08
    164    173   2   0.50000    -0.4000000    0.0600000   2.066619e-04  7.875431e-08
    164    174   2   0.50000    -0.4000000    0.0600000   2.066619e-04  7.875431e-08
    167    172   2   0.50000    -0.1800000    0.0600000   2.494471e-04  1.671101e-07
    167    173   2   0.50000    -0.1800000    0.0600000   2.494471e-04  1.671101e-07
    167    174   2   0.50000    -0.1800000    0.0600000   2.494471e-04  1.671101e-07
    171    172   2   0.50000     0.0300000    0.0600000   6.128906e-05  1.496315e-08
    171    173   2   0.50000     0.0300000    0.0600000   6.128906e-05  1.496315e-08
    171    174   2   0.50000     0.0300000    0.0600000   6.128906e-05  1.496315e-08
    164    175   2   0.50000    -0.4000000    0.0600000   2.066619e-04  7.875431e-08
    164    176   2   0.50000    -0.4000000    0.0600000   2.066619e-04  7.875431e-08
    164    177   2   0.50000    -0.4000000    0.0600000   2.066619e-04  7.875431e-08
    166    175   2   0.50000    -0.1800000    0.0600000   2.494471e-04  1.671101e-07
    166    176   2   0.50000    -0.1800000    0.0600000   2.494471e-04  1.671101e-07
    166    177   2   0.50000    -0.1800000    0.0600000   2.494471e-04  1.671101e-07
    171    175   2   0.50000     0.0300000    0.0600000   6.128906e-05  1.496315e-08
    171    176   2   0.50000     0.0300000    0.0600000   6.128906e-05  1.496315e-08
    171    177   2   0.50000     0.0300000    0.0600000   6.128906e-05  1.496315e-08
    163    180   2   0.50000     0.1700000   -0.4000000   8.411158e-04  8.795366e-07
    163    186   2   0.50000     0.1700000    0.0300000   2.494471e-04  1.671101e-07
    163    194   2   0.50000     0.1700000   -0.1200000   1.015252e-03  1.866303e-06
    184    180   2   0.50000     0.0600000   -0.4000000   2.066619e-04  7.875431e-08
    184    186   2   0.50000     0.0600000    0.0300000   6.128906e-05  1.496315e-08
    184    194   2   0.50000     0.0600000   -0.1200000   2.494471e-04  1.671101e-07
    185    180   2   0.50000     0.0600000   -0.4000000   2.066619e-04  7.875431e-08
    185    186   2   0.50000     0.0600000    0.0300000   6.128906e-05  1.496315e-08
    185    194   2   0.50000     0.0600000   -0.1200000   2.494471e-04  1.671101e-07
    178    181   2   0.50000    -0.1200000    0.1700000   1.015252e-03  1.866303e-06
    186    181   2   0.50000     0.0300000    0.1700000   2.494471e-04  1.671101e-07
    194    181   2   0.50000    -0.1200000    0.1700000   1.015252e-03  1.866303e-06
    178    195   2   0.50000    -0.1200000    0.1700000   1.015252e-03  1.866303e-06
    178    200   2   0.50000    -0.1200000    0.0600000   2.494471e-04  1.671101e-07
    178    201   2   0.50000    -0.1200000    0.0600000   2.494471e-04  1.671101e-07
    180    195   2   0.50000    -0.4000000    0.1700000   8.411158e-04  8.795366e-07
    180    200   2   0.50000    -0.4000000    0.0600000   2.066619e-04  7.875431e-08
    180    201   2   0.50000    -0.4000000    0.0600000   2.066619e-04  7.875431e-08
    186    195   2   0.50000     0.0300000    0.1700000   2.494471e-04  1.671101e-07
    186    200   2   0.50000     0.0300000    0.0600000   6.128906e-05  1.496315e-08
    186    201   2   0.50000     0.0300000    0.0600000   6.128906e-05  1.496315e-08
    179    182   2   0.50000     0.1700000   -0.1800000   1.015252e-03  1.866303e-06
    179    183   2   0.50000     0.1700000   -0.1800000   1.015252e-03  1.866303e-06
    179    187   2   0.50000     0.1700000    0.0300000   2.494471e-04  1.671101e-07
    180    188   2   0.50000    -0.4000000    0.0600000   2.066619e-04  7.875431e-08
    180    189   2   0.50000    -0.4000000    0.0600000   2.066619e-04  7.875431e-08
    180    190   2   0.50000    -0.4000000    0.0600000   2.066619e-04  7.875431e-08
    183    188   2   0.50000    -0.1800000    0.0600000   2.494471e-04  1.671101e-07
    183    189   2   0.50000    -0.1800000    0.0600000   2.494471e-04  1.671101e-07
    183    190   2   0.50000    -0.1800000    0.0600000   2.494471e-04  1.671101e-07
    187    188   2   0.50000     0.0300000    0.0600000   6.128906e-05  1.496315e-08
    187    189   2   0.50000     0.0300000    0.0600000   6.128906e-05  1.496315e-08
    187    190   2   0.50000     0.0300000    0.0600000   6.128906e-05  1.496315e-08
    180    191   2   0.50000    -0.4000000    0.0600000   2.066619e-04  7.875431e-08
    180    192   2   0.50000    -0.4000000    0.0600000   2.066619e-04  7.875431e-08
    180    193   2   0.50000    -0.4000000    0.0600000   2.066619e-04  7.875431e-08
    182    191   2   0.50000    -0.1800000    0.0600000   2.494471e-04  1.671101e-07
    182    192   2   0.50000    -0.1800000    0.0600000   2.494471e-04  1.671101e-07
    182    193   2   0.50000    -0.1800000    0.0600000   2.494471e-04  1.671101e-07
    187    191   2   0.50000     0.0300000    0.0600000   6.128906e-05  1.496315e-08
    187    192   2   0.50000     0.0300000    0.0600000   6.128906e-05  1.496315e-08
    187    193   2   0.50000     0.0300000    0.0600000   6.128906e-05  1.496315e-08
    179    196   2   0.50000     0.1700000   -0.4000000   8.411158e-04  8.795366e-07
    179    202   2   0.50000     0.1700000    0.0300000   2.494471e-04  1.671101e-07
    179    210   2   0.50000     0.1700000   -0.1200000   1.015252e-03  1.866303e-06
    200    196   2   0.50000     0.0600000   -0.4000000   2.066619e-04  7.875431e-08
    200    202   2   0.50000     0.0600000    0.0300000   6.128906e-05  1.496315e-08
    200    210   2   0.50000     0.0600000   -0.1200000   2.494471e-04  1.671101e-07
    201    196   2   0.50000     0.0600000   -0.4000000   2.066619e-04  7.875431e-08
    201    202   2   0.50000     0.0600000    0.0300000   6.128906e-05  1.496315e-08
    201    210   2   0.50000     0.0600000   -0.1200000   2.494471e-04  1.671101e-07
    194    197   2   0.50000    -0.1200000    0.1700000   1.015252e-03  1.866303e-06
    202    197   2   0.50000     0.0300000    0.1700000   2.494471e-04  1.671101e-07
    210    197   2   0.50000    -0.1200000    0.1700000   1.015252e-03  1.866303e-06
    194    211   2   0.50000    -0.1200000    0.1700000   1.015252e-03  1.866303e-06
    194    216   2   0.50000    -0.1200000    0.0600000   2.494471e-04  1.671101e-07
    194    217   2   0.50000    -0.1200000    0.0600000   2.494471e-04  1.671101e-07
    196    211   2   0.50000    -0.4000000    0.1700000   8.411158e-04  8.795366e-07
    196    216   2   0.50000    -0.4000000    0.0600000   2.066619e-04  7.875431e-08
    196    217   2   0.50000    -0.4000000    0.0600000   2.066619e-04  7.875431e-08
    202    211   2   0.50000     0.0300000    0.1700000   2.494471e-04  1.671101e-07
    202    216   2   0.50000     0.0300000    0.0600000   6.128906e-05  1.496315e-08
    202    217   2   0.50000     0.0300000    0.0600000   6.128906e-05  1.496315e-08
    195    198   2   0.50000     0.1700000   -0.1800000   1.015252e-03  1.866303e-06
    195    199   2   0.50000     0.1700000   -0.1800000   1.015252e-03  1.866303e-06
    195    203   2   0.50000     0.1700000    0.0300000   2.494471e-04  1.671101e-07
    196    204   2   0.50000    -0.4000000    0.0600000   2.066619e-04  7.875431e-08
    196    205   2   0.50000    -0.4000000    0.0600000   2.066619e-04  7.875431e-08
    196    206   2   0.50000    -0.4000000    0.0600000   2.066619e-04  7.875431e-08
    199    204   2   0.50000    -0.1800000    0.0600000   2.494471e-04  1.671101e-07
    199    205   2   0.50000    -0.1800000    0.0600000   2.494471e-04  1.671101e-07
    199    206   2   0.50000    -0.1800000    0.0600000   2.494471e-04  1.671101e-07
    203    204   2   0.50000     0.0300000    0.0600000   6.128906e-05  1.496315e-08
    203    205   2   0.50000     0.0300000    0.0600000   6.128906e-05  1.496315e-08
    203    206   2   0.50000     0.0300000    0.0600000   6.128906e-05  1.496315e-08
    196    207   2   0.50000    -0.4000000    0.0600000   2.066619e-04  7.875431e-08
    196    208   2   0.50000    -0.4000000    0.0600000   2.066619e-04  7.875431e-08
    196    209   2   0.50000    -0.4000000    0.0600000   2.066619e-04  7.875431e-08
    198    207   2   0.50000    -0.1800000    0.0600000   2.494471e-04  1.671101e-07
    198    208   2   0.50000    -0.1800000    0.0600000   2.494471e-04  1.671101e-07
    198    209   2   0.50000    -0.1800000    0.0600000   2.494471e-04  1.671101e-07
    203    207   2   0.50000     0.0300000    0.0600000   6.128906e-05  1.496315e-08
    203    208   2   0.50000     0.0300000    0.0600000   6.128906e-05  1.496315e-08
    203    209   2   0.50000     0.0300000    0.0600000   6.128906e-05  1.496315e-08
    195    212   2   0.50000     0.1700000   -0.4000000   8.411158e-04  8.795366e-07
    195    218   2   0.50000     0.1700000    0.0300000   2.494471e-04  1.671101e-07
    195    226   2   0.50000     0.1700000   -0.1200000   1.015252e-03  1.866303e-06
    216    212   2   0.50000     0.0600000   -0.4000000   2.066619e-04  7.875431e-08
    216    218   2   0.50000     0.0600000    0.0300000   6.128906e-05  1.496315e-08
    216    226   2   0.50000     0.0600000   -0.1200000   2.494471e-04  1.671101e-07
    217    212   2   0.50000     0.0600000   -0.4000000   2.066619e-04  7.875431e-08
    217    218   2   0.50000     0.0600000    0.0300000   6.128906e-05  1.496315e-08
    217    226   2   0.50000     0.0600000   -0.1200000   2.494471e-04  1.671101e-07
    210    213   2   0.50000    -0.1200000    0.1700000   1.015252e-03  1.866303e-06
    218    213   2   0.50000     0.0300000    0.1700000   2.494471e-04  1.671101e-07
    226    213   2   0.50000    -0.1200000    0.1700000   1.015252e-03  1.866303e-06
    210    227   2   0.50000    -0.1200000    0.1700000   1.015252e-03  1.866303e-06
    210    232   2   0.50000    -0.1200000    0.0600000   2.494471e-04  1.671101e-07
    210    233   2   0.50000    -0.1200000    0.0600000   2.494471e-04  1.671101e-07
    212    227   2   0.50000    -0.4000000    0.1700000   8.411158e-04  8.795366e-07
    212    232   2   0.50000    -0.4000000    0.0600000   2.066619e-04  7.875431e-08
    212    233   2   0.50000    -0.4000000    0.0600000   2.066619e-04  7.875431e-08
    218    227   2   0.50000     0.0300000    0.1700000   2.494471e-04  1.671101e-07
    218    232   2   0.50000     0.0300000    0.0600000   6.128906e-05  1.496315e-08
    218    233   2   0.50000     0.0300000    0.0600000   6.128906e-05  1.496315e-08
    211    214   2   0.50000     0.1700000   -0.1800000   1.015252e-03  1.866303e-06
    211    215   2   0.50000     0.1700000   -0.1800000   1.015252e-03  1.866303e-06
    211    219   2   0.50000     0.1700000    0.0300000   2.494471e-04  1.671101e-07
    212    220   2   0.50000    -0.4000000    0.0600000   2.066619e-04  7.875431e-08
    212    221   2   0.50000    -0.4000000    0.0600000   2.066619e-04  7.875431e-08
    212    222   2   0.50000    -0.4000000    0.0600000   2.066619e-04  7.875431e-08
    215    220   2   0.50000    -0.1800000    0.0600000   2.494471e-04  1.671101e-07
    215    221   2   0.50000    -0.1800000    0.0600000   2.494471e-04  1.671101e-07
    215    222   2   0.50000    -0.1800000    0.0600000   2.494471e-04  1.671101e-07
    219    220   2   0.50000     0.0300000    0.0600000   6.128906e-05  1.496315e-08
    219    221   2   0.50000     0.0300000    0.0600000   6.128906e-05  1.496315e-08
    219    222   2   0.50000     0.0300000    0.0600000   6.128906e-05  1.496315e-08
    212    223   2   0.50000    -0.4000000    0.0600000   2.066619e-04  7.875431e-08
    212    224   2   0.50000    -0.4000000    0.0600000   2.066619e-04  7.875431e-08
    212    225   2   0.50000    -0.4000000    0.0600000   2.066619e-04  7.875431e-08
    214    223   2   0.50000    -0.1800000    0.0600000   2.494471e-04  1.671101e-07
    214    224   2   0.50000    -0.1800000    0.0600000   2.494471e-04  1.671101e-07
    214    225   2   0.50000    -0.1800000    0.0600000   2.494471e-04  1.671101e-07
    219    223   2   0.50000     0.0300000    0.0600000   6.128906e-05  1.496315e-08
    219    224   2   0.50000     0.0300000    0.0600000   6.128906e-05  1.496315e-08
    219    225   2   0.50000     0.0300000    0.0600000   6.128906e-05  1.496315e-08
    211    228   2   0.50000     0.1700000   -0.4000000   8.411158e-04  8.795366e-07
    211    234   2   0.50000     0.1700000    0.0300000   2.494471e-04  1.671101e-07
    211    242   2   0.50000     0.1700000   -0.1200000   1.015252e-03  1.866303e-06
    232    228   2   0.50000     0.0600000   -0.4000000   2.066619e-04  7.875431e-08
    232    234   2   0.50000     0.0600000    0.0300000   6.128906e-05  1.496315e-08
    232    242   2   0.50000     0.0600000   -0.1200000   2.494471e-04  1.671101e-07
    233    228   2   0.50000     0.0600000   -0.4000000   2.066619e-04  7.875431e-08
    233    234   2   0.50000     0.0600000    0.0300000   6.128906e-05  1.496315e-08
    233    242   2   0.50000     0.0600000   -0.1200000   2.494471e-04  1.671101e-07
    226    229   2   0.50000    -0.1200000    0.1700000   1.015252e-03  1.866303e-06
    234    229   2   0.50000     0.0300000    0.1700000   2.494471e-04  1.671101e-07
    242    229   2   0.50000    -0.1200000    0.1700000   1.015252e-03  1.866303e-06
    226    243   2   0.50000    -0.1200000    0.1700000   1.015252e-03  1.866303e-06
    226    248   2   0.50000    -0.1200000    0.0600000   2.494471e-04  1.671101e-07
    226    249   2   0.50000    -0.1200000    0.0600000   2.494471e-04  1.671101e-07
    228    243   2   0.50000    -0.4000000    0.1700000   8.411158e-04  8.795366e-07
    228    248   2   0.50000    -0.4000000    0.0600000   2.066619e-04  7.875431e-08
    228    249   2   0.50000    -0.4000000    0.0600000   2.066619e-04  7.875431e-08
    234    243   2   0.50000     0.0300000    0.1700000   2.494471e-04  1.671101e-07
    234    248   2   0.50000     0.0300000    0.0600000   6.128906e-05  1.496315e-08
    234    249   2   0.50000     0.0300000    0.0600000   6.128906e-05  1.496315e-08
    227    230   2   0.50000     0.1700000   -0.1800000   1.015252e-03  1.866303e-06
    227    231   2   0.50000     0.1700000   -0.1800000   1.015252e-03  1.866303e-06
    227    235   2   0.50000     0.1700000    0.0300000   2.494471e-04  1.671101e-07
    228    236   2   0.50000    -0.4000000    0.0600000   2.066619e-04  7.875431e-08
    228    237   2   0.50000    -0.4000000    0.0600000   2.066619e-04  7.875431e-08
    228    238   2   0.50000    -0.4000000    0.0600000   2.066619e-04  7.875431e-08
    231    236   2   0.50000    -0.1800000    0.0600000   2.494471e-04  1.671101e-07
    231    237   2   0.50000    -0.1800000    0.0600000   2.494471e-04  1.671101e-07
    231    238   2   0.50000    -0.1800000    0.0600000   2.494471e-04  1.671101e-07
    235    236   2   0.50000     0.0300000    0.0600000   6.128906e-05  1.496315e-08
    235    237   2   0.50000     0.0300000    0.0600000   6.128906e-05  1.496315e-08
    235    238   2   0.50000     0.0300000    0.0600000   6.128906e-05  1.496315e-08
    228    239   2   0.50000    -0.4000000    0.0600000   2.066619e-04  7.875431e-08
    228    240   2   0.50000    -0.4000000    0.0600000   2.066619e-04  7.875431e-08
    228    241   2   0.50000    -0.4000000    0.0600000   2.066619e-04  7.875431e-08
    230    239   2   0.50000    -0.1800000    0.0600000   2.494471e-04  1.671101e-07
    230    240   2   0.50000    -0.1800000    0.0600000   2.494471e-04  1.671101e-07
    230    241   2   0.50000    -0.1800000    0.0600000   2.494471e-04  1.671101e-07
    235    239   2   0.50000     0.0300000    0.0600000   6.128906e-05  1.496315e-08
    235    240   2   0.50000     0.0300000    0.0600000   6.128906e-05  1.496315e-08
    235    241   2   0.50000     0.0300000    0.0600000   6.128906e-05  1.496315e-08
    227    244   2   0.50000     0.1700000   -0.4000000   8.411158e-04  8.795366e-07
    227    250   2   0.50000     0.1700000    0.0300000   2.494471e-04  1.671101e-07
    227    258   2   0.50000     0.1700000   -0.1200000   1.015252e-03  1.866303e-06
    248    244   2   0.50000     0.0600000   -0.4000000   2.066619e-04  7.875431e-08
    248    250   2   0.50000     0.0600000    0.0300000   6.128906e-05  1.496315e-08
    248    258   2   0.50000     0.0600000   -0.1200000   2.494471e-04  1.671101e-07
    249    244   2   0.50000     0.0600000   -0.4000000   2.066619e-04  7.875431e-08
    249    250   2   0.50000     0.0600000    0.0300000   6.128906e-05  1.496315e-08
    249    258   2   0.50000     0.0600000   -0.1200000   2.494471e-04  1.671101e-07
    242    245   2   0.50000    -0.1200000    0.1700000   1.015252e-03  1.866303e-06
    250    245   2   0.50000     0.0300000    0.1700000   2.494471e-04  1.671101e-07
    258    245   2   0.50000    -0.1200000    0.1700000   1.015252e-03  1.866303e-06
    242    259   2   0.50000    -0.1200000    0.1700000   1.015252e-03  1.866303e-06
    242    264   2   0.50000    -0.1200000    0.0600000   2.494471e-04  1.671101e-07
    242    265   2   0.50000    -0.1200000    0.0600000   2.494471e-04  1.671101e-07
    244    259   2   0.50000    -0.4000000    0.1700000   8.411158e-04  8.795366e-07
    244    264   2   0.50000    -0.4000000    0.0600000   2.066619e-04  7.875431e-08
    244    265   2   0.50000    -0.4000000    0.0600000   2.066619e-04  7.875431e-08
    250    259   2   0.50000     0.0300000    0.1700000   2.494471e-04  1.671101e-07
    250    264   2   0.50000     0.0300000    0.0600000   6.128906e-05  1.496315e-08
    250    265   2   0.50000     0.0300000    0.0600000   6.128906e-05  1.496315e-08
    243    246   2   0.50000     0.1700000   -0.1800000   1.015252e-03  1.866303e-06
    243    247   2   0.50000     0.1700000   -0.1800000   1.015252e-03  1.866303e-06
    243    251   2   0.50000     0.1700000    0.0300000   2.494471e-04  1.671101e-07
    244    252   2   0.50000    -0.4000000    0.0600000   2.066619e-04  7.875431e-08
    244    253   2   0.50000    -0.4000000    0.0600000   2.066619e-04  7.875431e-08
    244    254   2   0.50000    -0.4000000    0.0600000   2.066619e-04  7.875431e-08
    247    252   2   0.50000    -0.1800000    0.0600000   2.494471e-04  1.671101e-07
    247    253   2   0.50000    -0.1800000    0.0600000   2.494471e-04  1.671101e-07
    247    254   2   0.50000    -0.1800000    0.0600000   2.494471e-04  1.671101e-07
    251    252   2   0.50000     0.0300000    0.0600000   6.128906e-05  1.496315e-08
    251    253   2   0.50000     0.0300000    0.0600000   6.128906e-05  1.496315e-08
    251    254   2   0.50000     0.0300000    0.0600000   6.128906e-05  1.496315e-08
    244    255   2   0.50000    -0.4000000    0.0600000   2.066619e-04  7.875431e-08
    244    256   2   0.50000    -0.4000000    0.0600000   2.066619e-04  7.875431e-08
    244    257   2   0.50000    -0.4000000    0.0600000   2.066619e-04  7.875431e-08
    246    255   2   0.50000    -0.1800000    0.0600000   2.494471e-04  1.671101e-07
    246    256   2   0.50000    -0.1800000    0.0600000   2.494471e-04  1.671101e-07
    246    257   2   0.50000    -0.1800000    0.0600000   2.494471e-04  1.671101e-07
    251    255   2   0.50000     0.0300000    0.0600000   6.128906e-05  1.496315e-08
    251    256   2   0.50000     0.0300000    0.0600000   6.128906e-05  1.496315e-08
    251    257   2   0.50000     0.0300000    0.0600000   6.128906e-05  1.496315e-08
    243    260   2   0.50000     0.1700000   -0.4000000   8.411158e-04  8.795366e-07
    243    266   2   0.50000     0.1700000    0.0300000   2.494471e-04  1.671101e-07
    243    274   2   0.50000     0.1700000   -0.1200000   1.015252e-03  1.866303e-06
    264    260   2   0.50000     0.0600000   -0.4000000   2.066619e-04  7.875431e-08
    264    266   2   0.50000     0.0600000    0.0300000   6.128906e-05  1.496315e-08
    264    274   2   0.50000     0.0600000   -0.1200000   2.494471e-04  1.671101e-07
    265    260   2   0.50000     0.0600000   -0.4000000   2.066619e-04  7.875431e-08
    265    266   2   0.50000     0.0600000    0.0300000   6.128906e-05  1.496315e-08
    265    274   2   0.50000     0.0600000   -0.1200000   2.494471e-04  1.671101e-07
    258    261   2   0.50000    -0.1200000    0.1700000   1.015252e-03  1.866303e-06
    266    261   2   0.50000     0.0300000    0.1700000   2.494471e-04  1.671101e-07
    274    261   2   0.50000    -0.1200000    0.1700000   1.015252e-03  1.866303e-06
    258    275   2   0.50000    -0.1200000    0.1700000   1.015252e-03  1.866303e-06
    258    280   2   0.50000    -0.1200000    0.0600000   2.494471e-04  1.671101e-07
    258    281   2   0.50000    -0.1200000    0.0600000   2.494471e-04  1.671101e-07
    260    275   2   0.50000    -0.4000000    0.1700000   8.411158e-04  8.795366e-07
    260    280   2   0.50000    -0.4000000    0.0600000   2.066619e-04  7.875431e-08
    260    281   2   0.50000    -0.4000000    0.0600000   2.066619e-04  7.875431e-08
    266    275   2   0.50000     0.0300000    0.1700000   2.494471e-04  1.671101e-07
    266    280   2   0.50000     0.0300000    0.0600000   6.128906e-05  1.496315e-08
    266    281   2   0.50000     0.0300000    0.0600000   6.128906e-05  1.496315e-08
    259    262   2   0.50000     0.1700000   -0.1800000   1.015252e-03  1.866303e-06
    259    263   2   0.50000     0.1700000   -0.1800000   1.015252e-03  1.866303e-06
    259    267   2   0.50000     0.1700000    0.0300000   2.494471e-04  1.671101e-07
    260    268   2   0.50000    -0.4000000    0.0600000   2.066619e-04  7.875431e-08
    260    269   2   0.50000    -0.4000000    0.0600000   2.066619e-04  7.875431e-08
    260    270   2   0.50000    -0.4000000    0.0600000   2.066619e-04  7.875431e-08
    263    268   2   0.50000    -0.1800000    0.0600000   2.494471e-04  1.671101e-07
    263    269   2   0.50000    -0.1800000    0.0600000   2.494471e-04  1.671101e-07
    263    270   2   0.50000    -0.1800000    0.0600000   2.494471e-04  1.671101e-07
    267    268   2   0.50000     0.0300000    0.0600000   6.128906e-05  1.496315e-08
    267    269   2   0.50000     0.0300000    0.0600000   6.128906e-05  1.496315e-08
    267    270   2   0.50000     0.0300000    0.0600000   6.128906e-05  1.496315e-08
    260    271   2   0.50000    -0.4000000    0.0600000   2.066619e-04  7.875431e-08
    260    272   2   0.50000    -0.4000000    0.0600000   2.066619e-04  7.875431e-08
    260    273   2   0.50000    -0.4000000    0.0600000   2.066619e-04  7.875431e-08
    262    271   2   0.50000    -0.1800000    0.0600000   2.494471e-04  1.671101e-07
    262    272   2   0.50000    -0.1800000    0.0600000   2.494471e-04  1.671101e-07
    262    273   2   0.50000    -0.1800000    0.0600000   2.494471e-04  1.671101e-07
    267    271   2   0.50000     0.0300000    0.0600000   6.128906e-05  1.496315e-08
    267    272   2   0.50000     0.0300000    0.0600000   6.128906e-05  1.496315e-08
    267    273   2   0.50000     0.0300000    0.0600000   6.128906e-05  1.496315e-08
    259    276   2   0.50000     0.1700000   -0.4000000   8.411158e-04  8.795366e-07
    259    282   2   0.50000     0.1700000    0.0300000   2.494471e-04  1.671101e-07
    259    290   2   0.50000     0.1700000   -0.1200000   1.015252e-03  1.866303e-06
    280    276   2   0.50000     0.0600000   -0.4000000   2.066619e-04  7.875431e-08
    280    282   2   0.50000     0.0600000    0.0300000   6.128906e-05  1.496315e-08
    280    290   2   0.50000     0.0600000   -0.1200000   2.494471e-04  1.671101e-07
    281    276   2   0.50000     0.0600000   -0.4000000   2.066619e-04  7.875431e-08
    281    282   2   0.50000     0.0600000    0.0300000   6.128906e-05  1.496315e-08
    281    290   2   0.50000     0.0600000   -0.1200000   2.494471e-04  1.671101e-07
    274    277   2   0.50000    -0.1200000    0.1700000   1.015252e-03  1.866303e-06
    282    277   2   0.50000     0.0300000    0.1700000   2.494471e-04  1.671101e-07
    290    277   2   0.50000    -0.1200000    0.1700000   1.015252e-03  1.866303e-06
    274    291   2   0.50000    -0.1200000    0.1700000   1.015252e-03  1.866303e-06
    274    296   2   0.50000    -0.1200000    0.0600000   2.494471e-04  1.671101e-07
    274    297   2   0.50000    -0.1200000    0.0600000   2.494471e-04  1.671101e-07
    276    291   2   0.50000    -0.4000000    0.1700000   8.411158e-04  8.795366e-07
    276    296   2   0.50000    -0.4000000    0.0600000   2.066619e-04  7.875431e-08
    276    297   2   0.50000    -0.4000000    0.0600000   2.066619e-04  7.875431e-08
    282    291   2   0.50000     0.0300000    0.1700000   2.494471e-04  1.671101e-07
    282    296   2   0.50000     0.0300000    0.0600000   6.128906e-05  1.496315e-08
    282    297   2   0.50000     0.0300000    0.0600000   6.128906e-05  1.496315e-08
    275    278   2   0.50000     0.1700000   -0.1800000   1.015252e-03  1.866303e-06
    275    279   2   0.50000     0.1700000   -0.1800000   1.015252e-03  1.866303e-06
    275    283   2   0.50000     0.1700000    0.0300000   2.494471e-04  1.671101e-07
    276    284   2   0.50000    -0.4000000    0.0600000   2.066619e-04  7.875431e-08
    276    285   2   0.50000    -0.4000000    0.0600000   2.066619e-04  7.875431e-08
    276    286   2   0.50000    -0.4000000    0.0600000   2.066619e-04  7.875431e-08
    279    284   2   0.50000    -0.1800000    0.0600000   2.494471e-04  1.671101e-07
    279    285   2   0.50000    -0.1800000    0.0600000   2.494471e-04  1.671101e-07
    279    286   2   0.50000    -0.1800000    0.0600000   2.494471e-04  1.671101e-07
    283    284   2   0.50000     0.0300000    0.0600000   6.128906e-05  1.496315e-08
    283    285   2   0.50000     0.0300000    0.0600000   6.128906e-05  1.496315e-08
    283    286   2   0.50000     0.0300000    0.0600000   6.128906e-05  1.496315e-08
    276    287   2   0.50000    -0.4000000    0.0600000   2.066619e-04  7.875431e-08
    276    288   2   0.50000    -0.4000000    0.0600000   2.066619e-04  7.875431e-08
    276    289   2   0.50000    -0.4000000    0.0600000   2.066619e-04  7.875431e-08
    278    287   2   0.50000    -0.1800000    0.0600000   2.494471e-04  1.671101e-07
    278    288   2   0.50000    -0.1800000    0.0600000   2.494471e-04  1.671101e-07
    278    289   2   0.50000    -0.1800000    0.0600000   2.494471e-04  1.671101e-07
    283    287   2   0.50000     0.0300000    0.0600000   6.128906e-05  1.496315e-08
    283    288   2   0.50000     0.0300000    0.0600000   6.128906e-05  1.496315e-08
    283    289   2   0.50000     0.0300000    0.0600000   6.128906e-05  1.496315e-08
    275    292   2   0.50000     0.1700000   -0.4000000   8.411158e-04  8.795366e-07
    275    298   2   0.50000     0.1700000    0.0300000   2.494471e-04  1.671101e-07
    275    306   2   0.50000     0.1700000   -0.1200000   1.015252e-03  1.866303e-06
    296    292   2   0.50000     0.0600000   -0.4000000   2.066619e-04  7.875431e-08
    296    298   2   0.50000     0.0600000    0.0300000   6.128906e-05  1.496315e-08
    296    306   2   0.50000     0.0600000   -0.1200000   2.494471e-04  1.671101e-07
    297    292   2   0.50000     0.0600000   -0.4000000   2.066619e-04  7.875431e-08
    297    298   2   0.50000     0.0600000    0.0300000   6.128906e-05  1.496315e-08
    297    306   2   0.50000     0.0600000   -0.1200000   2.494471e-04  1.671101e-07
    290    293   2   0.50000    -0.1200000    0.1700000   1.015252e-03  1.866303e-06
    298    293   2   0.50000     0.0300000    0.1700000   2.494471e-04  1.671101e-07
    306    293   2   0.50000    -0.1200000    0.1700000   1.015252e-03  1.866303e-06
    290    307   2   0.50000    -0.1200000    0.1400000   1.015252e-03  1.866303e-06
    290    312   2   0.50000    -0.1200000    0.0600000   2.494471e-04  1.671101e-07
    290    313   2   0.50000    -0.1200000    0.0600000   2.494471e-04  1.671101e-07
    292    307   2   0.50000    -0.4000000    0.1400000   8.411158e-04  8.795366e-07
    292    312   2   0.50000    -0.4000000    0.0600000   2.066619e-04  7.875431e-08
    292    313   2   0.50000    -0.4000000    0.0600000   2.066619e-04  7.875431e-08
    298    307   2   0.50000     0.0300000    0.1400000   2.494471e-04  1.671101e-07
    298    312   2   0.50000     0.0300000    0.0600000   6.128906e-05  1.496315e-08
    298    313   2   0.50000     0.0300000    0.0600000   6.128906e-05  1.496315e-08
    291    294   2   0.50000     0.1700000   -0.1800000   1.015252e-03  1.866303e-06
    291    295   2   0.50000     0.1700000   -0.1800000   1.015252e-03  1.866303e-06
    291    299   2   0.50000     0.1700000    0.0300000   2.494471e-04  1.671101e-07
    292    300   2   0.50000    -0.4000000    0.0600000   2.066619e-04  7.875431e-08
    292    301   2   0.50000    -0.4000000    0.0600000   2.066619e-04  7.875431e-08
    292    302   2   0.50000    -0.4000000    0.0600000   2.066619e-04  7.875431e-08
    295    300   2   0.50000    -0.1800000    0.0600000   2.494471e-04  1.671101e-07
    295    301   2   0.50000    -0.1800000    0.0600000   2.494471e-04  1.671101e-07
    295    302   2   0.50000    -0.1800000    0.0600000   2.494471e-04  1.671101e-07
    299    300   2   0.50000     0.0300000    0.0600000   6.128906e-05  1.496315e-08
    299    301   2   0.50000     0.0300000    0.0600000   6.128906e-05  1.496315e-08
    299    302   2   0.50000     0.0300000    0.0600000   6.128906e-05  1.496315e-08
    292    303   2   0.50000    -0.4000000    0.0600000   2.066619e-04  7.875431e-08
    292    304   2   0.50000    -0.4000000    0.0600000   2.066619e-04  7.875431e-08
    292    305   2   0.50000    -0.4000000    0.0600000   2.066619e-04  7.875431e-08
    294    303   2   0.50000    -0.1800000    0.0600000   2.494471e-04  1.671101e-07
    294    304   2   0.50000    -0.1800000    0.0600000   2.494471e-04  1.671101e-07
    294    305   2   0.50000    -0.1800000    0.0600000   2.494471e-04  1.671101e-07
    299    303   2   0.50000     0.0300000    0.0600000   6.128906e-05  1.496315e-08
    299    304   2   0.50000     0.0300000    0.0600000   6.128906e-05  1.496315e-08
    299    305   2   0.50000     0.0300000    0.0600000   6.128906e-05  1.496315e-08
    291    308   2   0.50000     0.1700000   -0.4000000   8.411158e-04  8.795366e-07
    291    314   2   0.50000     0.1700000    0.0300000   2.494471e-04  1.671101e-07
    291    322   2   0.50000     0.1700000    0.0300000   2.494471e-04  1.671101e-07
    312    308   2   0.50000     0.0600000   -0.4000000   2.066619e-04  7.875431e-08
    312    314   2   0.50000     0.0600000    0.0300000   6.128906e-05  1.496315e-08
    312    322   2   0.50000     0.0600000    0.0300000   6.128906e-05  1.496315e-08
    313    308   2   0.50000     0.0600000   -0.4000000   2.066619e-04  7.875431e-08
    313    314   2   0.50000     0.0600000    0.0300000   6.128906e-05  1.496315e-08
    313    322   2   0.50000     0.0600000    0.0300000   6.128906e-05  1.496315e-08
    306    309   2   0.50000    -0.1200000    0.1700000   1.015252e-03  1.866303e-06
    314    309   2   0.50000     0.0300000    0.1700000   2.494471e-04  1.671101e-07
    322    309   2   0.50000     0.0300000    0.1700000   2.494471e-04  1.671101e-07
    307    310   2   0.50000     0.1400000   -0.1800000   1.015252e-03  1.866303e-06
    307    311   2   0.50000     0.1400000   -0.1800000   1.015252e-03  1.866303e-06
    307    315   2   0.50000     0.1400000    0.0300000   2.494471e-04  1.671101e-07
    308    316   2   0.50000    -0.4000000    0.0600000   2.066619e-04  7.875431e-08
    308    317   2   0.50000    -0.4000000    0.0600000   2.066619e-04  7.875431e-08
    308    318   2   0.50000    -0.4000000    0.0600000   2.066619e-04  7.875431e-08
    311    316   2   0.50000    -0.1800000    0.0600000   2.494471e-04  1.671101e-07
    311    317   2   0.50000    -0.1800000    0.0600000   2.494471e-04  1.671101e-07
    311    318   2   0.50000    -0.1800000    0.0600000   2.494471e-04  1.671101e-07
    315    316   2   0.50000     0.0300000    0.0600000   6.128906e-05  1.496315e-08
    315    317   2   0.50000     0.0300000    0.0600000   6.128906e-05  1.496315e-08
    315    318   2   0.50000     0.0300000    0.0600000   6.128906e-05  1.496315e-08
    308    319   2   0.50000    -0.4000000    0.0600000   2.066619e-04  7.875431e-08
    308    320   2   0.50000    -0.4000000    0.0600000   2.066619e-04  7.875431e-08
    308    321   2   0.50000    -0.4000000    0.0600000   2.066619e-04  7.875431e-08
    310    319   2   0.50000    -0.1800000    0.0600000   2.494471e-04  1.671101e-07
    310    320   2   0.50000    -0.1800000    0.0600000   2.494471e-04  1.671101e-07
    310    321   2   0.50000    -0.1800000    0.0600000   2.494471e-04  1.671101e-07
    315    319   2   0.50000     0.0300000    0.0600000   6.128906e-05  1.496315e-08
    315    320   2   0.50000     0.0300000    0.0600000   6.128906e-05  1.496315e-08
    315    321   2   0.50000     0.0300000    0.0600000   6.128906e-05  1.496315e-08

[ angles ]
; ai  aj  ak
      2      1      7   1    110.7000    313.8000
      2      1      8   1    110.7000    313.8000
      2      1     17   1    110.7000    313.8000
      7      1      8   1    107.8000    276.1440
      7      1     17   1    107.8000    276.1440
      8      1     17   1    107.8000    276.1440
      1      2      3   1    109.5000    418.4000
      1      2      9   1    110.7000    313.8000
      1      2     18   1    112.7000    488.2728
      3      2      9   1    109.5000    292.8800
      3      2     18   1    109.5000    418.4000
      9      2     18   1    110.7000    313.8000
      2      3      4   1    109.5000    502.0800
      3      4      5   1    109.5000    418.4000
      3      4      6   1    109.5000    418.4000
      3      4     10   1    109.5000    292.8800
      5      4      6   1    112.7000    488.2728
      5      4     10   1    110.7000    313.8000
      6      4     10   1    110.7000    313.8000
      4      5     11   1    110.7000    313.8000
      4      5     12   1    110.7000    313.8000
      4      5     13   1    110.7000    313.8000
     11      5     12   1    107.8000    276.1440
     11      5     13   1    107.8000    276.1440
     12      5     13   1    107.8000    276.1440
      4      6     14   1    110.7000    313.8000
      4      6     15   1    110.7000    313.8000
      4      6     16   1    110.7000    313.8000
     14      6     15   1    107.8000    276.1440
     14      6     16   1    107.8000    276.1440
     15      6     16   1    107.8000    276.1440
      2     18     19   1    112.7000    488.2728
      2     18     24   1    110.7000    313.8000
      2     18     25   1    110.7000    313.8000
     19     18     24   1    110.7000    313.8000
     19     18     25   1    110.7000    313.8000
     24     18     25   1    107.8000    276.1440
     18     19     20   1    109.5000    418.4000
     18     19     26   1    110.7000    313.8000
     18     19     34   1    112.7000    488.2728
     20     19     26   1    109.5000    292.8800
     20     19     34   1    109.5000    418.4000
     26     19     34   1    110.7000    313.8000
     19     20     21   1    109.5000    502.0800
     20     21     22   1    109.5000    418.4000
     20     21     23   1    109.5000    418.4000
     20     21     27   1    109.5000    292.8800
     22     21     23   1    112.7000    488.2728
     22     21     27   1    110.7000    313.8000
     23     21     27   1    110.7000    313.8000
     21     22     28   1    110.7000    313.8000
     21     22     29   1    110.7000    313.8000
     21     22     30   1    110.7000    313.8000
     28     22     29   1    107.8000    276.1440
     28     22     30   1    107.8000    276.1440
     29     22     30   1    107.8000    276.1440
     21     23     31   1    110.7000    313.8000
     21     23     32   1    110.7000    313.8000
     21     23     33   1    110.7000    313.8000
     31     23     32   1    107.8000    276.1440
     31     23     33   1    107.8000    276.1440
     32     23     33   1    107.8000    276.1440
     19     34     35   1    112.7000    488.2728
     19     34     40   1    110.7000    313.8000
     19     34     41   1    110.7000    313.8000
     35     34     40   1    110.7000    313.8000
     35     34     41   1    110.7000    313.8000
     40     34     41   1    107.8000    276.1440
     34     35     36   1    109.5000    418.4000
     34     35     42   1    110.7000    313.8000
     34     35     50   1    112.7000    488.2728
     36     35     42   1    109.5000    292.8800
     36     35     50   1    109.5000    418.4000
     42     35     50   1    110.7000    313.8000
     35     36     37   1    109.5000    502.0800
     36     37     38   1    109.5000    418.4000
     36     37     39   1    109.5000    418.4000
     36     37     43   1    109.5000    292.8800
     38     37     39   1    112.7000    488.2728
     38     37     43   1    110.7000    313.8000
     39     37     43   1    110.7000    313.8000
     37     38     44   1    110.7000    313.8000
     37     38     45   1    110.7000    313.8000
     37     38     46   1    110.7000    313.8000
     44     38     45   1    107.8000    276.1440
     44     38     46   1    107.8000    276.1440
     45     38     46   1    107.8000    276.1440
     37     39     47   1    110.7000    313.8000
     37     39     48   1    110.7000    313.8000
     37     39     49   1    110.7000    313.8000
     47     39     48   1    107.8000    276.1440
     47     39     49   1    107.8000    276.1440
     48     39     49   1    107.8000    276.1440
     35     50     51   1    112.7000    488.2728
     35     50     56   1    110.7000    313.8000
     35     50     57   1    110.7000    313.8000
     51     50     56   1    110.7000    313.8000
     51     50     57   1    110.7000    313.8000
     56     50     57   1    107.8000    276.1440
     50     51     52   1    109.5000    418.4000
     50     51     58   1    110.7000    313.8000
     50     51     66   1    112.7000    488.2728
     52     51     58   1    109.5000    292.8800
     52     51     66   1    109.5000    418.4000
     58     51     66   1    110.7000    313.8000
     51     52     53   1    109.5000    502.0800
     52     53     54   1    109.5000    418.4000
     52     53     55   1    109.5000    418.4000
     52     53     59   1    109.5000    292.8800
     54     53     55   1    112.7000    488.2728
     54     53     59   1    110.7000    313.8000
     55     53     59   1    110.7000    313.8000
     53     54     60   1    110.7000    313.8000
     53     54     61   1    110.7000    313.8000
     53     54     62   1    110.7000    313.8000
     60     54     61   1    107.8000    276.1440
     60     54     62   1    107.8000    276.1440
     61     54     62   1    107.8000    276.1440
     53     55     63   1    110.7000    313.8000
     53     55     64   1    110.7000    313.8000
     53     55     65   1    110.7000    313.8000
     63     55     64   1    107.8000    276.1440
     63     55     65   1    107.8000    276.1440
     64     55     65   1    107.8000    276.1440
     51     66     67   1    112.7000    488.2728
     51     66     72   1    110.7000    313.8000
     51     66     73   1    110.7000    313.8000
     67     66     72   1    110.7000    313.8000
     67     66     73   1    110.7000    313.8000
     72     66     73   1    107.8000    276.1440
     66     67     68   1    109.5000    418.4000
     66     67     74   1    110.7000    313.8000
     66     67     82   1    112.7000    488.2728
     68     67     74   1    109.5000    292.8800
     68     67     82   1    109.5000    418.4000
     74     67     82   1    110.7000    313.8000
     67     68     69   1    109.5000    502.0800
     68     69     70   1    109.5000    418.4000
     68     69     71   1    109.5000    418.4000
     68     69     75   1    109.5000    292.8800
     70     69     71   1    112.7000    488.2728
     70     69     75   1    110.7000    313.8000
     71     69     75   1    110.7000    313.8000
     69     70     76   1    110.7000    313.8000
     69     70     77   1    110.7000    313.8000
     69     70     78   1    110.7000    313.8000
     76     70     77   1    107.8000    276.1440
     76     70     78   1    107.8000    276.1440
     77     70     78   1    107.8000    276.1440
     69     71     79   1    110.7000    313.8000
     69     71     80   1    110.7000    313.8000
     69     71     81   1    110.7000    313.8000
     79     71     80   1    107.8000    276.1440
     79     71     81   1    107.8000    276.1440
     80     71     81   1    107.8000    276.1440
     67     82     83   1    112.7000    488.2728
     67     82     88   1    110.7000    313.8000
     67     82     89   1    110.7000    313.8000
     83     82     88   1    110.7000    313.8000
     83     82     89   1    110.7000    313.8000
     88     82     89   1    107.8000    276.1440
     82     83     84   1    109.5000    418.4000
     82     83     90   1    110.7000    313.8000
     82     83     98   1    112.7000    488.2728
     84     83     90   1    109.5000    292.8800
     84     83     98   1    109.5000    418.4000
     90     83     98   1    110.7000    313.8000
     83     84     85   1    109.5000    502.0800
     84     85     86   1    109.5000    418.4000
     84     85     87   1    109.5000    418.4000
     84     85     91   1    109.5000    292.8800
     86     85     87   1    112.7000    488.2728
     86     85     91   1    110.7000    313.8000
     87     85     91   1    110.7000    313.8000
     85     86     92   1    110.7000    313.8000
     85     86     93   1    110.7000    313.8000
     85     86     94   1    110.7000    313.8000
     92     86     93   1    107.8000    276.1440
     92     86     94   1    107.8000    276.1440
     93     86     94   1    107.8000    276.1440
     85     87     95   1    110.7000    313.8000
     85     87     96   1    110.7000    313.8000
     85     87     97   1    110.7000    313.8000
     95     87     96   1    107.8000    276.1440
     95     87     97   1    107.8000    276.1440
     96     87     97   1    107.8000    276.1440
     83     98     99   1    112.7000    488.2728
     83     98    104   1    110.7000    313.8000
     83     98    105   1    110.7000    313.8000
     99     98    104   1    110.7000    313.8000
     99     98    105   1    110.7000    313.8000
    104     98    105   1    107.8000    276.1440
     98     99    100   1    109.5000    418.4000
     98     99    106   1    110.7000    313.8000
     98     99    114   1    112.7000    488.2728
    100     99    106   1    109.5000    292.8800
    100     99    114   1    109.5000    418.4000
    106     99    114   1    110.7000    313.8000
     99    100    101   1    109.5000    502.0800
    100    101    102   1    109.5000    418.4000
    100    101    103   1    109.5000    418.4000
    100    101    107   1    109.5000    292.8800
    102    101    103   1    112.7000    488.2728
    102    101    107   1    110.7000    313.8000
    103    101    107   1    110.7000    313.8000
    101    102    108   1    110.7000    313.8000
    101    102    109   1    110.7000    313.8000
    101    102    110   1    110.7000    313.8000
    108    102    109   1    107.8000    276.1440
    108    102    110   1    107.8000    276.1440
    109    102    110   1    107.8000    276.1440
    101    103    111   1    110.7000    313.8000
    101    103    112   1    110.7000    313.8000
    101    103    113   1    110.7000    313.8000
    111    103    112   1    107.8000    276.1440
    111    103    113   1    107.8000    276.1440
    112    103    113   1    107.8000    276.1440
     99    114    115   1    112.7000    488.2728
     99    114    120   1    110.7000    313.8000
     99    114    121   1    110.7000    313.8000
    115    114    120   1    110.7000    313.8000
    115    114    121   1    110.7000    313.8000
    120    114    121   1    107.8000    276.1440
    114    115    116   1    109.5000    418.4000
    114    115    122   1    110.7000    313.8000
    114    115    130   1    112.7000    488.2728
    116    115    122   1    109.5000    292.8800
    116    115    130   1    109.5000    418.4000
    122    115    130   1    110.7000    313.8000
    115    116    117   1    109.5000    502.0800
    116    117    118   1    109.5000    418.4000
    116    117    119   1    109.5000    418.4000
    116    117    123   1    109.5000    292.8800
    118    117    119   1    112.7000    488.2728
    118    117    123   1    110.7000    313.8000
    119    117    123   1    110.7000    313.8000
    117    118    124   1    110.7000    313.8000
    117    118    125   1    110.7000    313.8000
    117    118    126   1    110.7000    313.8000
    124    118    125   1    107.8000    276.1440
    124    118    126   1    107.8000    276.1440
    125    118    126   1    107.8000    276.1440
    117    119    127   1    110.7000    313.8000
    117    119    128   1    110.7000    313.8000
    117    119    129   1    110.7000    313.8000
    127    119    128   1    107.8000    276.1440
    127    119    129   1    107.8000    276.1440
    128    119    129   1    107.8000    276.1440
    115    130    131   1    112.7000    488.2728
    115    130    136   1    110.7000    313.8000
    115    130    137   1    110.7000    313.8000
    131    130    136   1    110.7000    313.8000
    131    130    137   1    110.7000    313.8000
    136    130    137   1    107.8000    276.1440
    130    131    132   1    109.5000    418.4000
    130    131    138   1    110.7000    313.8000
    130    131    146   1    112.7000    488.2728
    132    131    138   1    109.5000    292.8800
    132    131    146   1    109.5000    418.4000
    138    131    146   1    110.7000    313.8000
    131    132    133   1    109.5000    502.0800
    132    133    134   1    109.5000    418.4000
    132    133    135   1    109.5000    418.4000
    132    133    139   1    109.5000    292.8800
    134    133    135   1    112.7000    488.2728
    134    133    139   1    110.7000    313.8000
    135    133    139   1    110.7000    313.8000
    133    134    140   1    110.7000    313.8000
    133    134    141   1    110.7000    313.8000
    133    134    142   1    110.7000    313.8000
    140    134    141   1    107.8000    276.1440
    140    134    142   1    107.8000    276.1440
    141    134    142   1    107.8000    276.1440
    133    135    143   1    110.7000    313.8000
    133    135    144   1    110.7000    313.8000
    133    135    145   1    110.7000    313.8000
    143    135    144   1    107.8000    276.1440
    143    135    145   1    107.8000    276.1440
    144    135    145   1    107.8000    276.1440
    131    146    147   1    112.7000    488.2728
    131    146    152   1    110.7000    313.8000
    131    146    153   1    110.7000    313.8000
    147    146    152   1    110.7000    313.8000
    147    146    153   1    110.7000    313.8000
    152    146    153   1    107.8000    276.1440
    146    147    148   1    109.5000    418.4000
    146    147    154   1    110.7000    313.8000
    146    147    162   1    112.7000    488.2728
    148    147    154   1    109.5000    292.8800
    148    147    162   1    109.5000    418.4000
    154    147    162   1    110.7000    313.8000
    147    148    149   1    109.5000    502.0800
    148    149    150   1    109.5000    418.4000
    148    149    151   1    109.5000    418.4000
    148    149    155   1    109.5000    292.8800
    150    149    151   1    112.7000    488.2728
    150    149    155   1    110.7000    313.8000
    151    149    155   1    110.7000    313.8000
    149    150    156   1    110.7000    313.8000
    149    150    157   1    110.7000    313.8000
    149    150    158   1    110.7000    313.8000
    156    150    157   1    107.8000    276.1440
    156    150    158   1    107.8000    276.1440
    157    150    158   1    107.8000    276.1440
    149    151    159   1    110.7000    313.8000
    149    151    160   1    110.7000    313.8000
    149    151    161   1    110.7000    313.8000
    159    151    160   1    107.8000    276.1440
    159    151    161   1    107.8000    276.1440
    160    151    161   1    107.8000    276.1440
    147    162    163   1    112.7000    488.2728
    147    162    168   1    110.7000    313.8000
    147    162    169   1    110.7000    313.8000
    163    162    168   1    110.7000    313.8000
    163    162    169   1    110.7000    313.8000
    168    162    169   1    107.8000    276.1440
    162    163    164   1    109.5000    418.4000
    162    163    170   1    110.7000    313.8000
    162    163    178   1    112.7000    488.2728
    164    163    170   1    109.5000    292.8800
    164    163    178   1    109.5000    418.4000
    170    163    178   1    110.7000    313.8000
    163    164    165   1    109.5000    502.0800
    164    165    166   1    109.5000    418.4000
    164    165    167   1    109.5000    418.4000
    164    165    171   1    109.5000    292.8800
    166    165    167   1    112.7000    488.2728
    166    165    171   1    110.7000    313.8000
    167    165    171   1    110.7000    313.8000
    165    166    172   1    110.7000    313.8000
    165    166    173   1    110.7000    313.8000
    165    166    174   1    110.7000    313.8000
    172    166    173   1    107.8000    276.1440
    172    166    174   1    107.8000    276.1440
    173    166    174   1    107.8000    276.1440
    165    167    175   1    110.7000    313.8000
    165    167    176   1    110.7000    313.8000
    165    167    177   1    110.7000    313.8000
    175    167    176   1    107.8000    276.1440
    175    167    177   1    107.8000    276.1440
    176    167    177   1    107.8000    276.1440
    163    178    179   1    112.7000    488.2728
    163    178    184   1    110.7000    313.8000
    163    178    185   1    110.7000    313.8000
    179    178    184   1    110.7000    313.8000
    179    178    185   1    110.7000    313.8000
    184    178    185   1    107.8000    276.1440
    178    179    180   1    109.5000    418.4000
    178    179    186   1    110.7000    313.8000
    178    179    194   1    112.7000    488.2728
    180    179    186   1    109.5000    292.8800
    180    179    194   1    109.5000    418.4000
    186    179    194   1    110.7000    313.8000
    179    180    181   1    109.5000    502.0800
    180    181    182   1    109.5000    418.4000
    180    181    183   1    109.5000    418.4000
    180    181    187   1    109.5000    292.8800
    182    181    183   1    112.7000    488.2728
    182    181    187   1    110.7000    313.8000
    183    181    187   1    110.7000    313.8000
    181    182    188   1    110.7000    313.8000
    181    182    189   1    110.7000    313.8000
    181    182    190   1    110.7000    313.8000
    188    182    189   1    107.8000    276.1440
    188    182    190   1    107.8000    276.1440
    189    182    190   1    107.8000    276.1440
    181    183    191   1    110.7000    313.8000
    181    183    192   1    110.7000    313.8000
    181    183    193   1    110.7000    313.8000
    191    183    192   1    107.8000    276.1440
    191    183    193   1    107.8000    276.1440
    192    183    193   1    107.8000    276.1440
    179    194    195   1    112.7000    488.2728
    179    194    200   1    110.7000    313.8000
    179    194    201   1    110.7000    313.8000
    195    194    200   1    110.7000    313.8000
    195    194    201   1    110.7000    313.8000
    200    194    201   1    107.8000    276.1440
    194    195    196   1    109.5000    418.4000
    194    195    202   1    110.7000    313.8000
    194    195    210   1    112.7000    488.2728
    196    195    202   1    109.5000    292.8800
    196    195    210   1    109.5000    418.4000
    202    195    210   1    110.7000    313.8000
    195    196    197   1    109.5000    502.0800
    196    197    198   1    109.5000    418.4000
    196    197    199   1    109.5000    418.4000
    196    197    203   1    109.5000    292.8800
    198    197    199   1    112.7000    488.2728
    198    197    203   1    110.7000    313.8000
    199    197    203   1    110.7000    313.8000
    197    198    204   1    110.7000    313.8000
    197    198    205   1    110.7000    313.8000
    197    198    206   1    110.7000    313.8000
    204    198    205   1    107.8000    276.1440
    204    198    206   1    107.8000    276.1440
    205    198    206   1    107.8000    276.1440
    197    199    207   1    110.7000    313.8000
    197    199    208   1    110.7000    313.8000
    197    199    209   1    110.7000    313.8000
    207    199    208   1    107.8000    276.1440
    207    199    209   1    107.8000    276.1440
    208    199    209   1    107.8000    276.1440
    195    210    211   1    112.7000    488.2728
    195    210    216   1    110.7000    313.8000
    195    210    217   1    110.7000    313.8000
    211    210    216   1    110.7000    313.8000
    211    210    217   1    110.7000    313.8000
    216    210    217   1    107.8000    276.1440
    210    211    212   1    109.5000    418.4000
    210    211    218   1    110.7000    313.8000
    210    211    226   1    112.7000    488.2728
    212    211    218   1    109.5000    292.8800
    212    211    226   1    109.5000    418.4000
    218    211    226   1    110.7000    313.8000
    211    212    213   1    109.5000    502.0800
    212    213    214   1    109.5000    418.4000
    212    213    215   1    109.5000    418.4000
    212    213    219   1    109.5000    292.8800
    214    213    215   1    112.7000    488.2728
    214    213    219   1    110.7000    313.8000
    215    213    219   1    110.7000    313.8000
    213    214    220   1    110.7000    313.8000
    213    214    221   1    110.7000    313.8000
    213    214    222   1    110.7000    313.8000
    220    214    221   1    107.8000    276.1440
    220    214    222   1    107.8000    276.1440
    221    214    222   1    107.8000    276.1440
    213    215    223   1    110.7000    313.8000
    213    215    224   1    110.7000    313.8000
    213    215    225   1    110.7000    313.8000
    223    215    224   1    107.8000    276.1440
    223    215    225   1    107.8000    276.1440
    224    215    225   1    107.8000    276.1440
    211    226    227   1    112.7000    488.2728
    211    226    232   1    110.7000    313.8000
    211    226    233   1    110.7000    313.8000
    227    226    232   1    110.7000    313.8000
    227    226    233   1    110.7000    313.8000
    232    226    233   1    107.8000    276.1440
    226    227    228   1    109.5000    418.4000
    226    227    234   1    110.7000    313.8000
    226    227    242   1    112.7000    488.2728
    228    227    234   1    109.5000    292.8800
    228    227    242   1    109.5000    418.4000
    234    227    242   1    110.7000    313.8000
    227    228    229   1    109.5000    502.0800
    228    229    230   1    109.5000    418.4000
    228    229    231   1    109.5000    418.4000
    228    229    235   1    109.5000    292.8800
    230    229    231   1    112.7000    488.2728
    230    229    235   1    110.7000    313.8000
    231    229    235   1    110.7000    313.8000
    229    230    236   1    110.7000    313.8000
    229    230    237   1    110.7000    313.8000
    229    230    238   1    110.7000    313.8000
    236    230    237   1    107.8000    276.1440
    236    230    238   1    107.8000    276.1440
    237    230    238   1    107.8000    276.1440
    229    231    239   1    110.7000    313.8000
    229    231    240   1    110.7000    313.8000
    229    231    241   1    110.7000    313.8000
    239    231    240   1    107.8000    276.1440
    239    231    241   1    107.8000    276.1440
    240    231    241   1    107.8000    276.1440
    227    242    243   1    112.7000    488.2728
    227    242    248   1    110.7000    313.8000
    227    242    249   1    110.7000    313.8000
    243    242    248   1    110.7000    313.8000
    243    242    249   1    110.7000    313.8000
    248    242    249   1    107.8000    276.1440
    242    243    244   1    109.5000    418.4000
    242    243    250   1    110.7000    313.8000
    242    243    258   1    112.7000    488.2728
    244    243    250   1    109.5000    292.8800
    244    243    258   1    109.5000    418.4000
    250    243    258   1    110.7000    313.8000
    243    244    245   1    109.5000    502.0800
    244    245    246   1    109.5000    418.4000
    244    245    247   1    109.5000    418.4000
    244    245    251   1    109.5000    292.8800
    246    245    247   1    112.7000    488.2728
    246    245    251   1    110.7000    313.8000
    247    245    251   1    110.7000    313.8000
    245    246    252   1    110.7000    313.8000
    245    246    253   1    110.7000    313.8000
    245    246    254   1    110.7000    313.8000
    252    246    253   1    107.8000    276.1440
    252    246    254   1    107.8000    276.1440
    253    246    254   1    107.8000    276.1440
    245    247    255   1    110.7000    313.8000
    245    247    256   1    110.7000    313.8000
    245    247    257   1    110.7000    313.8000
    255    247    256   1    107.8000    276.1440
    255    247    257   1    107.8000    276.1440
    256    247    257   1    107.8000    276.1440
    243    258    259   1    112.7000    488.2728
    243    258    264   1    110.7000    313.8000
    243    258    265   1    110.7000    313.8000
    259    258    264   1    110.7000    313.8000
    259    258    265   1    110.7000    313.8000
    264    258    265   1    107.8000    276.1440
    258    259    260   1    109.5000    418.4000
    258    259    266   1    110.7000    313.8000
    258    259    274   1    112.7000    488.2728
    260    259    266   1    109.5000    292.8800
    260    259    274   1    109.5000    418.4000
    266    259    274   1    110.7000    313.8000
    259    260    261   1    109.5000    502.0800
    260    261    262   1    109.5000    418.4000
    260    261    263   1    109.5000    418.4000
    260    261    267   1    109.5000    292.8800
    262    261    263   1    112.7000    488.2728
    262    261    267   1    110.7000    313.8000
    263    261    267   1    110.7000    313.8000
    261    262    268   1    110.7000    313.8000
    261    262    269   1    110.7000    313.8000
    261    262    270   1    110.7000    313.8000
    268    262    269   1    107.8000    276.1440
    268    262    270   1    107.8000    276.1440
    269    262    270   1    107.8000    276.1440
    261    263    271   1    110.7000    313.8000
    261    263    272   1    110.7000    313.8000
    261    263    273   1    110.7000    313.8000
    271    263    272   1    107.8000    276.1440
    271    263    273   1    107.8000    276.1440
    272    263    273   1    107.8000    276.1440
    259    274    275   1    112.7000    488.2728
    259    274    280   1    110.7000    313.8000
    259    274    281   1    110.7000    313.8000
    275    274    280   1    110.7000    313.8000
    275    274    281   1    110.7000    313.8000
    280    274    281   1    107.8000    276.1440
    274    275    276   1    109.5000    418.4000
    274    275    282   1    110.7000    313.8000
    274    275    290   1    112.7000    488.2728
    276    275    282   1    109.5000    292.8800
    276    275    290   1    109.5000    418.4000
    282    275    290   1    110.7000    313.8000
    275    276    277   1    109.5000    502.0800
    276    277    278   1    109.5000    418.4000
    276    277    279   1    109.5000    418.4000
    276    277    283   1    109.5000    292.8800
    278    277    279   1    112.7000    488.2728
    278    277    283   1    110.7000    313.8000
    279    277    283   1    110.7000    313.8000
    277    278    284   1    110.7000    313.8000
    277    278    285   1    110.7000    313.8000
    277    278    286   1    110.7000    313.8000
    284    278    285   1    107.8000    276.1440
    284    278    286   1    107.8000    276.1440
    285    278    286   1    107.8000    276.1440
    277    279    287   1    110.7000    313.8000
    277    279    288   1    110.7000    313.8000
    277    279    289   1    110.7000    313.8000
    287    279    288   1    107.8000    276.1440
    287    279    289   1    107.8000    276.1440
    288    279    289   1    107.8000    276.1440
    275    290    291   1    112.7000    488.2728
    275    290    296   1    110.7000    313.8000
    275    290    297   1    110.7000    313.8000
    291    290    296   1    110.7000    313.8000
    291    290    297   1    110.7000    313.8000
    296    290    297   1    107.8000    276.1440
    290    291    292   1    109.5000    418.4000
    290    291    298   1    110.7000    313.8000
    290    291    306   1    112.7000    488.2728
    292    291    298   1    109.5000    292.8800
    292    291    306   1    109.5000    418.4000
    298    291    306   1    110.7000    313.8000
    291    292    293   1    109.5000    502.0800
    292    293    294   1    109.5000    418.4000
    292    293    295   1    109.5000    418.4000
    292    293    299   1    109.5000    292.8800
    294    293    295   1    112.7000    488.2728
    294    293    299   1    110.7000    313.8000
    295    293    299   1    110.7000    313.8000
    293    294    300   1    110.7000    313.8000
    293    294    301   1    110.7000    313.8000
    293    294    302   1    110.7000    313.8000
    300    294    301   1    107.8000    276.1440
    300    294    302   1    107.8000    276.1440
    301    294    302   1    107.8000    276.1440
    293    295    303   1    110.7000    313.8000
    293    295    304   1    110.7000    313.8000
    293    295    305   1    110.7000    313.8000
    303    295    304   1    107.8000    276.1440
    303    295    305   1    107.8000    276.1440
    304    295    305   1    107.8000    276.1440
    291    306    307   1    112.7000    488.2728
    291    306    312   1    110.7000    313.8000
    291    306    313   1    110.7000    313.8000
    307    306    312   1    110.7000    313.8000
    307    306    313   1    110.7000    313.8000
    312    306    313   1    107.8000    276.1440
    306    307    308   1    109.5000    418.4000
    306    307    314   1    110.7000    313.8000
    306    307    322   1    110.7000    313.8000
    308    307    314   1    109.5000    292.8800
    308    307    322   1    109.5000    292.8800
    314    307    322   1    107.8000    276.1440
    307    308    309   1    109.5000    502.0800
    308    309    310   1    109.5000    418.4000
    308    309    311   1    109.5000    418.4000
    308    309    315   1    109.5000    292.8800
    310    309    311   1    112.7000    488.2728
    310    309    315   1    110.7000    313.8000
    311    309    315   1    110.7000    313.8000
    309    310    316   1    110.7000    313.8000
    309    310    317   1    110.7000    313.8000
    309    310    318   1    110.7000    313.8000
    316    310    317   1    107.8000    276.1440
    316    310    318   1    107.8000    276.1440
    317    310    318   1    107.8000    276.1440
    309    311    319   1    110.7000    313.8000
    309    311    320   1    110.7000    313.8000
    309    311    321   1    110.7000    313.8000
    319    311    320   1    107.8000    276.1440
    319    311    321   1    107.8000    276.1440
    320    311    321   1    107.8000    276.1440

[ dihedrals ]
; Proper dihedrals
      7      1      2      3   5     0.00000     0.00000     1.95811  0.0
      7      1      2      9   5     0.00000     0.00000     1.25520  0.0
      7      1      2     18   5     0.00000     0.00000     1.25520  0.0
      8      1      2      3   5     0.00000     0.00000     1.95811  0.0
      8      1      2      9   5     0.00000     0.00000     1.25520  0.0
      8      1      2     18   5     0.00000     0.00000     1.25520  0.0
     17      1      2      3   5     0.00000     0.00000     1.95811  0.0
     17      1      2      9   5     0.00000     0.00000     1.25520  0.0
     17      1      2     18   5     0.00000     0.00000     1.25520  0.0
      1      2      3      4   5     0.52300    -0.09205     2.34722  0.0
      9      2      3      4   5     0.00000     0.00000     3.10034  0.0
     18      2      3      4   5     0.52300    -0.09205     2.34722  0.0
      1      2     18     19   5     4.74884    -0.63178     1.67360  0.0
      1      2     18     24   5     0.00000     0.00000     1.25520  0.0
      1      2     18     25   5     0.00000     0.00000     1.25520  0.0
      3      2     18     19   5     5.25092    -2.58990     2.28446  0.0
      3      2     18     24   5     0.00000     0.00000     1.95811  0.0
      3      2     18     25   5     0.00000     0.00000     1.95811  0.0
      9      2     18     19   5     0.00000     0.00000     1.25520  0.0
      9      2     18     24   5     0.00000     0.00000     1.25520  0.0
      9      2     18     25   5     0.00000     0.00000     1.25520  0.0
      2      3      4      5   5     0.52300    -0.09205     2.34722  0.0
      2      3      4      6   5     0.52300    -0.09205     2.34722  0.0
      2      3      4     10   5     0.00000     0.00000     3.10034  0.0
      3      4      5     11   5     0.00000     0.00000     1.95811  0.0
      3      4      5     12   5     0.00000     0.00000     1.95811  0.0
      3      4      5     13   5     0.00000     0.00000     1.95811  0.0
      6      4      5     11   5     0.00000     0.00000     1.25520  0.0
      6      4      5     12   5     0.00000     0.00000     1.25520  0.0
      6      4      5     13   5     0.00000     0.00000     1.25520  0.0
     10      4      5     11   5     0.00000     0.00000     1.25520  0.0
     10      4      5     12   5     0.00000     0.00000     1.25520  0.0
     10      4      5     13   5     0.00000     0.00000     1.25520  0.0
      3      4      6     14   5     0.00000     0.00000     1.95811  0.0
      3      4      6     15   5     0.00000     0.00000     1.95811  0.0
      3      4      6     16   5     0.00000     0.00000     1.95811  0.0
      5      4      6     14   5     0.00000     0.00000     1.25520  0.0
      5      4      6     15   5     0.00000     0.00000     1.25520  0.0
      5      4      6     16   5     0.00000     0.00000     1.25520  0.0
     10      4      6     14   5     0.00000     0.00000     1.25520  0.0
     10      4      6     15   5     0.00000     0.00000     1.25520  0.0
     10      4      6     16   5     0.00000     0.00000     1.25520  0.0
      2     18     19     20   5     5.25092    -2.58990     2.28446  0.0
      2     18     19     26   5     0.00000     0.00000     1.25520  0.0
      2     18     19     34   5     4.74884    -0.63178     1.67360  0.0
     24     18     19     20   5     0.00000     0.00000     1.95811  0.0
     24     18     19     26   5     0.00000     0.00000     1.25520  0.0
     24     18     19     34   5     0.00000     0.00000     1.25520  0.0
     25     18     19     20   5     0.00000     0.00000     1.95811  0.0
     25     18     19     26   5     0.00000     0.00000     1.25520  0.0
     25     18     19     34   5     0.00000     0.00000     1.25520  0.0
     18     19     20     21   5     0.52300    -0.09205     2.34722  0.0
     26     19     20     21   5     0.00000     0.00000     3.10034  0.0
     34     19     20     21   5     0.52300    -0.09205     2.34722  0.0
     18     19     34     35   5     4.74884    -0.63178     1.67360  0.0
     18     19     34     40   5     0.00000     0.00000     1.25520  0.0
     18     19     34     41   5     0.00000     0.00000     1.25520  0.0
     20     19     34     35   5     5.25092    -2.58990     2.28446  0.0
     20     19     34     40   5     0.00000     0.00000     1.95811  0.0
     20     19     34     41   5     0.00000     0.00000     1.95811  0.0
     26     19     34     35   5     0.00000     0.00000     1.25520  0.0
     26     19     34     40   5     0.00000     0.00000     1.25520  0.0
     26     19     34     41   5     0.00000     0.00000     1.25520  0.0
     19     20     21     22   5     0.52300    -0.09205     2.34722  0.0
     19     20     21     23   5     0.52300    -0.09205     2.34722  0.0
     19     20     21     27   5     0.00000     0.00000     3.10034  0.0
     20     21     22     28   5     0.00000     0.00000     1.95811  0.0
     20     21     22     29   5     0.00000     0.00000     1.95811  0.0
     20     21     22     30   5     0.00000     0.00000     1.95811  0.0
     23     21     22     28   5     0.00000     0.00000     1.25520  0.0
     23     21     22     29   5     0.00000     0.00000     1.25520  0.0
     23     21     22     30   5     0.00000     0.00000     1.25520  0.0
     27     21     22     28   5     0.00000     0.00000     1.25520  0.0
     27     21     22     29   5     0.00000     0.00000     1.25520  0.0
     27     21     22     30   5     0.00000     0.00000     1.25520  0.0
     20     21     23     31   5     0.00000     0.00000     1.95811  0.0
     20     21     23     32   5     0.00000     0.00000     1.95811  0.0
     20     21     23     33   5     0.00000     0.00000     1.95811  0.0
     22     21     23     31   5     0.00000     0.00000     1.25520  0.0
     22     21     23     32   5     0.00000     0.00000     1.25520  0.0
     22     21     23     33   5     0.00000     0.00000     1.25520  0.0
     27     21     23     31   5     0.00000     0.00000     1.25520  0.0
     27     21     23     32   5     0.00000     0.00000     1.25520  0.0
     27     21     23     33   5     0.00000     0.00000     1.25520  0.0
     19     34     35     36   5     5.25092    -2.58990     2.28446  0.0
     19     34     35     42   5     0.00000     0.00000     1.25520  0.0
     19     34     35     50   5     4.74884    -0.63178     1.67360  0.0
     40     34     35     36   5     0.00000     0.00000     1.95811  0.0
     40     34     35     42   5     0.00000     0.00000     1.25520  0.0
     40     34     35     50   5     0.00000     0.00000     1.25520  0.0
     41     34     35     36   5     0.00000     0.00000     1.95811  0.0
     41     34     35     42   5     0.00000     0.00000     1.25520  0.0
     41     34     35     50   5     0.00000     0.00000     1.25520  0.0
     34     35     36     37   5     0.52300    -0.09205     2.34722  0.0
     42     35     36     37   5     0.00000     0.00000     3.10034  0.0
     50     35     36     37   5     0.52300    -0.09205     2.34722  0.0
     34     35     50     51   5     4.74884    -0.63178     1.67360  0.0
     34     35     50     56   5     0.00000     0.00000     1.25520  0.0
     34     35     50     57   5     0.00000     0.00000     1.25520  0.0
     36     35     50     51   5     5.25092    -2.58990     2.28446  0.0
     36     35     50     56   5     0.00000     0.00000     1.95811  0.0
     36     35     50     57   5     0.00000     0.00000     1.95811  0.0
     42     35     50     51   5     0.00000     0.00000     1.25520  0.0
     42     35     50     56   5     0.00000     0.00000     1.25520  0.0
     42     35     50     57   5     0.00000     0.00000     1.25520  0.0
     35     36     37     38   5     0.52300    -0.09205     2.34722  0.0
     35     36     37     39   5     0.52300    -0.09205     2.34722  0.0
     35     36     37     43   5     0.00000     0.00000     3.10034  0.0
     36     37     38     44   5     0.00000     0.00000     1.95811  0.0
     36     37     38     45   5     0.00000     0.00000     1.95811  0.0
     36     37     38     46   5     0.00000     0.00000     1.95811  0.0
     39     37     38     44   5     0.00000     0.00000     1.25520  0.0
     39     37     38     45   5     0.00000     0.00000     1.25520  0.0
     39     37     38     46   5     0.00000     0.00000     1.25520  0.0
     43     37     38     44   5     0.00000     0.00000     1.25520  0.0
     43     37     38     45   5     0.00000     0.00000     1.25520  0.0
     43     37     38     46   5     0.00000     0.00000     1.25520  0.0
     36     37     39     47   5     0.00000     0.00000     1.95811  0.0
     36     37     39     48   5     0.00000     0.00000     1.95811  0.0
     36     37     39     49   5     0.00000     0.00000     1.95811  0.0
     38     37     39     47   5     0.00000     0.00000     1.25520  0.0
     38     37     39     48   5     0.00000     0.00000     1.25520  0.0
     38     37     39     49   5     0.00000     0.00000     1.25520  0.0
     43     37     39     47   5     0.00000     0.00000     1.25520  0.0
     43     37     39     48   5     0.00000     0.00000     1.25520  0.0
     43     37     39     49   5     0.00000     0.00000     1.25520  0.0
     35     50     51     52   5     5.25092    -2.58990     2.28446  0.0
     35     50     51     58   5     0.00000     0.00000     1.25520  0.0
     35     50     51     66   5     4.74884    -0.63178     1.67360  0.0
     56     50     51     52   5     0.00000     0.00000     1.95811  0.0
     56     50     51     58   5     0.00000     0.00000     1.25520  0.0
     56     50     51     66   5     0.00000     0.00000     1.25520  0.0
     57     50     51     52   5     0.00000     0.00000     1.95811  0.0
     57     50     51     58   5     0.00000     0.00000     1.25520  0.0
     57     50     51     66   5     0.00000     0.00000     1.25520  0.0
     50     51     52     53   5     0.52300    -0.09205     2.34722  0.0
     58     51     52     53   5     0.00000     0.00000     3.10034  0.0
     66     51     52     53   5     0.52300    -0.09205     2.34722  0.0
     50     51     66     67   5     4.74884    -0.63178     1.67360  0.0
     50     51     66     72   5     0.00000     0.00000     1.25520  0.0
     50     51     66     73   5     0.00000     0.00000     1.25520  0.0
     52     51     66     67   5     5.25092    -2.58990     2.28446  0.0
     52     51     66     72   5     0.00000     0.00000     1.95811  0.0
     52     51     66     73   5     0.00000     0.00000     1.95811  0.0
     58     51     66     67   5     0.00000     0.00000     1.25520  0.0
     58     51     66     72   5     0.00000     0.00000     1.25520  0.0
     58     51     66     73   5     0.00000     0.00000     1.25520  0.0
     51     52     53     54   5     0.52300    -0.09205     2.34722  0.0
     51     52     53     55   5     0.52300    -0.09205     2.34722  0.0
     51     52     53     59   5     0.00000     0.00000     3.10034  0.0
     52     53     54     60   5     0.00000     0.00000     1.95811  0.0
     52     53     54     61   5     0.00000     0.00000     1.95811  0.0
     52     53     54     62   5     0.00000     0.00000     1.95811  0.0
     55     53     54     60   5     0.00000     0.00000     1.25520  0.0
     55     53     54     61   5     0.00000     0.00000     1.25520  0.0
     55     53     54     62   5     0.00000     0.00000     1.25520  0.0
     59     53     54     60   5     0.00000     0.00000     1.25520  0.0
     59     53     54     61   5     0.00000     0.00000     1.25520  0.0
     59     53     54     62   5     0.00000     0.00000     1.25520  0.0
     52     53     55     63   5     0.00000     0.00000     1.95811  0.0
     52     53     55     64   5     0.00000     0.00000     1.95811  0.0
     52     53     55     65   5     0.00000     0.00000     1.95811  0.0
     54     53     55     63   5     0.00000     0.00000     1.25520  0.0
     54     53     55     64   5     0.00000     0.00000     1.25520  0.0
     54     53     55     65   5     0.00000     0.00000     1.25520  0.0
     59     53     55     63   5     0.00000     0.00000     1.25520  0.0
     59     53     55     64   5     0.00000     0.00000     1.25520  0.0
     59     53     55     65   5     0.00000     0.00000     1.25520  0.0
     51     66     67     68   5     5.25092    -2.58990     2.28446  0.0
     51     66     67     74   5     0.00000     0.00000     1.25520  0.0
     51     66     67     82   5     4.74884    -0.63178     1.67360  0.0
     72     66     67     68   5     0.00000     0.00000     1.95811  0.0
     72     66     67     74   5     0.00000     0.00000     1.25520  0.0
     72     66     67     82   5     0.00000     0.00000     1.25520  0.0
     73     66     67     68   5     0.00000     0.00000     1.95811  0.0
     73     66     67     74   5     0.00000     0.00000     1.25520  0.0
     73     66     67     82   5     0.00000     0.00000     1.25520  0.0
     66     67     68     69   5     0.52300    -0.09205     2.34722  0.0
     74     67     68     69   5     0.00000     0.00000     3.10034  0.0
     82     67     68     69   5     0.52300    -0.09205     2.34722  0.0
     66     67     82     83   5     4.74884    -0.63178     1.67360  0.0
     66     67     82     88   5     0.00000     0.00000     1.25520  0.0
     66     67     82     89   5     0.00000     0.00000     1.25520  0.0
     68     67     82     83   5     5.25092    -2.58990     2.28446  0.0
     68     67     82     88   5     0.00000     0.00000     1.95811  0.0
     68     67     82     89   5     0.00000     0.00000     1.95811  0.0
     74     67     82     83   5     0.00000     0.00000     1.25520  0.0
     74     67     82     88   5     0.00000     0.00000     1.25520  0.0
     74     67     82     89   5     0.00000     0.00000     1.25520  0.0
     67     68     69     70   5     0.52300    -0.09205     2.34722  0.0
     67     68     69     71   5     0.52300    -0.09205     2.34722  0.0
     67     68     69     75   5     0.00000     0.00000     3.10034  0.0
     68     69     70     76   5     0.00000     0.00000     1.95811  0.0
     68     69     70     77   5     0.00000     0.00000     1.95811  0.0
     68     69     70     78   5     0.00000     0.00000     1.95811  0.0
     71     69     70     76   5     0.00000     0.00000     1.25520  0.0
     71     69     70     77   5     0.00000     0.00000     1.25520  0.0
     71     69     70     78   5     0.00000     0.00000     1.25520  0.0
     75     69     70     76   5     0.00000     0.00000     1.25520  0.0
     75     69     70     77   5     0.00000     0.00000     1.25520  0.0
     75     69     70     78   5     0.00000     0.00000     1.25520  0.0
     68     69     71     79   5     0.00000     0.00000     1.95811  0.0
     68     69     71     80   5     0.00000     0.00000     1.95811  0.0
     68     69     71     81   5     0.00000     0.00000     1.95811  0.0
     70     69     71     79   5     0.00000     0.00000     1.25520  0.0
     70     69     71     80   5     0.00000     0.00000     1.25520  0.0
     70     69     71     81   5     0.00000     0.00000     1.25520  0.0
     75     69     71     79   5     0.00000     0.00000     1.25520  0.0
     75     69     71     80   5     0.00000     0.00000     1.25520  0.0
     75     69     71     81   5     0.00000     0.00000     1.25520  0.0
     67     82     83     84   5     5.25092    -2.58990     2.28446  0.0
     67     82     83     90   5     0.00000     0.00000     1.25520  0.0
     67     82     83     98   5     4.74884    -0.63178     1.67360  0.0
     88     82     83     84   5     0.00000     0.00000     1.95811  0.0
     88     82     83     90   5     0.00000     0.00000     1.25520  0.0
     88     82     83     98   5     0.00000     0.00000     1.25520  0.0
     89     82     83     84   5     0.00000     0.00000     1.95811  0.0
     89     82     83     90   5     0.00000     0.00000     1.25520  0.0
     89     82     83     98   5     0.00000     0.00000     1.25520  0.0
     82     83     84     85   5     0.52300    -0.09205     2.34722  0.0
     90     83     84     85   5     0.00000     0.00000     3.10034  0.0
     98     83     84     85   5     0.52300    -0.09205     2.34722  0.0
     82     83     98     99   5     4.74884    -0.63178     1.67360  0.0
     82     83     98    104   5     0.00000     0.00000     1.25520  0.0
     82     83     98    105   5     0.00000     0.00000     1.25520  0.0
     84     83     98     99   5     5.25092    -2.58990     2.28446  0.0
     84     83     98    104   5     0.00000     0.00000     1.95811  0.0
     84     83     98    105   5     0.00000     0.00000     1.95811  0.0
     90     83     98     99   5     0.00000     0.00000     1.25520  0.0
     90     83     98    104   5     0.00000     0.00000     1.25520  0.0
     90     83     98    105   5     0.00000     0.00000     1.25520  0.0
     83     84     85     86   5     0.52300    -0.09205     2.34722  0.0
     83     84     85     87   5     0.52300    -0.09205     2.34722  0.0
     83     84     85     91   5     0.00000     0.00000     3.10034  0.0
     84     85     86     92   5     0.00000     0.00000     1.95811  0.0
     84     85     86     93   5     0.00000     0.00000     1.95811  0.0
     84     85     86     94   5     0.00000     0.00000     1.95811  0.0
     87     85     86     92   5     0.00000     0.00000     1.25520  0.0
     87     85     86     93   5     0.00000     0.00000     1.25520  0.0
     87     85     86     94   5     0.00000     0.00000     1.25520  0.0
     91     85     86     92   5     0.00000     0.00000     1.25520  0.0
     91     85     86     93   5     0.00000     0.00000     1.25520  0.0
     91     85     86     94   5     0.00000     0.00000     1.25520  0.0
     84     85     87     95   5     0.00000     0.00000     1.95811  0.0
     84     85     87     96   5     0.00000     0.00000     1.95811  0.0
     84     85     87     97   5     0.00000     0.00000     1.95811  0.0
     86     85     87     95   5     0.00000     0.00000     1.25520  0.0
     86     85     87     96   5     0.00000     0.00000     1.25520  0.0
     86     85     87     97   5     0.00000     0.00000     1.25520  0.0
     91     85     87     95   5     0.00000     0.00000     1.25520  0.0
     91     85     87     96   5     0.00000     0.00000     1.25520  0.0
     91     85     87     97   5     0.00000     0.00000     1.25520  0.0
     83     98     99    100   5     5.25092    -2.58990     2.28446  0.0
     83     98     99    106   5     0.00000     0.00000     1.25520  0.0
     83     98     99    114   5     4.74884    -0.63178     1.67360  0.0
    104     98     99    100   5     0.00000     0.00000     1.95811  0.0
    104     98     99    106   5     0.00000     0.00000     1.25520  0.0
    104     98     99    114   5     0.00000     0.00000     1.25520  0.0
    105     98     99    100   5     0.00000     0.00000     1.95811  0.0
    105     98     99    106   5     0.00000     0.00000     1.25520  0.0
    105     98     99    114   5     0.00000     0.00000     1.25520  0.0
     98     99    100    101   5     0.52300    -0.09205     2.34722  0.0
    106     99    100    101   5     0.00000     0.00000     3.10034  0.0
    114     99    100    101   5     0.52300    -0.09205     2.34722  0.0
     98     99    114    115   5     4.74884    -0.63178     1.67360  0.0
     98     99    114    120   5     0.00000     0.00000     1.25520  0.0
     98     99    114    121   5     0.00000     0.00000     1.25520  0.0
    100     99    114    115   5     5.25092    -2.58990     2.28446  0.0
    100     99    114    120   5     0.00000     0.00000     1.95811  0.0
    100     99    114    121   5     0.00000     0.00000     1.95811  0.0
    106     99    114    115   5     0.00000     0.00000     1.25520  0.0
    106     99    114    120   5     0.00000     0.00000     1.25520  0.0
    106     99    114    121   5     0.00000     0.00000     1.25520  0.0
     99    100    101    102   5     0.52300    -0.09205     2.34722  0.0
     99    100    101    103   5     0.52300    -0.09205     2.34722  0.0
     99    100    101    107   5     0.00000     0.00000     3.10034  0.0
    100    101    102    108   5     0.00000     0.00000     1.95811  0.0
    100    101    102    109   5     0.00000     0.00000     1.95811  0.0
    100    101    102    110   5     0.00000     0.00000     1.95811  0.0
    103    101    102    108   5     0.00000     0.00000     1.25520  0.0
    103    101    102    109   5     0.00000     0.00000     1.25520  0.0
    103    101    102    110   5     0.00000     0.00000     1.25520  0.0
    107    101    102    108   5     0.00000     0.00000     1.25520  0.0
    107    101    102    109   5     0.00000     0.00000     1.25520  0.0
    107    101    102    110   5     0.00000     0.00000     1.25520  0.0
    100    101    103    111   5     0.00000     0.00000     1.95811  0.0
    100    101    103    112   5     0.00000     0.00000     1.95811  0.0
    100    101    103    113   5     0.00000     0.00000     1.95811  0.0
    102    101    103    111   5     0.00000     0.00000     1.25520  0.0
    102    101    103    112   5     0.00000     0.00000     1.25520  0.0
    102    101    103    113   5     0.00000     0.00000     1.25520  0.0
    107    101    103    111   5     0.00000     0.00000     1.25520  0.0
    107    101    103    112   5     0.00000     0.00000     1.25520  0.0
    107    101    103    113   5     0.00000     0.00000     1.25520  0.0
     99    114    115    116   5     5.25092    -2.58990     2.28446  0.0
     99    114    115    122   5     0.00000     0.00000     1.25520  0.0
     99    114    115    130   5     4.74884    -0.63178     1.67360  0.0
    120    114    115    116   5     0.00000     0.00000     1.95811  0.0
    120    114    115    122   5     0.00000     0.00000     1.25520  0.0
    120    114    115    130   5     0.00000     0.00000     1.25520  0.0
    121    114    115    116   5     0.00000     0.00000     1.95811  0.0
    121    114    115    122   5     0.00000     0.00000     1.25520  0.0
    121    114    115    130   5     0.00000     0.00000     1.25520  0.0
    114    115    116    117   5     0.52300    -0.09205     2.34722  0.0
    122    115    116    117   5     0.00000     0.00000     3.10034  0.0
    130    115    116    117   5     0.52300    -0.09205     2.34722  0.0
    114    115    130    131   5     4.74884    -0.63178     1.67360  0.0
    114    115    130    136   5     0.00000     0.00000     1.25520  0.0
    114    115    130    137   5     0.00000     0.00000     1.25520  0.0
    116    115    130    131   5     5.25092    -2.58990     2.28446  0.0
    116    115    130    136   5     0.00000     0.00000     1.95811  0.0
    116    115    130    137   5     0.00000     0.00000     1.95811  0.0
    122    115    130    131   5     0.00000     0.00000     1.25520  0.0
    122    115    130    136   5     0.00000     0.00000     1.25520  0.0
    122    115    130    137   5     0.00000     0.00000     1.25520  0.0
    115    116    117    118   5     0.52300    -0.09205     2.34722  0.0
    115    116    117    119   5     0.52300    -0.09205     2.34722  0.0
    115    116    117    123   5     0.00000     0.00000     3.10034  0.0
    116    117    118    124   5     0.00000     0.00000     1.95811  0.0
    116    117    118    125   5     0.00000     0.00000     1.95811  0.0
    116    117    118    126   5     0.00000     0.00000     1.95811  0.0
    119    117    118    124   5     0.00000     0.00000     1.25520  0.0
    119    117    118    125   5     0.00000     0.00000     1.25520  0.0
    119    117    118    126   5     0.00000     0.00000     1.25520  0.0
    123    117    118    124   5     0.00000     0.00000     1.25520  0.0
    123    117    118    125   5     0.00000     0.00000     1.25520  0.0
    123    117    118    126   5     0.00000     0.00000     1.25520  0.0
    116    117    119    127   5     0.00000     0.00000     1.95811  0.0
    116    117    119    128   5     0.00000     0.00000     1.95811  0.0
    116    117    119    129   5     0.00000     0.00000     1.95811  0.0
    118    117    119    127   5     0.00000     0.00000     1.25520  0.0
    118    117    119    128   5     0.00000     0.00000     1.25520  0.0
    118    117    119    129   5     0.00000     0.00000     1.25520  0.0
    123    117    119    127   5     0.00000     0.00000     1.25520  0.0
    123    117    119    128   5     0.00000     0.00000     1.25520  0.0
    123    117    119    129   5     0.00000     0.00000     1.25520  0.0
    115    130    131    132   5     5.25092    -2.58990     2.28446  0.0
    115    130    131    138   5     0.00000     0.00000     1.25520  0.0
    115    130    131    146   5     4.74884    -0.63178     1.67360  0.0
    136    130    131    132   5     0.00000     0.00000     1.95811  0.0
    136    130    131    138   5     0.00000     0.00000     1.25520  0.0
    136    130    131    146   5     0.00000     0.00000     1.25520  0.0
    137    130    131    132   5     0.00000     0.00000     1.95811  0.0
    137    130    131    138   5     0.00000     0.00000     1.25520  0.0
    137    130    131    146   5     0.00000     0.00000     1.25520  0.0
    130    131    132    133   5     0.52300    -0.09205     2.34722  0.0
    138    131    132    133   5     0.00000     0.00000     3.10034  0.0
    146    131    132    133   5     0.52300    -0.09205     2.34722  0.0
    130    131    146    147   5     4.74884    -0.63178     1.67360  0.0
    130    131    146    152   5     0.00000     0.00000     1.25520  0.0
    130    131    146    153   5     0.00000     0.00000     1.25520  0.0
    132    131    146    147   5     5.25092    -2.58990     2.28446  0.0
    132    131    146    152   5     0.00000     0.00000     1.95811  0.0
    132    131    146    153   5     0.00000     0.00000     1.95811  0.0
    138    131    146    147   5     0.00000     0.00000     1.25520  0.0
    138    131    146    152   5     0.00000     0.00000     1.25520  0.0
    138    131    146    153   5     0.00000     0.00000     1.25520  0.0
    131    132    133    134   5     0.52300    -0.09205     2.34722  0.0
    131    132    133    135   5     0.52300    -0.09205     2.34722  0.0
    131    132    133    139   5     0.00000     0.00000     3.10034  0.0
    132    133    134    140   5     0.00000     0.00000     1.95811  0.0
    132    133    134    141   5     0.00000     0.00000     1.95811  0.0
    132    133    134    142   5     0.00000     0.00000     1.95811  0.0
    135    133    134    140   5     0.00000     0.00000     1.25520  0.0
    135    133    134    141   5     0.00000     0.00000     1.25520  0.0
    135    133    134    142   5     0.00000     0.00000     1.25520  0.0
    139    133    134    140   5     0.00000     0.00000     1.25520  0.0
    139    133    134    141   5     0.00000     0.00000     1.25520  0.0
    139    133    134    142   5     0.00000     0.00000     1.25520  0.0
    132    133    135    143   5     0.00000     0.00000     1.95811  0.0
    132    133    135    144   5     0.00000     0.00000     1.95811  0.0
    132    133    135    145   5     0.00000     0.00000     1.95811  0.0
    134    133    135    143   5     0.00000     0.00000     1.25520  0.0
    134    133    135    144   5     0.00000     0.00000     1.25520  0.0
    134    133    135    145   5     0.00000     0.00000     1.25520  0.0
    139    133    135    143   5     0.00000     0.00000     1.25520  0.0
    139    133    135    144   5     0.00000     0.00000     1.25520  0.0
    139    133    135    145   5     0.00000     0.00000     1.25520  0.0
    131    146    147    148   5     5.25092    -2.58990     2.28446  0.0
    131    146    147    154   5     0.00000     0.00000     1.25520  0.0
    131    146    147    162   5     4.74884    -0.63178     1.67360  0.0
    152    146    147    148   5     0.00000     0.00000     1.95811  0.0
    152    146    147    154   5     0.00000     0.00000     1.25520  0.0
    152    146    147    162   5     0.00000     0.00000     1.25520  0.0
    153    146    147    148   5     0.00000     0.00000     1.95811  0.0
    153    146    147    154   5     0.00000     0.00000     1.25520  0.0
    153    146    147    162   5     0.00000     0.00000     1.25520  0.0
    146    147    148    149   5     0.52300    -0.09205     2.34722  0.0
    154    147    148    149   5     0.00000     0.00000     3.10034  0.0
    162    147    148    149   5     0.52300    -0.09205     2.34722  0.0
    146    147    162    163   5     4.74884    -0.63178     1.67360  0.0
    146    147    162    168   5     0.00000     0.00000     1.25520  0.0
    146    147    162    169   5     0.00000     0.00000     1.25520  0.0
    148    147    162    163   5     5.25092    -2.58990     2.28446  0.0
    148    147    162    168   5     0.00000     0.00000     1.95811  0.0
    148    147    162    169   5     0.00000     0.00000     1.95811  0.0
    154    147    162    163   5     0.00000     0.00000     1.25520  0.0
    154    147    162    168   5     0.00000     0.00000     1.25520  0.0
    154    147    162    169   5     0.00000     0.00000     1.25520  0.0
    147    148    149    150   5     0.52300    -0.09205     2.34722  0.0
    147    148    149    151   5     0.52300    -0.09205     2.34722  0.0
    147    148    149    155   5     0.00000     0.00000     3.10034  0.0
    148    149    150    156   5     0.00000     0.00000     1.95811  0.0
    148    149    150    157   5     0.00000     0.00000     1.95811  0.0
    148    149    150    158   5     0.00000     0.00000     1.95811  0.0
    151    149    150    156   5     0.00000     0.00000     1.25520  0.0
    151    149    150    157   5     0.00000     0.00000     1.25520  0.0
    151    149    150    158   5     0.00000     0.00000     1.25520  0.0
    155    149    150    156   5     0.00000     0.00000     1.25520  0.0
    155    149    150    157   5     0.00000     0.00000     1.25520  0.0
    155    149    150    158   5     0.00000     0.00000     1.25520  0.0
    148    149    151    159   5     0.00000     0.00000     1.95811  0.0
    148    149    151    160   5     0.00000     0.00000     1.95811  0.0
    148    149    151    161   5     0.00000     0.00000     1.95811  0.0
    150    149    151    159   5     0.00000     0.00000     1.25520  0.0
    150    149    151    160   5     0.00000     0.00000     1.25520  0.0
    150    149    151    161   5     0.00000     0.00000     1.25520  0.0
    155    149    151    159   5     0.00000     0.00000     1.25520  0.0
    155    149    151    160   5     0.00000     0.00000     1.25520  0.0
    155    149    151    161   5     0.00000     0.00000     1.25520  0.0
    147    162    163    164   5     5.25092    -2.58990     2.28446  0.0
    147    162    163    170   5     0.00000     0.00000     1.25520  0.0
    147    162    163    178   5     4.74884    -0.63178     1.67360  0.0
    168    162    163    164   5     0.00000     0.00000     1.95811  0.0
    168    162    163    170   5     0.00000     0.00000     1.25520  0.0
    168    162    163    178   5     0.00000     0.00000     1.25520  0.0
    169    162    163    164   5     0.00000     0.00000     1.95811  0.0
    169    162    163    170   5     0.00000     0.00000     1.25520  0.0
    169    162    163    178   5     0.00000     0.00000     1.25520  0.0
    162    163    164    165   5     0.52300    -0.09205     2.34722  0.0
    170    163    164    165   5     0.00000     0.00000     3.10034  0.0
    178    163    164    165   5     0.52300    -0.09205     2.34722  0.0
    162    163    178    179   5     4.74884    -0.63178     1.67360  0.0
    162    163    178    184   5     0.00000     0.00000     1.25520  0.0
    162    163    178    185   5     0.00000     0.00000     1.25520  0.0
    164    163    178    179   5     5.25092    -2.58990     2.28446  0.0
    164    163    178    184   5     0.00000     0.00000     1.95811  0.0
    164    163    178    185   5     0.00000     0.00000     1.95811  0.0
    170    163    178    179   5     0.00000     0.00000     1.25520  0.0
    170    163    178    184   5     0.00000     0.00000     1.25520  0.0
    170    163    178    185   5     0.00000     0.00000     1.25520  0.0
    163    164    165    166   5     0.52300    -0.09205     2.34722  0.0
    163    164    165    167   5     0.52300    -0.09205     2.34722  0.0
    163    164    165    171   5     0.00000     0.00000     3.10034  0.0
    164    165    166    172   5     0.00000     0.00000     1.95811  0.0
    164    165    166    173   5     0.00000     0.00000     1.95811  0.0
    164    165    166    174   5     0.00000     0.00000     1.95811  0.0
    167    165    166    172   5     0.00000     0.00000     1.25520  0.0
    167    165    166    173   5     0.00000     0.00000     1.25520  0.0
    167    165    166    174   5     0.00000     0.00000     1.25520  0.0
    171    165    166    172   5     0.00000     0.00000     1.25520  0.0
    171    165    166    173   5     0.00000     0.00000     1.25520  0.0
    171    165    166    174   5     0.00000     0.00000     1.25520  0.0
    164    165    167    175   5     0.00000     0.00000     1.95811  0.0
    164    165    167    176   5     0.00000     0.00000     1.95811  0.0
    164    165    167    177   5     0.00000     0.00000     1.95811  0.0
    166    165    167    175   5     0.00000     0.00000     1.25520  0.0
    166    165    167    176   5     0.00000     0.00000     1.25520  0.0
    166    165    167    177   5     0.00000     0.00000     1.25520  0.0
    171    165    167    175   5     0.00000     0.00000     1.25520  0.0
    171    165    167    176   5     0.00000     0.00000     1.25520  0.0
    171    165    167    177   5     0.00000     0.00000     1.25520  0.0
    163    178    179    180   5     5.25092    -2.58990     2.28446  0.0
    163    178    179    186   5     0.00000     0.00000     1.25520  0.0
    163    178    179    194   5     4.74884    -0.63178     1.67360  0.0
    184    178    179    180   5     0.00000     0.00000     1.95811  0.0
    184    178    179    186   5     0.00000     0.00000     1.25520  0.0
    184    178    179    194   5     0.00000     0.00000     1.25520  0.0
    185    178    179    180   5     0.00000     0.00000     1.95811  0.0
    185    178    179    186   5     0.00000     0.00000     1.25520  0.0
    185    178    179    194   5     0.00000     0.00000     1.25520  0.0
    178    179    180    181   5     0.52300    -0.09205     2.34722  0.0
    186    179    180    181   5     0.00000     0.00000     3.10034  0.0
    194    179    180    181   5     0.52300    -0.09205     2.34722  0.0
    178    179    194    195   5     4.74884    -0.63178     1.67360  0.0
    178    179    194    200   5     0.00000     0.00000     1.25520  0.0
    178    179    194    201   5     0.00000     0.00000     1.25520  0.0
    180    179    194    195   5     5.25092    -2.58990     2.28446  0.0
    180    179    194    200   5     0.00000     0.00000     1.95811  0.0
    180    179    194    201   5     0.00000     0.00000     1.95811  0.0
    186    179    194    195   5     0.00000     0.00000     1.25520  0.0
    186    179    194    200   5     0.00000     0.00000     1.25520  0.0
    186    179    194    201   5     0.00000     0.00000     1.25520  0.0
    179    180    181    182   5     0.52300    -0.09205     2.34722  0.0
    179    180    181    183   5     0.52300    -0.09205     2.34722  0.0
    179    180    181    187   5     0.00000     0.00000     3.10034  0.0
    180    181    182    188   5     0.00000     0.00000     1.95811  0.0
    180    181    182    189   5     0.00000     0.00000     1.95811  0.0
    180    181    182    190   5     0.00000     0.00000     1.95811  0.0
    183    181    182    188   5     0.00000     0.00000     1.25520  0.0
    183    181    182    189   5     0.00000     0.00000     1.25520  0.0
    183    181    182    190   5     0.00000     0.00000     1.25520  0.0
    187    181    182    188   5     0.00000     0.00000     1.25520  0.0
    187    181    182    189   5     0.00000     0.00000     1.25520  0.0
    187    181    182    190   5     0.00000     0.00000     1.25520  0.0
    180    181    183    191   5     0.00000     0.00000     1.95811  0.0
    180    181    183    192   5     0.00000     0.00000     1.95811  0.0
    180    181    183    193   5     0.00000     0.00000     1.95811  0.0
    182    181    183    191   5     0.00000     0.00000     1.25520  0.0
    182    181    183    192   5     0.00000     0.00000     1.25520  0.0
    182    181    183    193   5     0.00000     0.00000     1.25520  0.0
    187    181    183    191   5     0.00000     0.00000     1.25520  0.0
    187    181    183    192   5     0.00000     0.00000     1.25520  0.0
    187    181    183    193   5     0.00000     0.00000     1.25520  0.0
    179    194    195    196   5     5.25092    -2.58990     2.28446  0.0
    179    194    195    202   5     0.00000     0.00000     1.25520  0.0
    179    194    195    210   5     4.74884    -0.63178     1.67360  0.0
    200    194    195    196   5     0.00000     0.00000     1.95811  0.0
    200    194    195    202   5     0.00000     0.00000     1.25520  0.0
    200    194    195    210   5     0.00000     0.00000     1.25520  0.0
    201    194    195    196   5     0.00000     0.00000     1.95811  0.0
    201    194    195    202   5     0.00000     0.00000     1.25520  0.0
    201    194    195    210   5     0.00000     0.00000     1.25520  0.0
    194    195    196    197   5     0.52300    -0.09205     2.34722  0.0
    202    195    196    197   5     0.00000     0.00000     3.10034  0.0
    210    195    196    197   5     0.52300    -0.09205     2.34722  0.0
    194    195    210    211   5     4.74884    -0.63178     1.67360  0.0
    194    195    210    216   5     0.00000     0.00000     1.25520  0.0
    194    195    210    217   5     0.00000     0.00000     1.25520  0.0
    196    195    210    211   5     5.25092    -2.58990     2.28446  0.0
    196    195    210    216   5     0.00000     0.00000     1.95811  0.0
    196    195    210    217   5     0.00000     0.00000     1.95811  0.0
    202    195    210    211   5     0.00000     0.00000     1.25520  0.0
    202    195    210    216   5     0.00000     0.00000     1.25520  0.0
    202    195    210    217   5     0.00000     0.00000     1.25520  0.0
    195    196    197    198   5     0.52300    -0.09205     2.34722  0.0
    195    196    197    199   5     0.52300    -0.09205     2.34722  0.0
    195    196    197    203   5     0.00000     0.00000     3.10034  0.0
    196    197    198    204   5     0.00000     0.00000     1.95811  0.0
    196    197    198    205   5     0.00000     0.00000     1.95811  0.0
    196    197    198    206   5     0.00000     0.00000     1.95811  0.0
    199    197    198    204   5     0.00000     0.00000     1.25520  0.0
    199    197    198    205   5     0.00000     0.00000     1.25520  0.0
    199    197    198    206   5     0.00000     0.00000     1.25520  0.0
    203    197    198    204   5     0.00000     0.00000     1.25520  0.0
    203    197    198    205   5     0.00000     0.00000     1.25520  0.0
    203    197    198    206   5     0.00000     0.00000     1.25520  0.0
    196    197    199    207   5     0.00000     0.00000     1.95811  0.0
    196    197    199    208   5     0.00000     0.00000     1.95811  0.0
    196    197    199    209   5     0.00000     0.00000     1.95811  0.0
    198    197    199    207   5     0.00000     0.00000     1.25520  0.0
    198    197    199    208   5     0.00000     0.00000     1.25520  0.0
    198    197    199    209   5     0.00000     0.00000     1.25520  0.0
    203    197    199    207   5     0.00000     0.00000     1.25520  0.0
    203    197    199    208   5     0.00000     0.00000     1.25520  0.0
    203    197    199    209   5     0.00000     0.00000     1.25520  0.0
    195    210    211    212   5     5.25092    -2.58990     2.28446  0.0
    195    210    211    218   5     0.00000     0.00000     1.25520  0.0
    195    210    211    226   5     4.74884    -0.63178     1.67360  0.0
    216    210    211    212   5     0.00000     0.00000     1.95811  0.0
    216    210    211    218   5     0.00000     0.00000     1.25520  0.0
    216    210    211    226   5     0.00000     0.00000     1.25520  0.0
    217    210    211    212   5     0.00000     0.00000     1.95811  0.0
    217    210    211    218   5     0.00000     0.00000     1.25520  0.0
    217    210    211    226   5     0.00000     0.00000     1.25520  0.0
    210    211    212    213   5     0.52300    -0.09205     2.34722  0.0
    218    211    212    213   5     0.00000     0.00000     3.10034  0.0
    226    211    212    213   5     0.52300    -0.09205     2.34722  0.0
    210    211    226    227   5     4.74884    -0.63178     1.67360  0.0
    210    211    226    232   5     0.00000     0.00000     1.25520  0.0
    210    211    226    233   5     0.00000     0.00000     1.25520  0.0
    212    211    226    227   5     5.25092    -2.58990     2.28446  0.0
    212    211    226    232   5     0.00000     0.00000     1.95811  0.0
    212    211    226    233   5     0.00000     0.00000     1.95811  0.0
    218    211    226    227   5     0.00000     0.00000     1.25520  0.0
    218    211    226    232   5     0.00000     0.00000     1.25520  0.0
    218    211    226    233   5     0.00000     0.00000     1.25520  0.0
    211    212    213    214   5     0.52300    -0.09205     2.34722  0.0
    211    212    213    215   5     0.52300    -0.09205     2.34722  0.0
    211    212    213    219   5     0.00000     0.00000     3.10034  0.0
    212    213    214    220   5     0.00000     0.00000     1.95811  0.0
    212    213    214    221   5     0.00000     0.00000     1.95811  0.0
    212    213    214    222   5     0.00000     0.00000     1.95811  0.0
    215    213    214    220   5     0.00000     0.00000     1.25520  0.0
    215    213    214    221   5     0.00000     0.00000     1.25520  0.0
    215    213    214    222   5     0.00000     0.00000     1.25520  0.0
    219    213    214    220   5     0.00000     0.00000     1.25520  0.0
    219    213    214    221   5     0.00000     0.00000     1.25520  0.0
    219    213    214    222   5     0.00000     0.00000     1.25520  0.0
    212    213    215    223   5     0.00000     0.00000     1.95811  0.0
    212    213    215    224   5     0.00000     0.00000     1.95811  0.0
    212    213    215    225   5     0.00000     0.00000     1.95811  0.0
    214    213    215    223   5     0.00000     0.00000     1.25520  0.0
    214    213    215    224   5     0.00000     0.00000     1.25520  0.0
    214    213    215    225   5     0.00000     0.00000     1.25520  0.0
    219    213    215    223   5     0.00000     0.00000     1.25520  0.0
    219    213    215    224   5     0.00000     0.00000     1.25520  0.0
    219    213    215    225   5     0.00000     0.00000     1.25520  0.0
    211    226    227    228   5     5.25092    -2.58990     2.28446  0.0
    211    226    227    234   5     0.00000     0.00000     1.25520  0.0
    211    226    227    242   5     4.74884    -0.63178     1.67360  0.0
    232    226    227    228   5     0.00000     0.00000     1.95811  0.0
    232    226    227    234   5     0.00000     0.00000     1.25520  0.0
    232    226    227    242   5     0.00000     0.00000     1.25520  0.0
    233    226    227    228   5     0.00000     0.00000     1.95811  0.0
    233    226    227    234   5     0.00000     0.00000     1.25520  0.0
    233    226    227    242   5     0.00000     0.00000     1.25520  0.0
    226    227    228    229   5     0.52300    -0.09205     2.34722  0.0
    234    227    228    229   5     0.00000     0.00000     3.10034  0.0
    242    227    228    229   5     0.52300    -0.09205     2.34722  0.0
    226    227    242    243   5     4.74884    -0.63178     1.67360  0.0
    226    227    242    248   5     0.00000     0.00000     1.25520  0.0
    226    227    242    249   5     0.00000     0.00000     1.25520  0.0
    228    227    242    243   5     5.25092    -2.58990     2.28446  0.0
    228    227    242    248   5     0.00000     0.00000     1.95811  0.0
    228    227    242    249   5     0.00000     0.00000     1.95811  0.0
    234    227    242    243   5     0.00000     0.00000     1.25520  0.0
    234    227    242    248   5     0.00000     0.00000     1.25520  0.0
    234    227    242    249   5     0.00000     0.00000     1.25520  0.0
    227    228    229    230   5     0.52300    -0.09205     2.34722  0.0
    227    228    229    231   5     0.52300    -0.09205     2.34722  0.0
    227    228    229    235   5     0.00000     0.00000     3.10034  0.0
    228    229    230    236   5     0.00000     0.00000     1.95811  0.0
    228    229    230    237   5     0.00000     0.00000     1.95811  0.0
    228    229    230    238   5     0.00000     0.00000     1.95811  0.0
    231    229    230    236   5     0.00000     0.00000     1.25520  0.0
    231    229    230    237   5     0.00000     0.00000     1.25520  0.0
    231    229    230    238   5     0.00000     0.00000     1.25520  0.0
    235    229    230    236   5     0.00000     0.00000     1.25520  0.0
    235    229    230    237   5     0.00000     0.00000     1.25520  0.0
    235    229    230    238   5     0.00000     0.00000     1.25520  0.0
    228    229    231    239   5     0.00000     0.00000     1.95811  0.0
    228    229    231    240   5     0.00000     0.00000     1.95811  0.0
    228    229    231    241   5     0.00000     0.00000     1.95811  0.0
    230    229    231    239   5     0.00000     0.00000     1.25520  0.0
    230    229    231    240   5     0.00000     0.00000     1.25520  0.0
    230    229    231    241   5     0.00000     0.00000     1.25520  0.0
    235    229    231    239   5     0.00000     0.00000     1.25520  0.0
    235    229    231    240   5     0.00000     0.00000     1.25520  0.0
    235    229    231    241   5     0.00000     0.00000     1.25520  0.0
    227    242    243    244   5     5.25092    -2.58990     2.28446  0.0
    227    242    243    250   5     0.00000     0.00000     1.25520  0.0
    227    242    243    258   5     4.74884    -0.63178     1.67360  0.0
    248    242    243    244   5     0.00000     0.00000     1.95811  0.0
    248    242    243    250   5     0.00000     0.00000     1.25520  0.0
    248    242    243    258   5     0.00000     0.00000     1.25520  0.0
    249    242    243    244   5     0.00000     0.00000     1.95811  0.0
    249    242    243    250   5     0.00000     0.00000     1.25520  0.0
    249    242    243    258   5     0.00000     0.00000     1.25520  0.0
    242    243    244    245   5     0.52300    -0.09205     2.34722  0.0
    250    243    244    245   5     0.00000     0.00000     3.10034  0.0
    258    243    244    245   5     0.52300    -0.09205     2.34722  0.0
    242    243    258    259   5     4.74884    -0.63178     1.67360  0.0
    242    243    258    264   5     0.00000     0.00000     1.25520  0.0
    242    243    258    265   5     0.00000     0.00000     1.25520  0.0
    244    243    258    259   5     5.25092    -2.58990     2.28446  0.0
    244    243    258    264   5     0.00000     0.00000     1.95811  0.0
    244    243    258    265   5     0.00000     0.00000     1.95811  0.0
    250    243    258    259   5     0.00000     0.00000     1.25520  0.0
    250    243    258    264   5     0.00000     0.00000     1.25520  0.0
    250    243    258    265   5     0.00000     0.00000     1.25520  0.0
    243    244    245    246   5     0.52300    -0.09205     2.34722  0.0
    243    244    245    247   5     0.52300    -0.09205     2.34722  0.0
    243    244    245    251   5     0.00000     0.00000     3.10034  0.0
    244    245    246    252   5     0.00000     0.00000     1.95811  0.0
    244    245    246    253   5     0.00000     0.00000     1.95811  0.0
    244    245    246    254   5     0.00000     0.00000     1.95811  0.0
    247    245    246    252   5     0.00000     0.00000     1.25520  0.0
    247    245    246    253   5     0.00000     0.00000     1.25520  0.0
    247    245    246    254   5     0.00000     0.00000     1.25520  0.0
    251    245    246    252   5     0.00000     0.00000     1.25520  0.0
    251    245    246    253   5     0.00000     0.00000     1.25520  0.0
    251    245    246    254   5     0.00000     0.00000     1.25520  0.0
    244    245    247    255   5     0.00000     0.00000     1.95811  0.0
    244    245    247    256   5     0.00000     0.00000     1.95811  0.0
    244    245    247    257   5     0.00000     0.00000     1.95811  0.0
    246    245    247    255   5     0.00000     0.00000     1.25520  0.0
    246    245    247    256   5     0.00000     0.00000     1.25520  0.0
    246    245    247    257   5     0.00000     0.00000     1.25520  0.0
    251    245    247    255   5     0.00000     0.00000     1.25520  0.0
    251    245    247    256   5     0.00000     0.00000     1.25520  0.0
    251    245    247    257   5     0.00000     0.00000     1.25520  0.0
    243    258    259    260   5     5.25092    -2.58990     2.28446  0.0
    243    258    259    266   5     0.00000     0.00000     1.25520  0.0
    243    258    259    274   5     4.74884    -0.63178     1.67360  0.0
    264    258    259    260   5     0.00000     0.00000     1.95811  0.0
    264    258    259    266   5     0.00000     0.00000     1.25520  0.0
    264    258    259    274   5     0.00000     0.00000     1.25520  0.0
    265    258    259    260   5     0.00000     0.00000     1.95811  0.0
    265    258    259    266   5     0.00000     0.00000     1.25520  0.0
    265    258    259    274   5     0.00000     0.00000     1.25520  0.0
    258    259    260    261   5     0.52300    -0.09205     2.34722  0.0
    266    259    260    261   5     0.00000     0.00000     3.10034  0.0
    274    259    260    261   5     0.52300    -0.09205     2.34722  0.0
    258    259    274    275   5     4.74884    -0.63178     1.67360  0.0
    258    259    274    280   5     0.00000     0.00000     1.25520  0.0
    258    259    274    281   5     0.00000     0.00000     1.25520  0.0
    260    259    274    275   5     5.25092    -2.58990     2.28446  0.0
    260    259    274    280   5     0.00000     0.00000     1.95811  0.0
    260    259    274    281   5     0.00000     0.00000     1.95811  0.0
    266    259    274    275   5     0.00000     0.00000     1.25520  0.0
    266    259    274    280   5     0.00000     0.00000     1.25520  0.0
    266    259    274    281   5     0.00000     0.00000     1.25520  0.0
    259    260    261    262   5     0.52300    -0.09205     2.34722  0.0
    259    260    261    263   5     0.52300    -0.09205     2.34722  0.0
    259    260    261    267   5     0.00000     0.00000     3.10034  0.0
    260    261    262    268   5     0.00000     0.00000     1.95811  0.0
    260    261    262    269   5     0.00000     0.00000     1.95811  0.0
    260    261    262    270   5     0.00000     0.00000     1.95811  0.0
    263    261    262    268   5     0.00000     0.00000     1.25520  0.0
    263    261    262    269   5     0.00000     0.00000     1.25520  0.0
    263    261    262    270   5     0.00000     0.00000     1.25520  0.0
    267    261    262    268   5     0.00000     0.00000     1.25520  0.0
    267    261    262    269   5     0.00000     0.00000     1.25520  0.0
    267    261    262    270   5     0.00000     0.00000     1.25520  0.0
    260    261    263    271   5     0.00000     0.00000     1.95811  0.0
    260    261    263    272   5     0.00000     0.00000     1.95811  0.0
    260    261    263    273   5     0.00000     0.00000     1.95811  0.0
    262    261    263    271   5     0.00000     0.00000     1.25520  0.0
    262    261    263    272   5     0.00000     0.00000     1.25520  0.0
    262    261    263    273   5     0.00000     0.00000     1.25520  0.0
    267    261    263    271   5     0.00000     0.00000     1.25520  0.0
    267    261    263    272   5     0.00000     0.00000     1.25520  0.0
    267    261    263    273   5     0.00000     0.00000     1.25520  0.0
    259    274    275    276   5     5.25092    -2.58990     2.28446  0.0
    259    274    275    282   5     0.00000     0.00000     1.25520  0.0
    259    274    275    290   5     4.74884    -0.63178     1.67360  0.0
    280    274    275    276   5     0.00000     0.00000     1.95811  0.0
    280    274    275    282   5     0.00000     0.00000     1.25520  0.0
    280    274    275    290   5     0.00000     0.00000     1.25520  0.0
    281    274    275    276   5     0.00000     0.00000     1.95811  0.0
    281    274    275    282   5     0.00000     0.00000     1.25520  0.0
    281    274    275    290   5     0.00000     0.00000     1.25520  0.0
    274    275    276    277   5     0.52300    -0.09205     2.34722  0.0
    282    275    276    277   5     0.00000     0.00000     3.10034  0.0
    290    275    276    277   5     0.52300    -0.09205     2.34722  0.0
    274    275    290    291   5     4.74884    -0.63178     1.67360  0.0
    274    275    290    296   5     0.00000     0.00000     1.25520  0.0
    274    275    290    297   5     0.00000     0.00000     1.25520  0.0
    276    275    290    291   5     5.25092    -2.58990     2.28446  0.0
    276    275    290    296   5     0.00000     0.00000     1.95811  0.0
    276    275    290    297   5     0.00000     0.00000     1.95811  0.0
    282    275    290    291   5     0.00000     0.00000     1.25520  0.0
    282    275    290    296   5     0.00000     0.00000     1.25520  0.0
    282    275    290    297   5     0.00000     0.00000     1.25520  0.0
    275    276    277    278   5     0.52300    -0.09205     2.34722  0.0
    275    276    277    279   5     0.52300    -0.09205     2.34722  0.0
    275    276    277    283   5     0.00000     0.00000     3.10034  0.0
    276    277    278    284   5     0.00000     0.00000     1.95811  0.0
    276    277    278    285   5     0.00000     0.00000     1.95811  0.0
    276    277    278    286   5     0.00000     0.00000     1.95811  0.0
    279    277    278    284   5     0.00000     0.00000     1.25520  0.0
    279    277    278    285   5     0.00000     0.00000     1.25520  0.0
    279    277    278    286   5     0.00000     0.00000     1.25520  0.0
    283    277    278    284   5     0.00000     0.00000     1.25520  0.0
    283    277    278    285   5     0.00000     0.00000     1.25520  0.0
    283    277    278    286   5     0.00000     0.00000     1.25520  0.0
    276    277    279    287   5     0.00000     0.00000     1.95811  0.0
    276    277    279    288   5     0.00000     0.00000     1.95811  0.0
    276    277    279    289   5     0.00000     0.00000     1.95811  0.0
    278    277    279    287   5     0.00000     0.00000     1.25520  0.0
    278    277    279    288   5     0.00000     0.00000     1.25520  0.0
    278    277    279    289   5     0.00000     0.00000     1.25520  0.0
    283    277    279    287   5     0.00000     0.00000     1.25520  0.0
    283    277    279    288   5     0.00000     0.00000     1.25520  0.0
    283    277    279    289   5     0.00000     0.00000     1.25520  0.0
    275    290    291    292   5     5.25092    -2.58990     2.28446  0.0
    275    290    291    298   5     0.00000     0.00000     1.25520  0.0
    275    290    291    306   5     4.74884    -0.63178     1.67360  0.0
    296    290    291    292   5     0.00000     0.00000     1.95811  0.0
    296    290    291    298   5     0.00000     0.00000     1.25520  0.0
    296    290    291    306   5     0.00000     0.00000     1.25520  0.0
    297    290    291    292   5     0.00000     0.00000     1.95811  0.0
    297    290    291    298   5     0.00000     0.00000     1.25520  0.0
    297    290    291    306   5     0.00000     0.00000     1.25520  0.0
    290    291    292    293   5     0.52300    -0.09205     2.34722  0.0
    298    291    292    293   5     0.00000     0.00000     3.10034  0.0
    306    291    292    293   5     0.52300    -0.09205     2.34722  0.0
    290    291    306    307   5     4.74884    -0.63178     1.67360  0.0
    290    291    306    312   5     0.00000     0.00000     1.25520  0.0
    290    291    306    313   5     0.00000     0.00000     1.25520  0.0
    292    291    306    307   5     5.25092    -2.58990     2.28446  0.0
    292    291    306    312   5     0.00000     0.00000     1.95811  0.0
    292    291    306    313   5     0.00000     0.00000     1.95811  0.0
    298    291    306    307   5     0.00000     0.00000     1.25520  0.0
    298    291    306    312   5     0.00000     0.00000     1.25520  0.0
    298    291    306    313   5     0.00000     0.00000     1.25520  0.0
    291    292    293    294   5     0.52300    -0.09205     2.34722  0.0
    291    292    293    295   5     0.52300    -0.09205     2.34722  0.0
    291    292    293    299   5     0.00000     0.00000     3.10034  0.0
    292    293    294    300   5     0.00000     0.00000     1.95811  0.0
    292    293    294    301   5     0.00000     0.00000     1.95811  0.0
    292    293    294    302   5     0.00000     0.00000     1.95811  0.0
    295    293    294    300   5     0.00000     0.00000     1.25520  0.0
    295    293    294    301   5     0.00000     0.00000     1.25520  0.0
    295    293    294    302   5     0.00000     0.00000     1.25520  0.0
    299    293    294    300   5     0.00000     0.00000     1.25520  0.0
    299    293    294    301   5     0.00000     0.00000     1.25520  0.0
    299    293    294    302   5     0.00000     0.00000     1.25520  0.0
    292    293    295    303   5     0.00000     0.00000     1.95811  0.0
    292    293    295    304   5     0.00000     0.00000     1.95811  0.0
    292    293    295    305   5     0.00000     0.00000     1.95811  0.0
    294    293    295    303   5     0.00000     0.00000     1.25520  0.0
    294    293    295    304   5     0.00000     0.00000     1.25520  0.0
    294    293    295    305   5     0.00000     0.00000     1.25520  0.0
    299    293    295    303   5     0.00000     0.00000     1.25520  0.0
    299    293    295    304   5     0.00000     0.00000     1.25520  0.0
    299    293    295    305   5     0.00000     0.00000     1.25520  0.0
    291    306    307    308   5     5.25092    -2.58990     2.28446  0.0
    291    306    307    314   5     0.00000     0.00000     1.25520  0.0
    291    306    307    322   5     0.00000     0.00000     1.25520  0.0
    312    306    307    308   5     0.00000     0.00000     1.95811  0.0
    312    306    307    314   5     0.00000     0.00000     1.25520  0.0
    312    306    307    322   5     0.00000     0.00000     1.25520  0.0
    313    306    307    308   5     0.00000     0.00000     1.95811  0.0
    313    306    307    314   5     0.00000     0.00000     1.25520  0.0
    313    306    307    322   5     0.00000     0.00000     1.25520  0.0
    306    307    308    309   5     0.52300    -0.09205     2.34722  0.0
    314    307    308    309   5     0.00000     0.00000     3.10034  0.0
    322    307    308    309   5     0.00000     0.00000     3.10034  0.0
    307    308    309    310   5     0.52300    -0.09205     2.34722  0.0
    307    308    309    311   5     0.52300    -0.09205     2.34722  0.0
    307    308    309    315   5     0.00000     0.00000     3.10034  0.0
    308    309    310    316   5     0.00000     0.00000     1.95811  0.0
    308    309    310    317   5     0.00000     0.00000     1.95811  0.0
    308    309    310    318   5     0.00000     0.00000     1.95811  0.0
    311    309    310    316   5     0.00000     0.00000     1.25520  0.0
    311    309    310    317   5     0.00000     0.00000     1.25520  0.0
    311    309    310    318   5     0.00000     0.00000     1.25520  0.0
    315    309    310    316   5     0.00000     0.00000     1.25520  0.0
    315    309    310    317   5     0.00000     0.00000     1.25520  0.0
    315    309    310    318   5     0.00000     0.00000     1.25520  0.0
    308    309    311    319   5     0.00000     0.00000     1.95811  0.0
    308    309    311    320   5     0.00000     0.00000     1.95811  0.0
    308    309    311    321   5     0.00000     0.00000     1.95811  0.0
    310    309    311    319   5     0.00000     0.00000     1.25520  0.0
    310    309    311    320   5     0.00000     0.00000     1.25520  0.0
    310    309    311    321   5     0.00000     0.00000     1.25520  0.0
    315    309    311    319   5     0.00000     0.00000     1.25520  0.0
    315    309    311    320   5     0.00000     0.00000     1.25520  0.0
    315    309    311    321   5     0.00000     0.00000     1.25520  0.0
