Control file title. For DL_FIELD 4.10
49910
    1MOL     C1    1   6.860   6.323   7.001 -0.4398  0.2650 -0.5923
    1MOL     C2    2   6.876   6.338   7.156 -0.4947  0.6162  0.2981
    1MOL     O3    3   6.945   6.219   7.199  0.2997  0.6142  0.1478
    1MOL     C4    4   6.878   6.121   7.278 -0.1882  0.3680  0.9754
    1MOL     C5    5   6.986   6.032   7.345 -0.2184  0.5891 -0.2908
    1MOL     C6    6   6.786   6.052   7.185  0.0813  0.6261  0.3421
    1MOL     H7    7   6.845   6.423   6.962  0.3129  0.0032 -1.5654
    1MOL     H8    8   6.942   6.275   6.947  0.7539 -0.1326  1.5132
    1MOL     H9    9   6.777   6.364   7.194 -0.7921  0.6697 -0.5042
    1MOL    H10   10   6.814   6.166   7.354  1.1649  0.8723  1.8265
    1MOL    H11   11   7.068   6.076   7.403 -1.6364  2.6625  0.1977
    1MOL    H12   12   6.945   5.964   7.421 -1.6356 -0.6236 -2.0779
    1MOL    H13   13   7.030   5.969   7.267 -0.4653 -2.2923  1.7776
    1MOL    H14   14   6.712   6.119   7.141 -0.0518 -1.2712 -2.5135
    1MOL    H15   15   6.838   6.008   7.099 -0.3198  2.7881 -1.0581
    1MOL    H16   16   6.744   5.974   7.248  1.2287  1.7007  2.4516
    1MOL    H17   17   6.771   6.264   6.976 -1.5192  0.8653  1.7318
    1MOL    C18   18   6.980   6.451   7.190 -0.0822 -0.2615 -0.1419
    1MOL    C19   19   7.002   6.466   7.341 -0.0981 -0.0767  0.3753
    1MOL    O20   20   6.895   6.545   7.391  0.1541 -0.3474  0.1427
    1MOL    C21   21   6.860   6.530   7.528  0.3025  0.0617 -0.4389
    1MOL    C22   22   6.738   6.436   7.527 -0.4955  0.7105 -0.1689
    1MOL    C23   23   6.836   6.664   7.592 -0.5219  1.5479 -1.0471
    1MOL    H24   24   7.074   6.424   7.142  0.7439 -1.4163  2.0645
    1MOL    H25   25   6.956   6.549   7.147  2.2345  1.0154  1.3736
    1MOL    H26   26   7.004   6.367   7.387 -0.0253 -0.2366  0.0289
    1MOL    H27   27   6.943   6.480   7.578  0.3621 -1.0890 -1.6611
    1MOL    H28   28   6.646   6.491   7.506 -0.2116  1.4801  0.5713
    1MOL    H29   29   6.736   6.364   7.445 -3.4448 -0.3429  0.7823
    1MOL    H30   30   6.733   6.390   7.625  2.9965  2.1131  0.7432
    1MOL    H31   31   6.929   6.719   7.601  0.3306  0.2155 -1.5207
    1MOL    H32   32   6.784   6.674   7.687 -2.4970  1.5889 -2.0938
    1MOL    H33   33   6.765   6.712   7.524 -2.4125 -0.0322 -0.2586
    1MOL    C34   34   7.127   6.552   7.369 -0.2793  0.1505  0.2724
    1MOL    C35   35   7.255   6.458   7.388 -0.7373  0.0779  0.7894
    1MOL    O36   36   7.382   6.517   7.359 -0.5181 -0.2646 -0.2701
    1MOL    C37   37   7.424   6.511   7.224  0.8189 -0.2005  0.2070
    1MOL    C38   38   7.380   6.640   7.149  0.6754  0.1185  0.8067
    1MOL    C39   39   7.574   6.516   7.230 -0.3555  0.0835  0.3319
    1MOL    H40   40   7.108   6.613   7.457 -1.0175  0.1536  0.1126
    1MOL    H41   41   7.134   6.621   7.285 -1.3539  0.3027  0.3011
    1MOL    H42   42   7.234   6.370   7.327  0.8849  1.9174 -2.5784
    1MOL    H43   43   7.398   6.425   7.162 -0.9225  1.7429 -1.8281
    1MOL    H44   44   7.402   6.734   7.199  0.4122  1.4394 -1.4922
    1MOL    H45   45   7.274   6.641   7.127  1.1634 -2.7134 -2.1212
    1MOL    H46   46   7.424   6.645   7.049 -0.3968 -0.7816  0.2712
    1MOL    H47   47   7.615   6.607   7.275  1.0912 -1.3932  2.0993
    1MOL    H48   48   7.607   6.429   7.285  1.5874 -0.5594 -1.7515
    1MOL    H49   49   7.595   6.510   7.123  1.6708  2.2110  0.5379
    1MOL    C50   50   7.270   6.428   7.542  0.5506  0.5324  0.4675
    1MOL    C51   51   7.365   6.311   7.577  0.1509  0.3017 -0.1237
    1MOL    O52   52   7.322   6.186   7.506 -0.0457  0.2389  0.5825
    1MOL    C53   53   7.421   6.097   7.470 -0.1758  0.4392 -0.3105
    1MOL    C54   54   7.471   6.129   7.328  0.0339  0.0824  0.2121
    1MOL    C55   55   7.342   5.960   7.460 -0.1253  0.0329 -0.2289
    1MOL    H56   56   7.303   6.515   7.599  1.2516  0.0008  0.8810
    1MOL    H57   57   7.174   6.407   7.589 -0.6820 -0.4644 -2.3930
    1MOL    H58   58   7.463   6.343   7.540 -0.0444  1.5345  0.4071
    1MOL    H59   59   7.503   6.086   7.541 -1.2373 -1.6331  0.6447
    1MOL    H60   60   7.397   6.107   7.251 -0.2061 -1.4005  0.8429
    1MOL    H61   61   7.568   6.084   7.305  0.2571 -0.4786  2.1329
    1MOL    H62   62   7.493   6.235   7.316 -1.8296  0.4643  0.0502
    1MOL    H63   63   7.322   5.920   7.560 -0.9795 -0.8404 -0.7450
    1MOL    H64   64   7.397   5.876   7.420 -0.2237  0.2788 -0.8889
    1MOL    H65   65   7.257   5.967   7.393  0.6804  0.8739 -1.1815
    1MOL    C66   66   7.385   6.294   7.728  0.5389  0.2962 -0.4210
    1MOL    C67   67   7.279   6.206   7.803  0.7676  0.2853 -0.3842
    1MOL    O68   68   7.151   6.273   7.797 -0.4183  0.1935  0.0836
    1MOL    C69   69   7.036   6.197   0.011  0.2981 -0.2165 -0.4122
    1MOL    C70   70   6.922   6.296   0.048 -0.1816 -0.0789  0.3196
    1MOL    C71   71   6.987   6.099   7.728 -0.2355 -0.3122  0.0901
    1MOL    H72   72   7.474   6.232   7.740 -0.5708 -1.2366  0.1164
    1MOL    H73   73   7.403   6.387   7.782 -0.5085  1.2680 -1.7261
    1MOL    H74   74   7.253   6.117   7.745 -0.0467  0.2809 -0.0247
    1MOL    H75   75   7.050   6.137   0.101 -2.7696 -2.2444 -1.2068
    1MOL    H76   76   6.908   6.369   7.789  0.2134 -0.4526 -0.1007
    1MOL    H77   77   6.829   6.239   0.047 -0.3388  0.1770  0.3748
    1MOL    H78   78   6.942   6.342   0.145 -0.4056  1.3855 -0.3183
    1MOL    H79   79   6.970   6.139   7.627  1.4149  0.1345 -0.0280
    1MOL    H80   80   6.889   6.059   7.752 -0.1345 -0.5270  0.1494
    1MOL    H81   81   7.070   6.030   7.711  0.3005  0.0887  1.0443
    1MOL    C82   82   7.307   6.185   0.135 -0.2309 -0.4049  0.0796
    1MOL    C83   83   7.442   6.118   0.161 -0.5744  0.7903  0.0252
    1MOL    O84   84   7.458   6.088   0.300 -0.7219 -0.1573 -0.1025
    1MOL    C85   85   7.548   6.170   0.377  0.4078 -0.0739  0.2542
    1MOL    C86   86   7.522   6.118   0.517 -0.1178  0.1600  0.2616
    1MOL    C87   87   7.524   6.321   0.368 -0.3227 -0.0985  0.1404
    1MOL    H88   88   7.305   6.283   0.182  0.8027  0.7833 -2.2795
    1MOL    H89   89   7.235   6.125   0.191 -3.1635  3.2782  0.4760
    1MOL    H90   90   7.526   6.181   0.133  1.0285 -1.4839 -0.3995
    1MOL    H91   91   7.651   6.157   0.344 -0.4125 -2.1856 -1.6033
    1MOL    H92   92   7.598   6.156   0.586  2.9883 -0.5616 -2.6180
    1MOL    H93   93   7.425   6.153   0.550 -1.0053 -1.1652 -0.8698
    1MOL    H94   94   7.506   6.011   0.522 -1.9451  0.3411 -1.1546
    1MOL    H95   95   7.573   6.360   0.280  1.0359  0.3246  1.0654
    1MOL    H96   96   7.420   6.350   0.381 -0.0172  0.4799  1.3777
    1MOL    H97   97   7.565   6.363   0.460 -1.4769  1.2230  0.0610
    1MOL    C98   98   7.453   5.974   0.095 -0.6621  1.3529 -0.1677
    1MOL    C99   99   7.608   5.947   0.066 -0.5784  0.1498 -0.0415
    1MOL   O100  100   7.644   6.033   7.785  0.0243  0.1881 -0.7731
    1MOL   C101  101   7.781   6.083   7.774 -0.3163  0.9341  0.1169
    1MOL   C102  102   7.778   6.219   0.016 -0.3055  0.3808  0.1068
    1MOL   C103  103   0.002   6.092   7.628  0.3467 -0.3215 -0.2272
    1MOL   H104  104   7.412   5.904   0.167  1.8186 -0.7198 -0.6891
    1MOL   H105  105   7.387   5.966   0.008  1.0688  1.4043 -1.5231
    1MOL   H106  106   7.671   5.967   0.153  0.2102 -1.5057 -0.2184
    1MOL   H107  107   0.029   6.008   7.815 -0.0252  0.6902 -0.8127
    1MOL   H108  108   7.755   6.199   0.120  0.7390  0.4793  0.3651
    1MOL   H109  109   7.703   6.290   7.802 -1.7472 -1.9177 -1.6381
    1MOL   H110  110   0.058   6.261   0.024 -0.6732  1.2334  0.2175
    1MOL   H111  111   0.099   6.137   7.607  0.7754 -0.7016  0.8975
    1MOL   H112  112   7.744   6.156   7.588 -0.5005 -2.6314 -2.4121
    1MOL   H113  113   7.812   6.001   7.568 -1.5266  0.2030 -0.7302
    1MOL   C114  114   7.646   5.802   0.025 -0.0975 -0.0624 -0.5575
    1MOL   C115  115   7.656   5.699   0.147 -0.2151  0.2248  0.4718
    1MOL   O116  116   7.735   5.739   0.256  0.1475  0.4373  0.1555
    1MOL   C117  117   0.051   5.760   0.227 -0.2253  0.8588  0.0771
    1MOL   C118  118   0.125   5.637   0.268  0.3500  0.2017  0.4567
    1MOL   C119  119   0.089   5.877   0.305 -0.0450 -0.4359 -0.6786
    1MOL   H120  120   7.740   5.812   7.791 -0.7678  0.7536 -1.5675
    1MOL   H121  121   7.572   5.757   7.779  1.3508 -0.2942 -2.0530
    1MOL   H122  122   7.691   5.605   0.106 -0.8223  0.1151  0.1983
    1MOL   H123  123   0.073   5.771   0.120 -0.6186 -0.0716 -0.1022
    1MOL   H124  124   0.102   5.617   0.373  0.4588  0.2133  0.4827
    1MOL   H125  125   0.233   5.648   0.255  0.1429 -0.0150 -1.5079
    1MOL   H126  126   0.082   5.551   0.217  0.7848 -0.7791  1.7036
    1MOL   H127  127   0.038   5.878   0.401 -1.6490 -1.8062 -1.5000
    1MOL   H128  128   0.043   5.964   0.256 -3.3469 -2.0662 -0.6083
    1MOL   H129  129   0.198   5.875   0.313 -0.1576  0.2537  1.5114
    1MOL   C130  130   7.523   5.666   0.210  0.5674 -0.7538  0.2690
    1MOL   C131  131   7.519   5.544   0.305  0.2013  0.0725  0.2193
    1MOL   O132  132   7.509   5.430   0.217  1.8715 -0.2278  0.9969
    1MOL   C133  133   7.544   5.306   0.267  0.0840 -0.0050  1.1220
    1MOL   C134  134   7.464   5.193   0.198 -0.4735  0.2973 -0.2551
    1MOL   C135  135   7.695   5.286   0.263 -0.1134 -0.5809 -0.2422
    1MOL   H136  136   7.448   5.662   0.131  1.1661  1.3589 -0.4348
    1MOL   H137  137   7.488   5.753   0.266  0.9094  0.3106 -1.1370
    1MOL   H138  138   7.611   5.544   0.364  0.2128 -1.4459  0.2173
    1MOL   H139  139   7.521   5.293   0.373  0.6497  0.1186  1.2607
    1MOL   H140  140   7.474   5.210   0.091  0.0500  2.0207  0.0647
    1MOL   H141  141   7.361   5.189   0.231 -0.4546 -0.9680 -0.3291
    1MOL   H142  142   7.506   5.093   0.213  0.4429  0.1457 -3.4628
    1MOL   H143  143   7.725   5.191   0.306 -0.6316  0.2687  2.0391
    1MOL   H144  144   7.726   5.289   0.158  0.1560  1.2612 -0.1372
    1MOL   H145  145   7.757   5.361   0.312 -0.3182 -0.5610 -0.0116
    1MOL   C146  146   7.396   5.546   0.396 -0.9781  0.3283 -0.3498
    1MOL   C147  147   7.413   5.629   0.525  0.2515  0.2357 -0.1712
    1MOL   O148  148   7.295   5.640   0.595 -0.0854 -0.0773  0.0546
    1MOL   C149  149   7.201   5.741   0.558  0.1513  0.0942 -0.5361
    1MOL   C150  150   7.229   5.875   0.633 -0.7135 -0.0810  0.3109
    1MOL   C151  151   7.062   5.681   0.581  0.1949  0.2431 -0.6326
    1MOL   H152  152   7.369   5.446   0.431 -0.9967  0.0528 -1.1516
    1MOL   H153  153   7.313   5.572   0.330  0.9311 -0.2505 -3.0466
    1MOL   H154  154   7.452   5.730   0.508 -2.6635  1.0083 -2.9232
    1MOL   H155  155   7.203   5.763   0.452  1.5182  0.1831 -0.4938
    1MOL   H156  156   7.151   5.948   0.612 -0.6740  0.2327  1.2023
    1MOL   H157  157   7.320   5.922   0.595 -1.2811  0.0438 -0.9232
    1MOL   H158  158   7.229   5.861   0.741  0.9790 -0.4879  0.2778
    1MOL   H159  159   7.039   5.680   0.688 -0.0078 -0.2080 -0.6779
    1MOL   H160  160   7.039   5.585   0.535 -0.8894 -0.5080  1.4169
    1MOL   H161  161   6.984   5.744   0.539 -0.3822 -0.5395 -0.7509
    1MOL   C162  162   7.504   5.561   0.628 -0.0108 -0.0805 -0.2712
    1MOL   C163  163   7.531   5.641   0.759 -0.6674 -0.3806 -0.7274
    1MOL   O164  164   7.616   5.549   0.835 -0.6490  0.0516  0.4971
    1MOL   C165  165   7.545   5.480   0.932  1.1151 -0.0102 -0.3257
    1MOL   C166  166   7.533   5.580   1.049 -0.2385  0.0947 -1.0067
    1MOL   C167  167   7.633   5.365   0.974 -0.2368  0.1251 -0.0487
    1MOL   H168  168   7.450   5.472   0.660 -2.2696  0.5412 -2.1822
    1MOL   H169  169   7.594   5.521   0.582  0.5692  0.4966  0.3532
    1MOL   H170  170   7.442   5.682   0.806  1.2012  1.2795  1.4569
    1MOL   H171  171   7.448   5.450   0.894  0.1313  2.7251 -0.1237
    1MOL   H172  172   7.485   5.535   1.135  1.6409 -0.6145 -0.2901
    1MOL   H173  173   7.478   5.670   1.021  0.7677  0.8079 -0.7317
    1MOL   H174  174   7.633   5.608   1.083  0.2150 -1.0920 -1.3395
    1MOL   H175  175   7.722   5.402   1.023  0.1813 -2.3942  1.2087
    1MOL   H176  176   7.661   5.310   0.884 -0.6349  0.8676 -0.6332
    1MOL   H177  177   7.573   5.311   1.048  1.4007  0.8838  1.8800
    1MOL   C178  178   7.629   5.755   0.728  0.1329  0.7451  0.1178
    1MOL   C179  179   7.663   5.854   0.840  0.2057 -0.8543 -0.8954
    1MOL   O180  180   7.780   5.935   0.808  0.1883  0.5313 -0.1334
    1MOL   C181  181   0.091   5.875   0.795 -0.6839 -1.3563 -0.3322
    1MOL   C182  182   0.142   5.813   0.931  0.2945 -0.5452  0.6473
    1MOL   C183  183   0.177   5.991   0.743 -0.0004  0.2392 -0.0108
    1MOL   H184  184   7.603   5.818   0.643  2.1395  1.2854 -0.1242
    1MOL   H185  185   7.715   5.709   0.679  0.3232  0.5023  0.6666
    1MOL   H186  186   7.678   5.794   0.930 -0.0440  1.5751  0.8104
    1MOL   H187  187   0.092   5.796   0.719 -0.2307 -0.5991 -1.1295
    1MOL   H188  188   0.243   5.773   0.924  0.4994  0.1897 -0.8561
    1MOL   H189  189   0.071   5.735   0.958 -2.9996  2.5632  1.3665
    1MOL   H190  190   0.123   5.881   1.015 -0.1951 -1.0381  0.9394
    1MOL   H191  191   0.277   5.949   0.737 -0.2617 -0.8590  2.6356
    1MOL   H192  192   0.189   6.070   0.817 -2.0369 -0.3608  1.0163
    1MOL   H193  193   0.159   6.030   0.643 -0.3063 -1.8249 -0.7714
    1MOL   C194  194   7.548   5.961   0.868  1.4479 -0.2910 -0.2203
    1MOL   C195  195   7.544   6.038   1.004  0.4314 -0.3388 -0.0660
    1MOL   O196  196   7.515   5.947   1.100 -0.5668 -0.3547 -0.3669
    1MOL   C197  197   7.564   5.984   1.230 -0.1696  0.0331 -0.0571
    1MOL   C198  198   7.473   5.915   1.332  0.1269 -0.1769  1.0234
    1MOL   C199  199   7.712   5.952   1.243 -0.8732  0.2513 -0.2676
    1MOL   H200  200   7.558   6.032   0.786  2.3256  1.2368  1.1598
    1MOL   H201  201   7.455   5.905   0.855  0.2495  1.4766  0.5721
    1MOL   H202  202   7.634   6.096   1.028  0.1676 -0.3255  0.8800
    1MOL   H203  203   7.534   6.084   1.260 -2.0105 -0.5357  0.0746
    1MOL   H204  204   7.367   5.937   1.319  0.2432  0.8290  1.8073
    1MOL   H205  205   7.475   5.806   1.324  0.7908 -0.1005  0.1154
    1MOL   H206  206   7.507   5.945   1.431 -0.4107  1.3359  0.7553
    1MOL   H207  207   7.723   5.852   1.201  1.7222 -0.4658  1.9794
    1MOL   H208  208   7.777   6.025   1.194 -0.4997  1.2700  1.7130
    1MOL   H209  209   7.744   5.957   1.347  2.0732 -1.3684 -1.0323
    1MOL   C210  210   7.438   6.151   1.010  0.0289  0.0866  0.6255
    1MOL   C211  211   7.492   6.288   0.992  0.1659 -0.5559  0.5868
    1MOL   O212  212   7.384   6.365   0.959  0.5119 -0.0439  0.5868
    1MOL   C213  213   7.402   6.467   0.859 -0.2388 -0.1506  0.1285
    1MOL   C214  214   7.385   6.400   0.724  0.2861  0.5127  0.9248
    1MOL   C215  215   7.300   6.573   0.878  0.2755 -0.5480  0.0918
    1MOL   H216  216   7.376   6.143   1.099 -1.2049 -0.3028 -0.2599
    1MOL   H217  217   7.354   6.126   0.946  2.0403  2.1480 -3.0028
    1MOL   H218  218   7.552   6.291   0.901  0.8512  0.8356  1.0692
    1MOL   H219  219   7.502   6.509   0.862 -0.6799  0.8716  0.7568
    1MOL   H220  220   7.473   6.339   0.703 -2.1135 -3.0488  0.6838
    1MOL   H221  221   7.374   6.475   0.646 -0.0934 -1.2127 -0.7038
    1MOL   H222  222   7.300   6.332   0.717  1.2781 -0.7185  0.7830
    1MOL   H223  223   7.202   6.540   0.843  0.3380  0.6388 -1.2117
    1MOL   H224  224   7.336   6.665   0.832  0.9725  0.3044  2.2716
    1MOL   H225  225   7.287   6.605   0.981 -0.4496 -0.2730 -0.0858
    1MOL   C226  226   7.572   6.349   1.109  0.0396 -0.4979 -0.0229
    1MOL   C227  227   7.673   6.467   1.077  0.3508 -0.7030  0.2876
    1MOL   O228  228   7.811   6.432   1.120  0.8498 -0.0254 -0.1536
    1MOL   C229  229   0.054   6.322   1.061 -0.0411 -1.4546  0.0067
    1MOL   C230  230   0.184   6.300   1.133 -0.1543 -0.1828 -0.6330
    1MOL   C231  231   0.063   6.337   0.913  0.8162  0.3635 -0.3680
    1MOL   H232  232   7.627   6.264   1.151  2.2834  0.6437 -0.5968
    1MOL   H233  233   7.502   6.383   1.185  1.6039  0.5815  0.9496
    1MOL   H234  234   7.698   6.487   0.973  0.6493 -0.2512  0.4465
    1MOL   H235  235   7.817   6.232   1.084 -1.0563 -0.2670  2.3150
    1MOL   H236  236   0.152   6.284   1.236  1.4547 -0.1586 -0.1127
    1MOL   H237  237   0.222   6.205   1.096  0.1302  0.0235 -0.8820
    1MOL   H238  238   0.249   6.387   1.133 -0.2278 -0.0553  2.8752
    1MOL   H239  239   0.103   6.434   0.884  1.8683 -0.1590 -0.6959
    1MOL   H240  240   7.785   6.324   0.868  1.4426  0.1176 -1.6887
    1MOL   H241  241   0.133   6.264   0.871  1.1136  0.4730 -0.0674
    1MOL   C242  242   7.637   6.590   1.168 -0.4097  0.4988 -0.5522
    1MOL   C243  243   7.732   6.708   1.153  0.3578  0.3707 -0.7055
    1MOL   O244  244   7.696   6.806   1.247  0.1138 -0.5705  0.4203
    1MOL   C245  245   7.765   6.799   1.374 -0.2867  0.1297  0.3685
    1MOL   C246  246   0.068   6.893   1.353 -0.2775 -0.1360 -0.1604
    1MOL   C247  247   7.669   6.825   1.487  0.3875  0.1828  0.0810
    1MOL   H248  248   7.537   6.631   1.150 -0.3327  1.7197  1.7183
    1MOL   H249  249   7.629   6.554   1.270  1.2884  0.8263 -0.2899
    1MOL   H250  250   0.017   6.682   1.160  0.6256  0.7260 -3.0323
    1MOL   H251  251   7.794   6.696   1.397  1.2714  0.3712 -0.5051
    1MOL   H252  252   0.035   6.993   1.323 -0.2195  0.3166  1.2563
    1MOL   H253  253   0.131   6.905   1.441  2.6648 -1.3321 -2.0224
    1MOL   H254  254   0.118   6.852   1.265 -1.0116  3.2635 -2.2776
    1MOL   H255  255   7.569   6.782   1.474  0.2954 -0.0449  1.4861
    1MOL   H256  256   7.707   6.806   1.587  0.9167  0.2378 -0.1085
    1MOL   H257  257   7.648   6.932   1.481 -0.8896 -0.1272 -1.2587
    1MOL   C258  258   7.713   6.778   1.020  0.2318 -0.3360  0.6443
    1MOL   C259  259   0.003   6.869   0.968  0.1680 -0.5547  0.3456
    1MOL   O260  260   7.768   6.931   0.854 -0.0315  0.4815  0.3596
    1MOL   C261  261   7.693   7.052   0.871  0.6811  0.0332  0.3130
    1MOL   C262  262   7.792   7.168   0.829 -0.1298  0.4837 -0.8523
    1MOL   C263  263   7.580   7.037   0.764 -0.6330 -0.1994 -0.6365
    1MOL   H264  264   7.694   6.703   0.943  0.3599  1.0845 -0.7770
    1MOL   H265  265   7.621   6.836   1.023  0.6007  0.7418 -4.5505
    1MOL   H266  266   0.040   6.937   1.044 -1.7282 -0.3156  1.0849
    1MOL   H267  267   7.647   7.068   0.969 -0.5555 -1.3426 -0.0269
    1MOL   H268  268   0.057   7.172   0.896  0.1928 -3.8902 -0.9007
    1MOL   H269  269   7.739   7.263   0.824 -0.8955  0.0268 -1.5556
    1MOL   H270  270   7.819   7.163   0.724 -2.4530  0.8347 -1.4908
    1MOL   H271  271   7.613   7.005   0.665  0.8387 -1.5099  0.2460
    1MOL   H272  272   7.495   6.979   0.801  0.5834 -1.5695  0.0658
    1MOL   H273  273   7.544   7.136   0.738 -0.8358 -0.0159  0.3496
    1MOL   C274  274   0.121   6.787   0.925 -0.3883 -0.2834  0.1726
    1MOL   C275  275   0.255   6.870   0.911  0.2716 -0.5183  0.9686
    1MOL   O276  276   0.359   6.777   0.945  0.1164 -0.1986 -0.0223
    1MOL   C277  277   0.377   6.764   1.088  0.2511 -0.1733  0.1883
    1MOL   C278  278   0.457   6.874   1.153 -0.2058  0.1377 -0.0069
    1MOL   C279  279   0.464   6.640   1.093  0.1200 -0.0583 -0.5291
    1MOL   H280  280   0.139   6.699   0.987 -0.6135 -0.8786 -0.6002
    1MOL   H281  281   0.091   6.739   0.832 -0.8527 -1.6253  0.9923
    1MOL   H282  282   0.251   6.960   0.972 -0.7688  0.7636 -0.9359
    1MOL   H283  283   0.284   6.753   1.144  0.0403  1.6841  0.2446
    1MOL   H284  284   0.404   6.969   1.162 -0.5140 -0.0099 -0.2399
    1MOL   H285  285   0.479   6.856   1.258  2.1475  1.4844 -0.2462
    1MOL   H286  286   0.548   6.887   1.095 -0.0950 -1.2325 -0.1606
    1MOL   H287  287   0.554   6.659   1.035 -1.4865  0.2985 -2.9615
    1MOL   H288  288   0.414   6.552   1.053  1.9907  0.4815 -4.2709
    1MOL   H289  289   0.495   6.629   1.197  1.9673 -0.1795 -1.0859
    1MOL   C290  290   0.275   6.921   0.767  0.1867 -0.2091  0.4482
    1MOL   C291  291   0.374   7.035   0.749 -0.1935 -0.8796 -1.0420
    1MOL   O292  292   0.497   6.998   0.689  0.0752  0.4767 -0.2008
    1MOL   C293  293   0.588   6.902   0.754  0.2122  0.2336 -0.2533
    1MOL   C294  294   0.674   6.978   0.852 -0.4843 -0.2685 -0.5786
    1MOL   C295  295   0.668   6.823   0.649 -0.4485  0.0441 -0.4282
    1MOL   H296  296   0.180   6.951   0.721  1.7723  0.9965 -2.1610
    1MOL   H297  297   0.304   6.843   0.696 -2.1823 -1.8164  1.1666
    1MOL   H298  298   0.397   7.077   0.847 -0.3515  0.6090 -1.6268
    1MOL   H299  299   0.535   6.824   0.809  0.6120 -0.0513 -0.2707
    1MOL   H300  300   0.614   7.008   0.938  0.4052 -2.5434  0.8610
    1MOL   H301  301   0.755   6.922   0.898 -0.4677 -1.5367 -2.1049
    1MOL   H302  302   0.714   7.066   0.801  0.4394 -0.2792  0.1104
    1MOL   H303  303   0.734   6.878   0.583  0.9238 -0.9827  0.0597
    1MOL   H304  304   0.713   6.737   0.700 -0.0924  0.4363 -0.0858
    1MOL   H305  305   0.602   6.766   0.583  0.1815  0.7297 -1.6584
    1MOL   C306  306   0.332   7.155   0.658  0.0052 -0.3993  0.1478
    1MOL   C307  307   0.417   7.284   0.660  0.1454 -0.2483  0.9578
    1MOL   O308  308   0.457   7.321   0.790 -0.7367 -0.1953 -0.5867
    1MOL   C309  309   0.537   7.445   0.792 -0.1095 -0.6214 -0.7019
    1MOL   C310  310   0.535   7.499   0.939 -0.4653  0.6814 -0.6612
    1MOL   C311  311   0.682   7.421   0.746  0.3438 -0.3559 -0.0532
    1MOL   H312  312   0.235   7.192   0.689 -0.3599 -1.2760  0.0514
    1MOL   H313  313   0.332   7.117   0.556  2.5290 -3.7036  1.2572
    1MOL   H314  314   0.505   7.256   0.602 -0.0233  0.6705  0.2311
    1MOL   H315  315   0.480   7.523   0.741  2.0293  0.4441 -1.5140
    1MOL   H316  316   0.433   7.497   0.977 -0.2382 -0.2456 -0.0682
    1MOL   H317  317   0.590   7.593   0.950 -0.2965  0.3644  1.4181
    1MOL   H318  318   0.577   7.416   0.997  0.0111  0.9517 -0.6135
    1MOL   H319  319   0.688   7.395   0.640  0.4313 -1.4790  0.2175
    1MOL   H320  320   0.732   7.340   0.800 -0.7419  0.2803  1.9743
    1MOL   H321  321   0.750   7.506   0.747 -0.3799  0.2305  0.8239
    1MOL   H322  322   0.364   7.363   0.607  1.8771 -0.2668 -0.8609
    2MOL     C1  323   2.163   0.377   7.717 -0.4831 -0.3327 -0.5921
    2MOL     C2  324   2.175   0.329   0.042 -0.0011 -0.2508 -0.8177
    2MOL     O3  325   2.211   0.195   0.045  0.3238 -0.2368 -0.2620
    2MOL     C4  326   2.111   0.109   7.818  0.0872  0.2969 -0.6322
    2MOL     C5  327   2.095   0.001   0.100  0.4117  0.4096 -0.6171
    2MOL     C6  328   2.163   0.046   7.690 -0.7488  0.2364  0.3016
    2MOL     H7  329   2.265   0.373   7.677  0.0800 -0.6040  0.8273
    2MOL     H8  330   2.100   0.316   7.652  0.4318 -0.3600 -1.4716
    2MOL     H9  331   2.078   0.333   0.092  0.4794  2.7492 -0.0377
    2MOL    H10  332   2.012   0.148   7.797  0.0415  0.2847 -0.4373
    2MOL    H11  333   2.194   7.781   0.123  0.6168  0.6445 -1.0630
    2MOL    H12  334   2.047   0.045   0.187  0.2617  0.4449 -0.7184
    2MOL    H13  335   2.030   7.743   0.061  0.7031 -1.0494  1.7192
    2MOL    H14  336   2.264   0.006   7.706 -0.1035  2.0772  1.0888
    2MOL    H15  337   2.099   7.783   7.663  0.5403 -1.0659  1.2034
    2MOL    H16  338   2.174   0.123   7.614  0.0811 -0.2714 -0.1050
    2MOL    H17  339   2.111   0.473   7.716  2.1047  1.1583 -4.1538
    2MOL    C18  340   2.278   0.414   0.127  0.0458 -0.8549  0.0718
    2MOL    C19  341   2.260   0.404   0.282 -0.5370 -0.6863 -0.3673
    2MOL    O20  342   2.150   0.492   0.314  0.8818 -0.2383  0.4804
    2MOL    C21  343   2.056   0.454   0.417 -0.5576  0.3276 -0.5844
    2MOL    C22  344   1.964   0.340   0.373  0.0862 -0.4414 -0.5163
    2MOL    C23  345   1.981   0.570   0.481 -0.2455  0.1624  0.2908
    2MOL    H24  346   2.381   0.380   0.115  0.7259  0.9690  0.6058
    2MOL    H25  347   2.268   0.519   0.101 -2.6331 -1.3259 -0.8347
    2MOL    H26  348   2.239   0.299   0.305 -0.7998 -0.7100 -0.7132
    2MOL    H27  349   2.115   0.415   0.500 -1.8674 -0.7785 -0.1556
    2MOL    H28  350   2.009   0.242   0.387 -0.6677 -0.4838  1.7178
    2MOL    H29  351   1.873   0.344   0.433  1.5959 -1.6063  1.9236
    2MOL    H30  352   1.937   0.353   0.268  2.8249  3.2093 -0.8820
    2MOL    H31  353   1.915   0.627   0.415  1.1478 -1.1592 -2.3186
    2MOL    H32  354   2.049   0.632   0.539  1.6503 -0.3914 -1.2925
    2MOL    H33  355   1.909   0.527   0.550  0.1250 -1.8907 -0.5676
    2MOL    C34  356   2.387   0.448   0.352  0.1293  0.9618 -0.0150
    2MOL    C35  357   2.498   0.335   0.390 -0.1381  0.4821 -0.2689
    2MOL    O36  358   2.531   0.272   0.267 -0.5368 -0.2715 -0.4980
    2MOL    C37  359   2.583   0.140   0.274  0.2231  0.0873  0.3473
    2MOL    C38  360   2.478   0.027   0.271 -0.0445  0.2611  0.0120
    2MOL    C39  361   2.699   0.118   0.176  0.0810 -0.0601 -0.1586
    2MOL    H40  362   2.354   0.502   0.440 -1.1104  1.1038 -0.5668
    2MOL    H41  363   2.426   0.526   0.287 -0.3704  0.3526 -1.0656
    2MOL    H42  364   2.458   0.259   0.458  0.6563 -1.7226 -2.1808
    2MOL    H43  365   2.633   0.130   0.370 -0.6599  0.2523  0.8267
    2MOL    H44  366   2.539   7.757   0.280 -0.3763  0.0767  0.3940
    2MOL    H45  367   2.408   0.029   0.187  0.5945  0.7903 -0.5163
    2MOL    H46  368   2.427   0.025   0.367 -1.4995  0.4039 -0.7368
    2MOL    H47  369   2.783   0.061   0.216  1.9571  1.7303 -1.4051
    2MOL    H48  370   2.658   0.077   0.084 -2.5775  0.0712  0.9227
    2MOL    H49  371   2.734   0.219   0.154  1.0663 -0.5643 -0.9700
    2MOL    C50  372   2.629   0.394   0.448  0.0559 -0.4569 -0.6308
    2MOL    C51  373   2.671   0.354   0.590  0.4974  0.6245 -0.3126
    2MOL    O52  374   2.595   0.431   0.680 -0.0542 -0.0368  0.3383
    2MOL    C53  375   2.577   0.380   0.810 -0.0819  0.4124  0.0246
    2MOL    C54  376   2.448   0.285   0.804  0.0132  0.8330 -0.0962
    2MOL    C55  377   2.549   0.500   0.899 -0.2543  0.7424  0.1154
    2MOL    H56  378   2.718   0.377   0.386  0.5391  2.3515 -0.8027
    2MOL    H57  379   2.621   0.503   0.455  2.2473 -0.2047 -1.5662
    2MOL    H58  380   2.636   0.252   0.605 -0.0409  1.1243  1.9854
    2MOL    H59  381   2.663   0.334   0.858  0.0768 -2.0560 -2.4929
    2MOL    H60  382   2.421   0.243   0.902 -1.4960 -0.7506 -1.1537
    2MOL    H61  383   2.481   0.203   0.740 -0.2689  0.9335 -0.3656
    2MOL    H62  384   2.359   0.330   0.760  0.2277  1.6605  0.3099
    2MOL    H63  385   2.645   0.550   0.908 -0.3784  0.7195  1.7515
    2MOL    H64  386   2.523   0.476   1.002  1.7221  2.0623  0.9437
    2MOL    H65  387   2.468   0.568   0.869 -1.2011 -0.1207  0.7025
    2MOL    C66  388   2.821   0.378   0.622  0.1194  0.4027 -0.3553
    2MOL    C67  389   2.887   0.245   0.642 -0.0409  0.5178 -0.7309
    2MOL    O68  390   2.843   0.187   0.763 -0.2627 -0.3964 -0.3269
    2MOL    C69  391   2.877   0.048   0.791 -0.4331  0.0116 -0.0105
    2MOL    C70  392   2.808   0.024   0.927  0.5583  0.1421  0.3675
    2MOL    C71  393   2.820   7.767   0.686  0.4921 -0.1699  0.0315
    2MOL    H72  394   2.876   0.431   0.544  0.3898  1.6407  0.6551
    2MOL    H73  395   2.818   0.446   0.707 -2.3011  0.8684 -0.7696
    2MOL    H74  396   2.862   0.175   0.562 -1.1584 -2.1596  1.8760
    2MOL    H75  397   2.982   0.026   0.805  0.2124  2.0900 -1.3546
    2MOL    H76  398   2.819   7.745   0.968  1.3983  1.1058  2.5476
    2MOL    H77  399   2.844   0.093   1.003 -1.2145  1.2312  0.2615
    2MOL    H78  400   2.703   0.048   0.905  0.1517 -0.9243  1.1306
    2MOL    H79  401   2.814   7.672   0.741  1.6988  1.3569  2.9221
    2MOL    H80  402   2.888   7.754   0.603  2.9217 -0.7578  2.0590
    2MOL    H81  403   2.719   7.782   0.647  0.0551 -0.5998  0.9467
    2MOL    C82  404   3.042   0.266   0.655  0.2325 -0.6891  0.7687
    2MOL    C83  405   3.116   0.284   0.518  0.2812 -0.1780 -0.1906
    2MOL    O84  406   3.085   0.414   0.468  0.7035  0.0973 -0.2598
    2MOL    C85  407   3.129   0.453   0.338  0.2752 -0.3489  0.9070
    2MOL    C86  408   3.089   0.605   0.326  0.2429 -0.6693  0.0751
    2MOL    C87  409   3.085   0.362   0.221  0.5383  0.1241  0.5662
    2MOL    H88  410   3.069   0.352   0.717 -0.1137  0.6700 -0.9296
    2MOL    H89  411   3.077   0.189   0.723  0.4581 -2.5285 -1.4059
    2MOL    H90  412   3.070   0.215   0.448 -0.4146 -2.6668  2.5837
    2MOL    H91  413   3.237   0.451   0.348  0.4692  0.9036 -0.7377
    2MOL    H92  414   2.982   0.620   0.315  0.4679  0.0269 -1.2353
    2MOL    H93  415   3.121   0.671   0.407 -1.4246  0.7416 -0.3825
    2MOL    H94  416   3.138   0.649   0.239  0.5693  1.5469  1.3587
    2MOL    H95  417   3.114   0.414   0.130  1.7135 -1.6960 -0.1501
    2MOL    H96  418   3.114   0.257   0.221 -2.5198 -0.7784  1.5158
    2MOL    H97  419   2.978   0.367   0.205  0.7796  0.0656 -1.0974
    2MOL    C98  420   3.267   0.263   0.540  0.4550  0.4159  0.3596
    2MOL    C99  421   3.300   0.120   0.593  0.1315  0.8498  0.7832
    2MOL   O100  422   3.442   0.122   0.637 -0.0398 -0.1475  0.4407
    2MOL   C101  423   3.492   0.216   0.739  0.7376 -0.6702  0.3824
    2MOL   C102  424   3.642   0.189   0.762  0.5129  0.0748  0.3113
    2MOL   C103  425   3.419   0.197   0.871 -0.3939 -0.1589  0.5298
    2MOL   H104  426   3.323   0.277   0.448 -0.7667 -1.4264 -0.7097
    2MOL   H105  427   3.311   0.338   0.606 -0.2141 -0.8985  2.3739
    2MOL   H106  428   3.238   0.082   0.673 -1.4268 -1.0230 -1.2412
    2MOL   H107  429   3.478   0.315   0.696  1.6361 -1.0427 -0.7879
    2MOL   H108  430   3.691   0.215   0.668  0.6697  0.6572  0.5533
    2MOL   H109  431   3.665   0.087   0.793 -1.2601 -0.3253  0.4128
    2MOL   H110  432   3.679   0.248   0.845  2.9068 -0.5043 -0.3113
    2MOL   H111  433   3.320   0.238   0.855  0.0165  0.1550 -1.3606
    2MOL   H112  434   3.467   0.246   0.956 -1.0684  0.6181  0.4590
    2MOL   H113  435   3.419   0.089   0.888  0.4323 -0.5756 -1.8937
    2MOL   C114  436   3.284   0.021   0.476 -0.0110 -0.1994 -0.4429
    2MOL   C115  437   3.294   7.694   0.521  0.0040 -0.3852  0.1461
    2MOL   O116  438   3.218   7.675   0.642 -0.5081 -0.3685  0.4599
    2MOL   C117  439   3.271   7.612   0.762  0.0901  0.1683  0.4194
    2MOL   C118  440   3.303   7.459   0.736  0.6434  0.3748  0.1900
    2MOL   C119  441   3.163   7.615   0.864 -0.4128  0.3575  0.5630
    2MOL   H120  442   3.355   0.046   0.397  0.8629 -4.0679 -0.9787
    2MOL   H121  443   3.190   0.028   0.423  1.1375  0.1504 -2.4930
    2MOL   H122  444   3.399   7.671   0.539  0.7411  1.9320 -1.0515
    2MOL   H123  445   3.354   7.664   0.810  0.9148 -0.0937 -0.6948
    2MOL   H124  446   3.223   7.413   0.678 -0.3266  0.9659  1.0229
    2MOL   H125  447   3.312   7.402   0.829 -0.4903 -1.2221 -0.6542
    2MOL   H126  448   3.401   7.444   0.691  0.1999 -1.7573 -0.1064
    2MOL   H127  449   3.063   7.585   0.832 -0.4667  1.2382 -0.1187
    2MOL   H128  450   3.138   7.713   0.905 -3.9203 -0.5718  0.8483
    2MOL   H129  451   3.186   7.546   0.945  1.3482  0.2723  0.0021
    2MOL   C130  452   3.238   7.586   0.422  1.1704  0.3356  0.0449
    2MOL   C131  453   3.298   7.593   0.285 -0.1534 -0.1134  0.1552
    2MOL   O132  454   3.214   7.529   0.184  0.4040  0.0534  0.0468
    2MOL   C133  455   3.111   7.613   0.123  0.4397 -0.3908  0.6610
    2MOL   C134  456   3.167   7.718   0.032  0.2107  1.0367  0.1012
    2MOL   C135  457   3.020   7.509   0.056  0.1994 -0.1507 -0.5993
    2MOL   H136  458   3.133   7.614   0.416  1.2072  0.0565 -2.8875
    2MOL   H137  459   3.245   7.487   0.467 -1.1712 -0.4081 -1.1343
    2MOL   H138  460   3.308   7.695   0.249 -1.3876 -1.2353 -3.6125
    2MOL   H139  461   3.048   7.651   0.204 -1.1466 -2.4000  0.3861
    2MOL   H140  462   3.191   7.806   0.091  0.5647  0.6147  0.5891
    2MOL   H141  463   3.082   7.742   7.788 -0.0282 -0.9788 -0.3754
    2MOL   H142  464   3.254   7.679   7.798 -2.0251  1.1243 -3.7111
    2MOL   H143  465   2.932   7.564   0.023  0.6555  1.4344  0.7261
    2MOL   H144  466   3.080   7.453   7.805 -0.6494  0.1581 -1.5664
    2MOL   H145  467   2.989   7.439   0.134  1.4131 -0.4946 -0.4240
    2MOL   C146  468   3.435   7.521   0.287 -0.0503  0.4456 -0.5812
    2MOL   C147  469   3.536   7.551   0.178 -0.6289 -0.6941  0.2350
    2MOL   O148  470   3.584   7.681   0.209  0.6291 -0.0073 -0.1841
    2MOL   C149  471   3.627   7.771   0.105 -0.3458  0.4370  0.0933
    2MOL   C150  472   3.777   7.817   0.121  0.8857  0.3327 -0.4279
    2MOL   C151  473   3.523   0.057   0.097 -0.2882  0.0418  0.0264
    2MOL   H152  474   3.410   7.415   0.287  0.5690  0.2749  0.7743
    2MOL   H153  475   3.483   7.530   0.385  2.4263  0.1489 -1.7371
    2MOL   H154  476   3.494   7.560   0.078  0.8606  0.9463 -0.2667
    2MOL   H155  477   3.621   7.716   0.011 -0.0653  0.6970 -0.0756
    2MOL   H156  478   3.835   7.727   0.142 -1.4175 -1.5341 -1.7960
    2MOL   H157  479   3.784   0.067   0.204  3.6465  0.8063 -1.0397
    2MOL   H158  480   3.818   0.037   0.029  0.1460  0.8619 -0.5340
    2MOL   H159  481   3.518   0.108   0.193 -0.5025  0.8504 -0.4120
    2MOL   H160  482   3.424   0.020   0.071  0.3254 -1.0845 -0.7565
    2MOL   H161  483   3.552   0.139   0.031 -1.4671 -1.2354 -2.1261
    2MOL   C162  484   3.652   7.449   0.166 -1.0260 -1.3874 -0.4701
    2MOL   C163  485   3.597   7.319   0.104 -0.0263  0.8917 -0.5222
    2MOL   O164  486   3.574   7.335   7.784 -0.3720 -0.3725 -0.8038
    2MOL   C165  487   3.445   7.347   7.744  0.4030 -0.2932 -0.5397
    2MOL   C166  488   3.387   7.205   7.727  0.6739 -0.5764  0.1553
    2MOL   C167  489   3.454   7.422   7.612  1.0478 -0.4369  0.3933
    2MOL   H168  490   3.748   7.481   0.124 -0.3795 -0.5910  1.5150
    2MOL   H169  491   3.675   7.423   0.270 -2.0475 -2.5120 -0.5192
    2MOL   H170  492   3.509   7.278   0.155  0.2635 -3.3899 -3.2045
    2MOL   H171  493   3.382   7.401   7.815  1.1078 -2.3694  1.7093
    2MOL   H172  494   3.284   7.201   7.692  0.3825 -0.9393  1.0264
    2MOL   H173  495   3.387   7.145   7.818 -2.7013 -0.3629  0.3525
    2MOL   H174  496   3.441   7.152   7.649 -1.2704  1.0352 -2.3733
    2MOL   H175  497   3.476   7.527   7.629 -1.5873  0.2547 -0.2997
    2MOL   H176  498   3.361   7.422   7.556  0.7124 -0.2163  0.9431
    2MOL   H177  499   3.533   7.371   7.556  1.3710 -0.0443  0.4857
    2MOL   C178  500   3.694   7.200   0.117 -0.0152 -0.0227 -0.5923
    2MOL   C179  501   3.735   7.166   0.263 -0.2471  0.0757  0.3679
    2MOL   O180  502   3.619   7.132   0.336 -0.1574 -0.7473 -1.0358
    2MOL   C181  503   3.624   7.158   0.477  0.7305 -0.1514  0.6344
    2MOL   C182  504   3.581   7.030   0.550  0.2819  0.0581 -0.1703
    2MOL   C183  505   3.542   7.282   0.505 -0.4326  0.1485 -0.2292
    2MOL   H184  506   3.783   7.223   0.059  0.4756  0.3029  0.2777
    2MOL   H185  507   3.640   7.111   0.085 -0.5018  0.1983 -0.4019
    2MOL   H186  508   3.790   7.254   0.297  0.7650 -0.4618  0.1461
    2MOL   H187  509   3.725   7.172   0.517  0.4760  1.2500  0.8136
    2MOL   H188  510   3.476   7.004   0.542  0.1924 -0.3874  2.2274
    2MOL   H189  511   3.596   7.042   0.657 -0.1232 -1.1020  0.0211
    2MOL   H190  512   3.639   6.947   0.510  2.4626  0.5710  1.8085
    2MOL   H191  513   3.597   7.364   0.458 -1.0176  0.9962  0.5615
    2MOL   H192  514   3.540   7.304   0.612  0.1138  0.3483 -0.2570
    2MOL   H193  515   3.444   7.277   0.459 -1.2717  1.3970  1.3788
    2MOL   C194  516   3.834   7.044   0.270  0.1962  0.0824 -0.2186
    2MOL   C195  517   3.977   7.058   0.197 -0.2603  0.4225 -1.0936
    2MOL   O196  518   4.049   6.931   0.224 -0.6165 -0.2349  0.1754
    2MOL   C197  519   4.050   6.834   0.122 -0.8936  0.8057  0.5779
    2MOL   C198  520   4.151   6.728   0.166  0.3780 -0.0340 -0.4523
    2MOL   C199  521   3.917   6.761   0.095 -0.0198  0.1183  0.9728
    2MOL   H200  522   3.852   7.027   0.376 -1.6242 -0.3962  0.0445
    2MOL   H201  523   3.781   6.956   0.232  0.8023 -0.9742  1.3268
    2MOL   H202  524   3.970   7.071   0.089 -0.8800 -0.7682 -1.2053
    2MOL   H203  525   4.082   6.893   0.036  1.3869  0.2913  1.0529
    2MOL   H204  526   4.163   6.651   0.090  1.6491 -0.5999  0.3034
    2MOL   H205  527   4.254   6.758   0.186 -0.0813  0.0470  2.0107
    2MOL   H206  528   4.109   6.692   0.260 -3.7285  1.7474 -1.5046
    2MOL   H207  529   3.869   6.722   0.185 -3.6215 -0.6641 -1.2080
    2MOL   H208  530   3.848   6.831   0.049  1.2385 -0.8575 -2.5100
    2MOL   H209  531   3.929   6.684   0.019 -0.0840 -0.3575  1.4414
    2MOL   C210  532   4.065   7.167   0.255 -0.0315 -0.1266  0.2017
    2MOL   C211  533   4.190   7.201   0.172  0.0197  0.5353 -0.4849
    2MOL   O212  534   4.227   7.337   0.184  0.4307  0.1066 -0.5500
    2MOL   C213  535   4.190   7.418   0.072 -0.4432 -0.2446 -0.1349
    2MOL   C214  536   4.040   7.412   0.036  0.4517  0.8876 -0.1653
    2MOL   C215  537   4.226   7.565   0.117 -0.6664  0.2244  0.0028
    2MOL   H216  538   4.101   7.142   0.354 -1.2787 -3.1961 -0.0470
    2MOL   H217  539   4.003   7.254   0.274  0.2282 -0.3423  2.0943
    2MOL   H218  540   4.161   7.188   0.068 -1.2495  3.0660 -0.4766
    2MOL   H219  541   4.246   7.394   7.802  1.0947  2.1110  0.1564
    2MOL   H220  542   4.014   7.494   7.789 -0.8724  0.1114 -0.6141
    2MOL   H221  543   3.980   7.407   0.127  1.6086  0.5035  0.5901
    2MOL   H222  544   4.008   7.331   7.791 -1.4325 -0.0111  1.7896
    2MOL   H223  545   4.166   7.598   0.202 -0.1853  2.6992 -0.5717
    2MOL   H224  546   4.203   7.628   0.031  1.4149  2.0370  0.7342
    2MOL   H225  547   4.327   7.581   0.153 -0.6514 -1.1395  0.5986
    2MOL   C226  548   4.318   7.124   0.207  0.0631 -0.0442  0.2224
    2MOL   C227  549   4.418   7.098   0.091 -0.4056 -0.3522  0.5788
    2MOL   O228  550   4.374   6.977   0.028 -0.5927 -0.2975 -0.9656
    2MOL   C229  551   4.431   6.949   7.722 -0.3295 -0.8002  0.5320
    2MOL   C230  552   4.312   7.007   7.634  0.4240  0.5158 -0.0264
    2MOL   C231  553   4.444   6.796   7.707 -0.6875  1.2339 -0.4258
    2MOL   H232  554   4.288   7.027   0.246 -0.4707  0.8047  1.9819
    2MOL   H233  555   4.371   7.186   0.279 -0.8175  2.6498 -1.3821
    2MOL   H234  556   4.431   7.187   0.029 -0.3331 -0.3658  0.5745
    2MOL   H235  557   4.526   7.001   7.704 -1.2662  0.4127 -1.0500
    2MOL   H236  558   4.329   6.976   7.531 -1.2598 -1.1656  0.1771
    2MOL   H237  559   4.210   6.973   7.656  0.7996 -1.8215 -1.6755
    2MOL   H238  560   4.303   7.114   7.617 -0.5684  0.2054 -1.5876
    2MOL   H239  561   4.350   6.741   7.717  0.3820 -0.6392 -0.4564
    2MOL   H240  562   4.518   6.759   7.778 -0.8169  3.7358  1.0734
    2MOL   H241  563   4.478   6.787   7.604  0.1878 -3.0438  0.1363
    2MOL   C242  564   4.568   7.068   0.141 -0.0037  0.0416 -0.4297
    2MOL   C243  565   4.574   6.966   0.259 -0.2360  0.0800  0.0964
    2MOL   O244  566   4.704   6.971   0.312  0.5665  0.3018  0.2107
    2MOL   C245  567   4.716   7.005   0.452  0.3886  0.6932  0.1408
    2MOL   C246  568   4.856   6.957   0.484 -0.6460 -0.3147  0.2350
    2MOL   C247  569   4.709   7.153   0.479 -0.0928  0.4513 -0.6279
    2MOL   H248  570   4.639   7.044   0.062  0.2198 -2.2080  0.4353
    2MOL   H249  571   4.610   7.159   0.184  3.1565 -1.0266 -1.0893
    2MOL   H250  572   4.496   6.986   0.331 -0.1105 -0.3163  0.3413
    2MOL   H251  573   4.648   6.956   0.522 -1.5352  3.3821  0.2408
    2MOL   H252  574   4.895   6.975   0.584  1.7869 -0.6559 -0.6282
    2MOL   H253  575   4.862   6.848   0.491 -0.2390 -0.3749 -0.8829
    2MOL   H254  576   4.928   6.997   0.412  1.6910 -1.2496  1.9866
    2MOL   H255  577   4.700   7.173   0.586  0.0099  0.5749 -0.6421
    2MOL   H256  578   4.801   7.203   0.448  0.1872 -0.3376 -1.0871
    2MOL   H257  579   4.619   7.198   0.436 -1.0568 -0.0319  0.8387
    2MOL   C258  580   4.590   6.821   0.210 -0.3042 -0.4364  0.4340
    2MOL   C259  581   4.580   6.704   0.311 -0.0112  0.0048 -0.0237
    2MOL   O260  582   4.575   6.588   0.227  0.0126 -0.2266 -0.2706
    2MOL   C261  583   4.702   6.532   0.192 -0.3455 -0.2836 -0.3719
    2MOL   C262  584   4.747   6.434   0.304 -0.3240  0.9417  0.7621
    2MOL   C263  585   4.688   6.484   0.047 -1.3247 -0.1556 -0.2347
    2MOL   H264  586   4.502   6.822   0.146 -0.4810  1.6827  0.7008
    2MOL   H265  587   4.667   6.814   0.133  0.4830  0.6182  1.1121
    2MOL   H266  588   4.670   6.713   0.372  1.1033 -2.6410 -1.1785
    2MOL   H267  589   4.773   6.613   0.172 -0.1915 -0.9018 -2.4546
    2MOL   H268  590   4.826   6.367   0.271 -1.3780  0.7229 -1.3844
    2MOL   H269  591   4.668   6.366   0.335  1.5126 -1.2165  0.7453
    2MOL   H270  592   4.780   6.496   0.388  2.3290 -1.3742  1.4696
    2MOL   H271  593   4.594   6.433   0.027 -1.1032 -0.7869  0.3250
    2MOL   H272  594   4.689   6.573   7.804  1.2415  0.7317  0.9750
    2MOL   H273  595   4.770   6.422   0.013 -2.2978 -0.7779 -1.4680
    2MOL   C274  596   4.458   6.700   0.412 -0.3859 -0.0720 -0.2050
    2MOL   C275  597   4.463   6.610   0.541  0.1380 -0.5226 -0.4149
    2MOL   O276  598   4.495   6.474   0.526 -0.2750  0.2336  0.3916
    2MOL   C277  599   4.385   6.382   0.503  0.1275 -0.4691 -0.1170
    2MOL   C278  600   4.424   6.247   0.572 -0.0542 -0.1923  0.7406
    2MOL   C279  601   4.351   6.361   0.353  1.1526  0.0165 -0.3713
    2MOL   H280  602   4.437   6.799   0.451  0.4017 -0.7266  1.9683
    2MOL   H281  603   4.368   6.674   0.356 -0.8346  0.2823  0.3504
    2MOL   H282  604   4.370   6.617   0.598  1.4529  0.3609  1.6456
    2MOL   H283  605   4.292   6.420   0.544  0.2740 -0.6749  0.4151
    2MOL   H284  606   4.411   6.257   0.680  0.4553 -1.4680  0.9290
    2MOL   H285  607   4.367   6.157   0.547  0.8708 -0.1428 -1.6351
    2MOL   H286  608   4.527   6.231   0.540  0.9393  3.2059  2.0324
    2MOL   H287  609   4.305   6.263   0.338 -0.3338  0.8632 -1.4077
    2MOL   H288  610   4.441   6.353   0.293  1.7074 -2.5943  0.7240
    2MOL   H289  611   4.280   6.430   0.308 -0.0243  0.7667  2.5523
    2MOL   C290  612   4.578   6.663   0.631 -0.5642 -0.5886 -0.2075
    2MOL   C291  613   4.585   6.599   0.768  0.5930  0.6192 -0.4925
    2MOL   O292  614   4.701   6.641   0.827 -0.1844  0.0603 -0.1841
    2MOL   C293  615   4.784   6.548   0.886  0.6271 -0.6451 -0.5271
    2MOL   C294  616   4.873   6.623   0.979  0.4074 -0.2623 -0.4475
    2MOL   C295  617   4.863   6.485   0.778 -0.4856 -0.1451 -0.2748
    2MOL   H296  618   4.579   6.772   0.627  0.3335 -0.4792  2.3528
    2MOL   H297  619   4.674   6.639   0.585  0.2310 -1.0551  1.6674
    2MOL   H298  620   4.583   6.491   0.756  2.1265  0.6987 -1.5510
    2MOL   H299  621   4.736   6.471   0.946 -1.0024 -0.1012 -1.1074
    2MOL   H300  622   4.942   6.689   0.926 -0.8312  0.6399 -0.9585
    2MOL   H301  623   4.814   6.669   1.058  1.3982 -0.3440  0.3569
    2MOL   H302  624   4.937   6.550   1.030 -2.0771 -1.1915  1.4085
    2MOL   H303  625   4.922   6.557   0.722 -0.5901  0.2941  0.1753
    2MOL   H304  626   4.928   6.410   0.824  1.5031  0.2581 -2.3222
    2MOL   H305  627   4.816   6.426   0.699  0.0178 -0.9468  0.0071
    2MOL   C306  628   4.465   6.654   0.861  0.0901  0.0749  0.1281
    2MOL   C307  629   4.477   6.588   0.995 -0.3350 -0.1639 -0.3531
    2MOL   O308  630   4.352   6.578   1.065  0.3322 -0.3388  0.1935
    2MOL   C309  631   4.367   6.520   1.195  0.4689 -0.3886 -0.6721
    2MOL   C310  632   4.235   6.551   1.275 -0.0548 -0.0789  0.5588
    2MOL   C311  633   4.375   6.366   1.190 -0.3377  0.4516 -0.6476
    2MOL   H312  634   4.375   6.606   0.822 -0.3119 -1.1265  2.4597
    2MOL   H313  635   4.463   6.763   0.857 -0.9491  0.0692  0.5349
    2MOL   H314  636   4.506   6.484   0.974 -1.0678 -0.7111  1.2933
    2MOL   H315  637   4.451   6.556   1.254  0.8982 -0.0873 -1.4494
    2MOL   H316  638   4.153   6.562   1.205  0.9830  0.2455 -0.6312
    2MOL   H317  639   4.249   6.644   1.332 -1.5923 -0.3640  1.4139
    2MOL   H318  640   4.211   6.473   1.347  1.9285  0.1773  1.5479
    2MOL   H319  641   4.293   6.317   1.137 -0.5584  1.6058 -1.3868
    2MOL   H320  642   4.389   6.312   1.284  2.0451 -0.0862 -1.2838
    2MOL   H321  643   4.464   6.353   1.130  0.4341 -0.4136  0.6555
    2MOL   H322  644   4.556   6.631   1.056 -0.2592 -0.0377 -0.5377
    3MOL     C1  645   0.842   7.625   2.830 -0.0500  0.6846  0.0238
    3MOL     C2  646   0.906   7.507   2.904 -0.4205  0.2018 -0.2654
    3MOL     O3  647   1.010   7.454   2.823 -0.5711  0.0381  0.2527
    3MOL     C4  648   0.997   7.322   2.784  0.1023 -0.6285 -1.0926
    3MOL     C5  649   1.132   7.265   2.779  0.0065  0.2280  0.0933
    3MOL     C6  650   0.911   7.328   2.655 -0.0648  0.0174 -0.1903
    3MOL     H7  651   0.766   7.678   2.889  1.9195 -0.9396  4.2216
    3MOL     H8  652   0.917   7.703   2.816 -0.4804  0.6775 -2.5184
    3MOL     H9  653   0.836   7.431   2.938  0.8239  0.0181  1.9387
    3MOL    H10  654   0.942   7.260   2.856  0.4436 -0.8062 -0.9851
    3MOL    H11  655   1.132   7.161   2.748  0.9327 -0.1765  1.3789
    3MOL    H12  656   1.194   7.314   2.704  2.4168 -2.3087  0.3291
    3MOL    H13  657   1.170   7.274   2.881 -1.9019  1.7213  0.7102
    3MOL    H14  658   0.958   7.380   2.571 -1.9426  0.7771 -0.7952
    3MOL    H15  659   0.885   7.228   2.622  0.0798 -0.5286  1.3252
    3MOL    H16  660   0.811   7.369   2.668 -0.1852 -0.2619 -0.2373
    3MOL    H17  661   0.797   7.590   2.737 -0.5200 -0.6774  0.7501
    3MOL    C18  662   0.970   7.559   3.036 -0.2090  0.3238 -0.8682
    3MOL    C19  663   1.008   7.443   3.137 -0.0577  0.4171  0.1256
    3MOL    O20  664   0.895   7.381   3.185 -0.1648  0.0120  0.5090
    3MOL    C21  665   0.907   7.248   3.234 -0.1399  0.7475  0.3297
    3MOL    C22  666   0.906   7.141   3.135 -0.5975  0.5224 -0.7759
    3MOL    C23  667   0.796   7.233   3.338 -0.2811 -0.0933 -0.1077
    3MOL    H24  668   1.053   7.625   3.012  0.2256  1.0673  2.4317
    3MOL    H25  669   0.893   7.618   3.085 -1.4444 -2.1866  0.3317
    3MOL    H26  670   1.070   7.364   3.095  2.5874  2.0221  0.9570
    3MOL    H27  671   0.999   7.232   3.289  0.3827 -1.2300 -1.0561
    3MOL    H28  672   0.809   7.134   3.084 -1.6344 -0.2844  1.2376
    3MOL    H29  673   0.987   7.154   3.064 -1.9314  2.7970 -1.9472
    3MOL    H30  674   0.919   7.045   3.183  0.2700  1.6482  1.2721
    3MOL    H31  675   0.694   7.238   3.299  0.5411 -0.2547 -2.2920
    3MOL    H32  676   0.795   7.304   3.421 -2.2548 -1.2695  0.9208
    3MOL    H33  677   0.813   7.134   3.381  0.7260  0.6031  1.1452
    3MOL    C34  678   1.087   7.491   3.257 -0.6506 -0.4726  0.8660
    3MOL    C35  679   1.231   7.543   3.226 -0.3394  0.4263  0.1240
    3MOL    O36  680   1.275   7.588   3.357 -0.3088 -0.1068  0.4358
    3MOL    C37  681   1.284   7.727   3.388  0.4385  0.3836 -0.1639
    3MOL    C38  682   1.146   7.795   3.419 -0.1251 -0.3818 -0.4599
    3MOL    C39  683   1.368   7.734   3.517 -0.1820  0.2423  0.0821
    3MOL    H40  684   1.088   7.423   3.343 -1.3088 -1.2840  0.2462
    3MOL    H41  685   1.028   7.571   3.302 -0.0265 -0.3850  1.5494
    3MOL    H42  686   1.233   7.620   3.149  0.4469  2.4239  2.0761
    3MOL    H43  687   1.331   7.775   3.303 -0.1985  0.2792 -0.5791
    3MOL    H44  688   1.159   0.077   3.456 -3.6428 -1.3637  3.9409
    3MOL    H45  689   1.092   7.748   3.501 -2.0875  2.1380 -0.2192
    3MOL    H46  690   1.088   7.793   3.327 -2.0119 -1.5119  0.7360
    3MOL    H47  691   1.388   0.009   3.566  0.5374 -0.4890  1.2359
    3MOL    H48  692   1.319   7.686   3.601 -2.6094  0.1130 -1.3420
    3MOL    H49  693   1.463   7.683   3.502 -0.2012  0.3026 -0.2553
    3MOL    C50  694   1.323   7.422   3.189 -0.1852  0.0265 -0.2171
    3MOL    C51  695   1.463   7.471   3.160  0.4597 -0.7105  0.1978
    3MOL    O52  696   1.518   7.367   3.078 -0.3787 -0.1154 -0.0791
    3MOL    C53  697   1.593   7.404   2.963  0.2519  0.1405  0.7105
    3MOL    C54  698   1.495   7.477   2.869 -0.8266  0.0396  0.8227
    3MOL    C55  699   1.639   7.266   2.901  0.4364  0.5884  0.7513
    3MOL    H56  700   1.327   7.350   3.270 -3.8529 -0.2681 -0.2213
    3MOL    H57  701   1.290   7.360   3.105  2.3900 -0.4504 -0.9424
    3MOL    H58  702   1.446   7.564   3.107 -2.0003 -1.0671  0.3302
    3MOL    H59  703   1.682   7.456   2.998  0.7414 -0.8921  1.0247
    3MOL    H60  704   1.485   7.583   2.890  0.0913  0.5910 -1.4217
    3MOL    H61  705   1.394   7.442   2.893 -1.2832  0.7243 -0.0671
    3MOL    H62  706   1.518   7.476   2.762  0.7984 -1.6106  1.1670
    3MOL    H63  707   1.697   7.214   2.977 -0.0031 -0.8195  0.1383
    3MOL    H64  708   1.708   7.286   2.819 -1.3111 -1.6024 -1.3208
    3MOL    H65  709   1.562   7.204   2.856  1.8676  1.0153 -2.4417
    3MOL    C66  710   1.546   7.467   3.293  0.4104  0.1092 -0.0837
    3MOL    C67  711   1.691   7.526   3.291 -0.1754 -0.4823 -0.2506
    3MOL    O68  712   1.735   7.541   3.429  0.3246 -0.7757 -0.1335
    3MOL    C69  713   1.797   7.426   3.490  0.5507  0.1244 -0.3467
    3MOL    C70  714   1.950   7.449   3.489 -0.5700 -0.8276 -0.8154
    3MOL    C71  715   1.751   7.419   3.639 -0.7162  0.0733 -0.5984
    3MOL    H72  716   1.502   7.538   3.364 -1.5527 -0.1571 -1.0088
    3MOL    H73  717   1.553   7.370   3.342  0.9075 -0.2329 -0.8348
    3MOL    H74  718   1.765   7.469   3.235  1.2080  2.4308 -1.4811
    3MOL    H75  719   1.763   7.340   3.433 -0.4468  0.0789  0.3072
    3MOL    H76  720   1.990   7.460   3.388  1.5071 -0.2358  0.0329
    3MOL    H77  721   1.971   7.540   3.547 -1.4972 -0.8430 -0.4525
    3MOL    H78  722   2.003   7.363   3.530  0.4767 -0.1703 -0.7694
    3MOL    H79  723   1.649   7.440   3.670 -0.1029  2.0624  0.1751
    3MOL    H80  724   1.788   7.511   3.685 -1.8370  0.9423 -1.4197
    3MOL    H81  725   1.808   7.339   3.686 -0.2822  0.9785  0.4286
    3MOL    C82  726   1.684   7.669   3.236  0.2291 -0.5496 -0.5005
    3MOL    C83  727   1.820   7.745   3.239  0.0314  0.2603  0.1957
    3MOL    O84  728   1.902   7.696   3.137  0.3377 -0.5170 -0.0554
    3MOL    C85  729   2.034   7.662   3.165 -0.2741 -0.0104  1.2463
    3MOL    C86  730   2.116   7.770   3.083  0.4127 -0.0092  0.2248
    3MOL    C87  731   2.058   7.523   3.100  0.2446 -0.5542  0.8492
    3MOL    H88  732   1.646   7.672   3.133  0.7305 -1.9116 -0.7302
    3MOL    H89  733   1.609   7.723   3.294  0.2329 -0.4245 -0.6106
    3MOL    H90  734   1.868   7.716   3.332  1.9481  1.1549 -0.4889
    3MOL    H91  735   2.066   7.672   3.269 -0.3279  1.7018  1.1174
    3MOL    H92  736   2.084   7.783   2.979 -0.5067  0.7648  0.6028
    3MOL    H93  737   2.129   0.048   3.129  1.4695  0.1168 -0.3130
    3MOL    H94  738   2.217   7.738   3.058  1.7513  2.5390  2.1401
    3MOL    H95  739   2.164   7.503   3.117  0.8456  0.2944 -1.6379
    3MOL    H96  740   2.000   7.441   3.143  0.4354 -1.2134 -0.1358
    3MOL    H97  741   2.046   7.529   2.992  1.0610  0.8914  0.8302
    3MOL    C98  742   1.814   0.077   3.223 -0.0975 -0.5185 -0.1646
    3MOL    C99  743   1.718   0.156   3.325  0.0807 -0.3421 -0.0768
    3MOL   O100  744   1.710   0.086   3.453  0.1084 -0.1871  0.7759
    3MOL   C101  745   1.828   0.098   3.537 -0.7326  0.1705 -0.1647
    3MOL   C102  746   1.813   7.809   3.642  0.1081 -1.1040 -0.2964
    3MOL   C103  747   1.844   0.234   3.606 -0.1441  0.2973  0.3909
    3MOL   H104  748   1.910   0.128   3.235 -1.7250  2.3933  1.1934
    3MOL   H105  749   1.775   0.100   3.124 -0.5127 -2.2244 -0.4180
    3MOL   H106  750   1.759   0.256   3.338  2.0890 -1.3160  1.3738
    3MOL   H107  751   1.922   0.074   3.488 -0.1069  2.1987 -0.0086
    3MOL   H108  752   1.710   7.791   3.671 -0.1630 -0.8613 -1.0714
    3MOL   H109  753   1.880   0.006   3.726  0.6234  2.3290 -1.3232
    3MOL   H110  754   1.846   7.716   3.596 -1.8554 -2.4043  0.8975
    3MOL   H111  755   1.851   0.313   3.531  2.0237  1.4777  1.7702
    3MOL   H112  756   1.938   0.237   3.662 -0.6410  1.0978  1.1796
    3MOL   H113  757   1.762   0.258   3.673 -0.7912 -1.3918  0.2393
    3MOL   C114  758   1.578   0.185   3.268 -0.4440 -0.5043  0.1157
    3MOL   C115  759   1.499   0.303   3.329  0.3232 -0.3059  0.0070
    3MOL   O116  760   1.429   0.371   3.224  0.1631  0.1309 -0.2193
    3MOL   C117  761   1.474   0.504   3.210  0.0735  0.2023 -0.5190
    3MOL   C118  762   1.369   0.569   3.122 -0.4195  0.0525 -0.1638
    3MOL   C119  763   1.604   0.512   3.137  1.0962 -0.1205 -0.3792
    3MOL   H120  764   1.521   0.092   3.261 -2.8724  0.9496 -0.0498
    3MOL   H121  765   1.584   0.199   3.160 -0.0421  0.9019  0.3159
    3MOL   H122  766   1.570   0.366   3.383 -1.0243  0.7303  0.5780
    3MOL   H123  767   1.483   0.553   3.307  2.3577 -1.9650  0.4243
    3MOL   H124  768   1.372   0.522   3.024  1.3744  1.0219 -0.5864
    3MOL   H125  769   1.393   0.674   3.111  0.6448 -0.1703  0.0424
    3MOL   H126  770   1.265   0.562   3.156 -0.1422  0.5868  0.8065
    3MOL   H127  771   1.671   0.448   3.195 -0.8145 -1.1282  0.7768
    3MOL   H128  772   1.645   0.613   3.139  1.6100 -0.3195 -0.8868
    3MOL   H129  773   1.602   0.480   3.033  1.2111  1.4427 -0.8809
    3MOL   C130  774   1.404   0.257   3.439 -1.2769 -0.1069 -0.3662
    3MOL   C131  775   1.329   0.370   3.514 -0.0689 -0.6260  0.6825
    3MOL   O132  776   1.298   0.306   3.635  0.2989 -0.2888 -0.0013
    3MOL   C133  777   1.384   0.321   3.746  0.5721 -0.8054  0.4292
    3MOL   C134  778   1.331   0.432   3.838 -0.1034  0.0465 -0.3306
    3MOL   C135  779   1.384   0.185   3.827  0.1862 -0.2422 -1.1612
    3MOL   H136  780   1.457   0.197   3.512 -1.1856  1.4488  0.8759
    3MOL   H137  781   1.334   0.181   3.403  1.7489 -2.8030 -0.7131
    3MOL   H138  782   1.389   0.461   3.521  0.3274 -0.5865 -2.4331
    3MOL   H139  783   1.486   0.341   3.714 -0.1626  2.2119 -0.1256
    3MOL   H140  784   1.243   0.389   3.887  0.9657 -3.2760 -1.1715
    3MOL   H141  785   1.319   0.525   3.782 -1.0588 -0.9140 -1.7495
    3MOL   H142  786   1.408   0.447   3.913 -2.0661  0.6753  1.6158
    3MOL   H143  787   1.281   0.165   3.857  0.2280  1.0607 -0.0751
    3MOL   H144  788   1.427   0.100   3.776 -0.4496 -0.3793 -1.4741
    3MOL   H145  789   1.438   0.200   3.921 -1.2920  0.8544 -0.4600
    3MOL   C146  790   1.190   0.408   3.446 -0.6719 -0.1946  0.3724
    3MOL   C147  791   1.142   0.558   3.482 -0.3082  0.7824 -0.5731
    3MOL   O148  792   1.218   0.638   3.396  0.5288  0.3737 -0.0924
    3MOL   C149  793   1.289   0.755   3.437  0.2710  0.4642 -0.5610
    3MOL   C150  794   1.318   0.849   3.324  0.5510 -0.5741 -0.0381
    3MOL   C151  795   1.404   0.721   3.524  0.4310  0.7848  0.3357
    3MOL   H152  796   1.118   0.327   3.453 -2.3854  1.3882  1.5469
    3MOL   H153  797   1.197   0.414   3.338 -0.1674 -0.9429  0.3611
    3MOL   H154  798   1.162   0.587   3.586 -0.3029 -3.0869  0.5823
    3MOL   H155  799   1.218   0.814   3.495 -0.0365 -0.4245 -0.0174
    3MOL   H156  800   1.330   0.954   3.350 -0.1162 -0.4762 -0.1167
    3MOL   H157  801   1.239   0.846   3.249 -0.6186 -3.7283  1.2231
    3MOL   H158  802   1.411   0.815   3.280  0.2097 -0.3324 -0.9532
    3MOL   H159  803   1.448   0.814   3.560  0.6161  1.4109 -1.4613
    3MOL   H160  804   1.486   0.670   3.473 -0.6735 -0.5785 -0.1050
    3MOL   H161  805   1.369   0.664   3.610 -1.0637 -0.8991 -1.3357
    3MOL   C162  806   0.987   0.590   3.466  0.6689  0.1715  0.2411
    3MOL   C163  807   0.937   0.699   3.563  0.2253  0.0602  0.0223
    3MOL   O164  808   0.817   0.770   3.512 -0.2691  0.1379 -0.3098
    3MOL   C165  809   0.842   0.898   3.464 -0.2150 -0.5508  0.1381
    3MOL   C166  810   0.704   0.965   3.439 -0.4691 -0.8821 -0.1872
    3MOL   C167  811   0.931   0.902   3.345  0.5385  0.2161 -0.1537
    3MOL   H168  812   0.955   0.611   3.364 -0.9317 -2.6410  0.1234
    3MOL   H169  813   0.930   0.500   3.489 -0.2145  0.9409  1.1318
    3MOL   H170  814   1.019   0.770   3.568  1.3506 -1.3140  1.4446
    3MOL   H171  815   0.883   0.968   3.537 -2.1788  0.4252  0.3394
    3MOL   H172  816   0.632   0.894   3.397 -2.0093  0.5230  0.0308
    3MOL   H173  817   0.726   1.057   3.384  0.9792  0.2997  2.2658
    3MOL   H174  818   0.653   0.992   3.531  0.6971  0.8133 -0.0160
    3MOL   H175  819   0.876   0.845   3.270  0.0204 -0.6877  0.9044
    3MOL   H176  820   1.032   0.860   3.351  0.1298 -0.8946 -0.8477
    3MOL   H177  821   0.936   0.999   3.295  2.2258  0.6896  0.8885
    3MOL   C178  822   0.895   0.663   3.704  0.5173  0.3042  0.7152
    3MOL   C179  823   0.885   0.786   3.800 -0.1735 -0.7894 -0.1590
    3MOL   O180  824   0.845   0.737   3.928  0.3152 -0.0618 -0.3511
    3MOL   C181  825   0.713   0.768   3.963  0.1161 -0.3460 -0.9120
    3MOL   C182  826   0.716   0.755   4.115  0.2409 -0.0791  0.4974
    3MOL   C183  827   0.616   0.671   3.906  0.6920 -0.7234 -0.0060
    3MOL   H184  828   0.967   0.607   3.763  1.2714  0.0992 -0.3844
    3MOL   H185  829   0.806   0.601   3.714  0.4343  0.1849 -0.6283
    3MOL   H186  830   0.815   0.854   3.751  1.8507  0.3903 -1.4512
    3MOL   H187  831   0.681   0.864   3.923 -0.2311 -1.1673 -2.6231
    3MOL   H188  832   0.722   0.655   4.158 -1.7348 -0.5833 -0.3311
    3MOL   H189  833   0.624   0.790   4.161 -1.5747 -0.6479 -2.5674
    3MOL   H190  834   0.802   0.810   4.153  0.4163  0.7429 -1.0430
    3MOL   H191  835   0.521   0.709   3.944 -0.4534 -2.2301 -1.2692
    3MOL   H192  836   0.627   0.568   3.940 -0.8100 -1.1257 -0.6966
    3MOL   H193  837   0.611   0.668   3.797  1.3999  0.9592 -0.0926
    3MOL   C194  838   1.013   0.860   3.835  0.0916 -0.4532  0.4254
    3MOL   C195  839   0.998   0.995   3.911 -1.2656 -0.3536 -1.0487
    3MOL   O196  840   0.915   1.080   3.838  0.6246 -0.0637 -0.4284
    3MOL   C197  841   0.810   1.141   3.896  0.3638 -0.1181 -0.5092
    3MOL   C198  842   0.866   1.283   3.940 -0.1523  0.2406 -0.5016
    3MOL   C199  843   0.693   1.153   3.793 -0.2242 -0.0607  0.2144
    3MOL   H200  844   1.075   0.788   3.888  0.3496  0.5351  1.4987
    3MOL   H201  845   1.063   0.894   3.744  0.8174 -1.7076  0.3519
    3MOL   H202  846   0.971   0.982   4.016 -1.3848  2.2381 -0.7198
    3MOL   H203  847   0.778   1.087   3.985 -2.3054 -2.5745 -2.8887
    3MOL   H204  848   0.949   1.278   4.010 -2.1682  0.0680  1.9392
    3MOL   H205  849   0.895   1.346   3.856 -1.8277 -0.5189 -1.6986
    3MOL   H206  850   0.792   1.343   3.993 -0.6194 -2.5461  2.1369
    3MOL   H207  851   0.710   1.191   3.692  1.1949 -0.5706  0.2433
    3MOL   H208  852   0.658   1.051   3.778  1.8925 -0.7516 -0.2056
    3MOL   H209  853   0.608   1.198   3.842 -1.2708 -1.1820 -0.5291
    3MOL   C210  854   1.131   1.071   3.908 -0.0428 -0.9256  0.1440
    3MOL   C211  855   1.264   0.989   3.925  0.4176  0.2986  1.0137
    3MOL   O212  856   1.366   1.080   3.891 -0.1726 -0.2289  0.6523
    3MOL   C213  857   1.441   1.039   3.771 -0.1336  0.2375  0.3088
    3MOL   C214  858   1.363   1.088   3.644  0.0457  0.5344  0.2895
    3MOL   C215  859   1.565   1.128   3.785  0.5620 -0.3894  0.5037
    3MOL   H216  860   1.135   1.151   3.982 -1.1334  0.0347 -0.8234
    3MOL   H217  861   1.137   1.120   3.812 -1.2439  0.8170  0.9341
    3MOL   H218  862   1.279   0.903   3.860  1.0563  1.2856 -0.1456
    3MOL   H219  863   1.468   0.934   3.763  0.9740  0.6689 -2.3896
    3MOL   H220  864   1.437   1.112   3.567  1.6391  0.9170  1.9009
    3MOL   H221  865   1.315   1.184   3.664  0.8454  1.6048 -2.6460
    3MOL   H222  866   1.289   1.018   3.606  0.3450 -0.2317  1.1119
    3MOL   H223  867   1.637   1.107   3.864  0.4320  2.6090  1.4840
    3MOL   H224  868   1.530   1.230   3.799  2.7651  0.1685  2.2517
    3MOL   H225  869   1.617   1.107   3.692 -0.4125  0.6505 -0.2847
    3MOL   C226  870   1.268   0.925   4.071  1.0101  0.4359 -0.5501
    3MOL   C227  871   1.363   0.806   4.099 -0.5726 -0.4412  0.2868
    3MOL   O228  872   1.316   0.761   4.226  0.2645 -0.2023  0.0326
    3MOL   C229  873   1.306   0.624   4.236 -0.2706  0.3608 -0.1718
    3MOL   C230  874   1.154   0.585   4.220 -0.5289 -0.1644 -0.2486
    3MOL   C231  875   1.367   0.586   4.377 -0.4575 -0.3599  0.5462
    3MOL   H232  876   1.168   0.896   4.105  0.7590  3.0385  1.0393
    3MOL   H233  877   1.283   1.015   4.131 -1.4008  0.1355  0.5678
    3MOL   H234  878   1.342   0.743   4.012  0.0682 -0.2912  0.0229
    3MOL   H235  879   1.369   0.577   4.160 -1.4522 -0.5632 -0.6147
    3MOL   H236  880   1.128   0.480   4.235  1.4211 -0.5310  0.7687
    3MOL   H237  881   1.090   0.639   4.290  0.9612  0.5834  0.5790
    3MOL   H238  882   1.107   0.621   4.128  0.6813  0.3952 -0.6630
    3MOL   H239  883   1.471   0.615   4.393 -0.8303 -0.0779  2.5078
    3MOL   H240  884   1.360   0.480   4.402 -2.6180 -0.1882  0.7107
    3MOL   H241  885   1.306   0.631   4.455 -0.1915  1.7396 -0.4203
    3MOL   C242  886   1.515   0.846   4.108  0.3627 -0.3324  0.6067
    3MOL   C243  887   1.621   0.729   4.095  1.0521 -0.6022  0.0037
    3MOL   O244  888   1.747   0.794   4.108  0.0753  0.5452  0.1033
    3MOL   C245  889   1.812   0.782   4.236  0.5989  0.9765 -0.2630
    3MOL   C246  890   1.925   0.673   4.217  0.1039  0.5132  0.0640
    3MOL   C247  891   1.869   0.917   4.267 -1.1835  0.1204 -0.0462
    3MOL   H248  892   1.540   0.907   4.021  0.4643 -2.4018 -0.8559
    3MOL   H249  893   1.536   0.913   4.191 -0.4577  1.0754 -0.3008
    3MOL   H250  894   1.618   0.646   4.166 -2.7864 -1.3698 -0.9787
    3MOL   H251  895   1.747   0.741   4.314  0.3766 -1.0777 -1.4768
    3MOL   H252  896   1.999   0.673   4.298 -0.2184  3.4372  0.4306
    3MOL   H253  897   1.884   0.572   4.213 -1.1459  1.0079  0.1239
    3MOL   H254  898   1.970   0.683   4.118 -1.7296  0.9927 -0.7418
    3MOL   H255  899   1.795   0.995   4.250  0.2151  1.4360 -0.1188
    3MOL   H256  900   1.909   0.924   4.368  0.6294 -0.9779 -0.6725
    3MOL   H257  901   1.957   0.932   4.206 -0.4941  0.5325  1.0410
    3MOL   C258  902   1.622   0.655   3.962 -0.1843  0.6895 -0.7190
    3MOL   C259  903   1.734   0.540   3.931  0.3248  0.4992 -0.1942
    3MOL   O260  904   1.737   0.520   3.791 -0.1175  0.2200  0.5713
    3MOL   C261  905   1.815   0.615   3.723 -0.2557  0.4016  0.6894
    3MOL   C262  906   1.962   0.568   3.730 -0.5331 -1.4686  0.1491
    3MOL   C263  907   1.765   0.633   3.573  0.1069 -0.6793  0.2339
    3MOL   H264  908   1.523   0.615   3.937 -0.4280  1.3896 -0.8987
    3MOL   H265  909   1.641   0.727   3.882 -1.7869 -1.2345 -2.9305
    3MOL   H266  910   1.832   0.570   3.967 -0.3149 -0.6416  2.6192
    3MOL   H267  911   1.820   0.714   3.767  0.2310  0.2464  0.9907
    3MOL   H268  912   2.022   0.613   3.809 -0.0773 -1.0176 -0.4473
    3MOL   H269  913   2.019   0.628   3.659 -1.9044  0.9755  1.0387
    3MOL   H270  914   1.988   0.463   3.721 -0.1650 -1.3343 -0.3959
    3MOL   H271  915   1.828   0.708   3.526 -0.9544 -0.4940 -0.9067
    3MOL   H272  916   1.769   0.544   3.511  2.7448  0.2048 -0.9516
    3MOL   H273  917   1.664   0.673   3.563  0.7816  0.6275 -1.5616
    3MOL   C274  918   1.700   0.410   4.001  0.0829 -0.1937  0.4185
    3MOL   C275  919   1.811   0.303   4.008  0.3643 -0.3623 -0.0405
    3MOL   O276  920   1.906   0.349   4.099 -0.4392  0.0517 -0.2218
    3MOL   C277  921   2.023   0.270   4.108  0.4177 -0.7127 -0.2632
    3MOL   C278  922   2.075   0.308   4.249 -0.1616  0.5212 -0.5702
    3MOL   C279  923   2.132   0.305   4.006  0.1968  0.5234  0.4302
    3MOL   H280  924   1.684   0.435   4.106 -0.8722 -4.1853  1.3118
    3MOL   H281  925   1.606   0.372   3.961  1.3911 -1.2686 -1.7311
    3MOL   H282  926   1.861   0.288   3.912  1.3706 -2.5065  0.7827
    3MOL   H283  927   2.008   0.162   4.103 -0.9738 -0.4690 -1.7215
    3MOL   H284  928   2.158   0.243   4.278  0.7077  0.9640 -2.0171
    3MOL   H285  929   2.120   0.407   4.260  2.5303 -0.6184 -0.8690
    3MOL   H286  930   1.996   0.292   4.322  2.6566 -3.1479  1.8281
    3MOL   H287  931   2.086   0.333   3.911  1.5762  1.8081  0.1122
    3MOL   H288  932   2.216   0.236   3.993  1.5020  2.0271  0.7783
    3MOL   H289  933   2.175   0.403   4.026  0.4535  0.4033  0.4721
    3MOL   C290  934   1.750   0.167   4.034  0.5187  0.5633 -0.0956
    3MOL   C291  935   1.719   0.146   4.190  0.2722  0.2975  0.3164
    3MOL   O292  936   1.596   0.204   4.225  0.6137 -0.6744 -0.2675
    3MOL   C293  937   1.577   0.220   4.366  0.0461 -0.3043 -0.1977
    3MOL   C294  938   1.425   0.203   4.397 -0.1948  0.0595  0.3538
    3MOL   C295  939   1.624   0.363   4.407  0.6568 -0.5017  0.4146
    3MOL   H296  940   1.826   0.091   4.014 -2.5328 -3.1634  1.6480
    3MOL   H297  941   1.663   0.145   3.973  0.2605  1.2191  0.0332
    3MOL   H298  942   1.804   0.180   4.250 -0.0438  0.5930  0.5937
    3MOL   H299  943   1.638   0.150   4.424 -0.8213 -1.2457 -0.3959
    3MOL   H300  944   1.357   0.264   4.337 -0.1375  0.5795  0.8201
    3MOL   H301  945   1.390   0.106   4.361  0.5531 -0.4059  0.8835
    3MOL   H302  946   1.394   0.197   4.501  1.4298  1.0905  0.9055
    3MOL   H303  947   1.730   0.386   4.400  0.2703  1.7062  1.4994
    3MOL   H304  948   1.574   0.436   4.344  1.0223 -0.5565  0.0606
    3MOL   H305  949   1.596   0.390   4.509  2.1293  0.5556  0.5499
    3MOL   C306  950   1.716   7.809   4.221 -0.6488 -0.1600  0.6164
    3MOL   C307  951   1.610   7.733   4.142  0.2005 -0.3682 -0.7367
    3MOL   O308  952   1.610   7.591   4.157  0.5567  0.8499 -0.4957
    3MOL   C309  953   1.533   7.513   4.065  0.1342  0.1745 -0.2649
    3MOL   C310  954   1.542   7.363   4.097  0.0900  0.3948 -0.1637
    3MOL   C311  955   1.387   7.549   4.053  0.5364  0.5964  0.4461
    3MOL   H312  956   1.724   7.783   4.326 -1.6699 -0.1175  0.7139
    3MOL   H313  957   1.820   7.784   4.200 -0.4803 -0.4616  1.7703
    3MOL   H314  958   1.518   7.776   4.183  0.9107  0.6628 -0.1817
    3MOL   H315  959   1.577   7.524   3.966 -0.2199  0.7351 -0.3631
    3MOL   H316  960   1.633   7.349   4.155 -0.1308 -2.7479 -0.5239
    3MOL   H317  961   1.550   7.296   4.012 -2.0552 -0.6297  0.3954
    3MOL   H318  962   1.456   7.332   4.158  0.1485  0.5910  0.0209
    3MOL   H319  963   1.354   7.585   4.151  0.5917  0.4200  0.5299
    3MOL   H320  964   1.324   7.469   4.015  0.4959  0.1453  1.4407
    3MOL   H321  965   1.365   7.636   3.991 -1.1578 -0.3609 -0.3314
    3MOL   H322  966   1.614   7.761   4.036  2.0459  0.5255 -0.4505
    4MOL     C1  967   1.644   0.003   6.413  0.1529  0.3037  0.1283
    4MOL     C2  968   1.563   7.735   6.508 -0.5595  0.3254  0.1523
    4MOL     O3  969   1.633   7.617   6.520  0.0059  0.0047  0.2471
    4MOL     C4  970   1.569   7.504   6.487  0.1723  0.8711  0.0903
    4MOL     C5  971   1.530   7.414   6.598  0.6107 -0.2092  0.0305
    4MOL     C6  972   1.663   7.435   6.394 -0.7147  0.2546  0.0957
    4MOL     H7  973   1.630   7.786   6.311 -1.2778  2.2925 -0.4574
    4MOL     H8  974   1.609   0.106   6.421  0.7591  0.5799 -0.7443
    4MOL     H9  975   1.465   7.717   6.465  0.7299 -0.3305 -2.6292
    4MOL    H10  976   1.484   7.516   6.420 -0.2534 -1.3944  0.1888
    4MOL    H11  977   1.447   7.469   6.644  1.1060  1.0122 -0.5134
    4MOL    H12  978   1.484   7.322   6.562 -0.0787  0.5858 -1.1541
    4MOL    H13  979   1.615   7.387   6.660  0.0398  1.0975  1.4233
    4MOL    H14  980   1.684   7.486   6.300  1.5649 -0.5764  0.1288
    4MOL    H15  981   1.759   7.420   6.444 -1.2655 -1.8562  0.5530
    4MOL    H16  982   1.622   7.335   6.377  1.3274 -1.0568  2.5714
    4MOL    H17  983   1.752   0.004   6.429  0.2473 -1.7204 -0.3468
    4MOL    C18  984   1.557   7.819   6.635 -0.2481 -0.1625 -0.3966
    4MOL    C19  985   1.462   7.756   6.742 -0.1765 -0.5115 -0.4656
    4MOL    O20  986   1.328   7.804   6.733 -0.3314  0.1767  0.0923
    4MOL    C21  987   1.221   7.710   6.711 -0.7846 -0.8120  0.1244
    4MOL    C22  988   1.140   7.757   6.591  0.3184  0.0133  0.5955
    4MOL    C23  989   1.148   7.703   6.843 -0.7799  0.5180 -0.1707
    4MOL    H24  990   1.660   7.813   6.669  0.6017 -1.0762 -3.0300
    4MOL    H25  991   1.532   0.103   6.619 -0.6315 -0.4909 -2.0508
    4MOL    H26  992   1.461   7.647   6.743  0.7933 -0.5443 -1.3662
    4MOL    H27  993   1.256   7.610   6.687 -2.0630 -0.9759 -1.1079
    4MOL    H28  994   1.099   0.036   6.609 -2.0784 -1.1717  1.9252
    4MOL    H29  995   1.203   7.771   6.503 -0.1022 -0.6193  0.1924
    4MOL    H30  996   1.057   7.689   6.574  0.6944 -0.5697  1.0946
    4MOL    H31  997   1.105   7.790   6.893 -0.4033  0.2481  0.6177
    4MOL    H32  998   1.213   7.659   6.918  3.1129  2.1041 -2.4645
    4MOL    H33  999   1.072   7.625   6.841 -0.8743  0.5753  0.9731
    4MOL    C34 1000   1.507   7.816   6.885  0.6563 -0.0324  0.4083
    4MOL    C35 1001   1.626   7.740   6.954  0.3889 -0.5638 -0.0275
    4MOL    O36 1002   1.655   7.803   7.079  0.0679 -0.0104 -0.4981
    4MOL    C37 1003   1.721   0.102   7.071 -0.3500  0.0491  0.2050
    4MOL    C38 1004   1.658   0.184   7.178  0.6741 -0.5705  0.0665
    4MOL    C39 1005   1.868   0.085   7.099  0.2736 -0.0261  0.6442
    4MOL    H40 1006   1.436   7.812   6.967  0.8612  1.0925  0.6515
    4MOL    H41 1007   1.530   0.101   6.865  1.5402  0.0105  1.5711
    4MOL    H42 1008   1.714   7.736   6.889  0.9765 -0.6404  0.7638
    4MOL    H43 1009   1.710   0.159   6.979  1.0756  1.8465  1.1306
    4MOL    H44 1010   1.676   0.292   7.179 -0.4428 -0.3845  0.3851
    4MOL    H45 1011   1.684   0.153   7.280  3.5470 -2.0143 -1.0344
    4MOL    H46 1012   1.551   0.166   7.179  0.1580  2.1465  3.2324
    4MOL    H47 1013   1.919   0.016   7.032 -3.5912 -0.5314 -1.9190
    4MOL    H48 1014   1.922   0.180   7.094 -1.1083  0.6831 -1.2103
    4MOL    H49 1015   1.886   0.040   7.197 -1.7756  0.3219  1.2009
    4MOL    C50 1016   1.594   7.597   6.998  0.6841 -0.4299 -0.3935
    4MOL    C51 1017   1.729   7.519   7.040  0.0211  0.5580  0.3203
    4MOL    O52 1018   1.796   7.488   6.919  0.1810 -0.6429  0.2495
    4MOL    C53 1019   1.931   7.535   6.905  0.4456 -0.0898 -0.4825
    4MOL    C54 1020   1.961   7.549   6.751  0.6520  0.3786  0.1450
    4MOL    C55 1021   2.034   7.446   6.981  0.1342  0.1660  0.1929
    4MOL    H56 1022   1.525   7.611   7.081  1.3960 -1.2287  0.3440
    4MOL    H57 1023   1.552   7.538   6.917  0.3155 -2.0674  0.9829
    4MOL    H58 1024   1.784   7.574   7.117 -1.4027 -0.6546  2.2420
    4MOL    H59 1025   1.948   7.638   6.939  1.4119  0.3751 -2.3047
    4MOL    H60 1026   2.065   7.534   6.721  0.0931  0.5712 -1.9605
    4MOL    H61 1027   1.937   7.649   6.717  4.6073  0.5500 -2.4918
    4MOL    H62 1028   1.895   7.479   6.700  0.7409  0.8670 -0.6411
    4MOL    H63 1029   2.135   7.479   6.958  1.8604 -2.0423  4.0967
    4MOL    H64 1030   2.016   7.341   6.958 -0.1739 -0.5224  3.3304
    4MOL    H65 1031   2.009   7.466   7.085 -1.9385 -0.7821 -0.0860
    4MOL    C66 1032   1.697   7.378   7.099  1.0085  0.4108  0.3679
    4MOL    C67 1033   1.659   7.381   7.250 -0.0738 -0.2811  0.1656
    4MOL    O68 1034   1.781   7.417   7.326  0.2815  0.1705 -0.0718
    4MOL    C69 1035   1.763   7.534   7.397 -0.3425  0.3285 -0.2425
    4MOL    C70 1036   1.674   7.512   7.519  0.0089  0.9213  0.3099
    4MOL    C71 1037   1.902   7.587   7.452  0.6383  0.0203 -0.2522
    4MOL    H72 1038   1.626   7.325   7.035  0.5288 -0.3061  1.4872
    4MOL    H73 1039   1.784   7.315   7.081 -0.3621 -1.2485 -0.6487
    4MOL    H74 1040   1.588   7.464   7.255 -0.5560 -0.7749  1.7830
    4MOL    H75 1041   1.718   7.598   7.321 -0.2812  0.5629 -0.0805
    4MOL    H76 1042   1.701   7.430   7.585  2.2165  0.6423 -0.9074
    4MOL    H77 1043   1.678   7.604   7.578 -0.6561 -1.4073  4.1857
    4MOL    H78 1044   1.567   7.497   7.503  0.4888 -0.9834 -1.3038
    4MOL    H79 1045   1.885   7.669   7.521 -0.7853 -0.8684  0.4782
    4MOL    H80 1046   1.967   7.615   7.369  1.7094 -2.1240 -0.1720
    4MOL    H81 1047   1.961   7.511   7.504  2.3441  0.6107 -1.2542
    4MOL    C82 1048   1.589   7.253   7.304 -0.5797 -0.3503  0.4754
    4MOL    C83 1049   1.430   7.259   7.303 -0.5115  0.3736 -0.7068
    4MOL    O84 1050   1.388   7.244   7.167  0.3822 -1.0681 -0.5008
    4MOL    C85 1051   1.323   7.358   7.116 -0.6358  0.6654 -0.5012
    4MOL    C86 1052   1.179   7.376   7.168 -0.1614 -0.8916  1.1093
    4MOL    C87 1053   1.311   7.344   6.967  0.0635  0.1158 -0.3164
    4MOL    H88 1054   1.615   7.169   7.239  2.4771  2.0131 -1.4521
    4MOL    H89 1055   1.628   7.240   7.405 -0.5918 -1.5187  0.3468
    4MOL    H90 1056   1.407   7.356   7.348 -0.1471  0.4368 -0.6529
    4MOL    H91 1057   1.381   7.448   7.139  2.0993 -0.9516 -0.8563
    4MOL    H92 1058   1.136   7.276   7.181 -1.3592 -0.3308  1.5470
    4MOL    H93 1059   1.176   7.424   7.266 -0.6163  2.3178 -0.4051
    4MOL    H94 1060   1.113   7.429   7.100 -0.6016  0.9764  2.9471
    4MOL    H95 1061   1.406   7.331   6.916 -0.9057 -2.7611 -1.5023
    4MOL    H96 1062   1.250   7.257   6.941  0.6705 -1.4194  3.1483
    4MOL    H97 1063   1.254   7.429   6.929 -1.7870 -0.0950  1.8344
    4MOL    C98 1064   1.357   7.158   7.385  0.4911  0.6150  0.1005
    4MOL    C99 1065   1.411   7.010   7.393  0.8023  0.1876 -0.3951
    4MOL   O100 1066   1.301   6.933   7.429  0.8051 -0.2691 -0.3151
    4MOL   C101 1067   1.218   6.880   7.327 -0.0085  0.7663 -0.3363
    4MOL   C102 1068   1.084   6.835   7.393 -0.0087  0.2519 -0.0741
    4MOL   C103 1069   1.277   6.764   7.240 -0.4443 -0.4569 -0.4073
    4MOL   H104 1070   1.332   7.190   7.486  0.9720  1.7945 -0.1502
    4MOL   H105 1071   1.257   7.144   7.342  0.4730  0.0967  0.3091
    4MOL   H106 1072   1.449   6.979   7.295  0.1567 -1.9868  0.0074
    4MOL   H107 1073   1.208   6.962   7.255 -1.1242  2.7084  1.9470
    4MOL   H108 1074   1.106   6.760   7.468  1.2499  0.7191  0.0303
    4MOL   H109 1075   1.001   6.814   7.325  0.2109  1.6509 -0.8051
    4MOL   H110 1076   1.055   6.915   7.462  0.1521  0.5252 -0.3198
    4MOL   H111 1077   1.204   6.720   7.173 -0.8325  1.6437 -1.4127
    4MOL   H112 1078   1.318   6.683   7.300  1.2665  0.4934 -0.2655
    4MOL   H113 1079   1.361   6.808   7.186  0.9145  1.4726  3.1384
    4MOL   C114 1080   1.520   6.991   7.501 -0.2565 -0.3758 -0.0317
    4MOL   C115 1081   1.593   6.853   7.505  0.1349 -0.0304  0.8072
    4MOL   O116 1082   1.668   6.847   7.383  0.0574  0.1959 -0.4568
    4MOL   C117 1083   1.640   6.746   7.297 -0.0450  0.1814 -0.0910
    4MOL   C118 1084   1.710   6.614   7.336 -0.1523  0.3977 -0.3703
    4MOL   C119 1085   1.688   6.785   7.155 -0.7196  0.2867  0.6604
    4MOL   H120 1086   1.468   6.997   7.596 -0.1715 -0.8229  0.0470
    4MOL   H121 1087   1.590   7.074   7.510 -0.1140 -0.4519 -0.3785
    4MOL   H122 1088   1.518   6.774   7.503 -2.0605  2.0176 -0.2471
    4MOL   H123 1089   1.531   6.735   7.296 -0.1435  1.2407 -2.0269
    4MOL   H124 1090   1.664   6.574   7.426 -0.8114 -1.1350 -1.3604
    4MOL   H125 1091   1.818   6.627   7.342 -0.3701  1.3168  1.8163
    4MOL   H126 1092   1.676   6.538   7.265  1.1257 -1.5622  1.0604
    4MOL   H127 1093   1.651   6.710   7.086  1.1661 -0.3296  0.2875
    4MOL   H128 1094   1.796   6.776   7.147 -0.6756  0.0185  1.4622
    4MOL   H129 1095   1.651   6.878   7.114 -1.7829 -1.2822 -2.0423
    4MOL   C130 1096   1.697   6.829   7.621 -0.0574  0.3135  0.0452
    4MOL   C131 1097   1.643   6.845   7.764 -0.0817  1.0382 -0.8343
    4MOL   O132 1098   1.759   6.867   0.020 -0.4864  0.1990  0.1259
    4MOL   C133 1099   1.797   7.003   0.053  0.1084 -0.2857 -0.0271
    4MOL   C134 1100   1.731   7.053   0.181 -0.1265  0.0013 -0.5561
    4MOL   C135 1101   1.949   7.007   0.072  0.5269  0.2840  0.2116
    4MOL   H136 1102   1.789   6.884   7.604 -0.1414  1.2194  2.3820
    4MOL   H137 1103   1.735   6.728   7.601  0.3768  0.3048  0.9293
    4MOL   H138 1104   1.584   6.936   7.773 -0.4776  0.8229 -1.2480
    4MOL   H139 1105   1.770   7.075   7.797  2.8708 -0.6069 -1.3725
    4MOL   H140 1106   1.626   7.028   0.192  0.1277 -0.3432  1.2798
    4MOL   H141 1107   1.743   7.161   0.188 -0.5639 -0.0525  1.3774
    4MOL   H142 1108   1.783   7.010   0.267 -1.2188  0.6796  0.4540
    4MOL   H143 1109   1.983   7.107   0.099  1.0903 -0.4666  2.3438
    4MOL   H144 1110   1.975   6.938   0.152 -2.7156  0.5895  1.6281
    4MOL   H145 1111   2.008   6.976   7.806 -0.0997 -0.8915  0.2000
    4MOL   C146 1112   1.566   6.720   7.817  0.3733  0.3340  0.5854
    4MOL   C147 1113   1.415   6.719   7.800 -0.1631 -0.0377  0.3732
    4MOL   O148 1114   1.365   6.592   0.002 -0.1658 -0.5072  0.0544
    4MOL   C149 1115   1.397   6.498   7.726  0.1297  0.1045 -0.4120
    4MOL   C150 1116   1.270   6.448   7.665  0.2730  0.9768 -0.0791
    4MOL   C151 1117   1.473   6.396   7.802  0.0436 -0.1310 -0.3534
    4MOL   H152 1118   1.597   6.705   0.100  2.4326 -0.6378 -0.1464
    4MOL   H153 1119   1.615   6.639   7.763 -0.8856  1.1879 -1.9315
    4MOL   H154 1120   1.390   6.758   7.701  0.6616 -0.6116 -0.0603
    4MOL   H155 1121   1.449   6.546   7.643 -2.3412  1.0609 -1.4733
    4MOL   H156 1122   1.283   6.376   7.585  1.7659  0.0441  0.9726
    4MOL   H157 1123   1.213   6.535   7.632  0.4736  1.3023  0.4316
    4MOL   H158 1124   1.210   6.404   7.744  1.8641  0.0208  0.6107
    4MOL   H159 1125   1.561   6.436   0.032 -1.2527  0.2213  1.6379
    4MOL   H160 1126   1.508   6.313   7.740 -0.6223 -0.5858 -0.1251
    4MOL   H161 1127   1.413   6.351   0.060  0.1581 -0.1486 -0.2738
    4MOL   C162 1128   1.351   6.820   0.076 -0.4509  0.1182  0.6400
    4MOL   C163 1129   1.199   6.825   0.059  0.1768 -0.9507 -0.0476
    4MOL   O164 1130   1.133   6.872   0.182  0.3621  0.2723  0.5228
    4MOL   C165 1131   1.143   6.785   0.297 -0.1543  0.3161  0.5912
    4MOL   C166 1132   1.003   6.739   0.340  0.1168 -0.6986 -0.0872
    4MOL   C167 1133   1.225   6.861   0.411  0.0776  0.1867  0.2105
    4MOL   H168 1134   1.375   6.777   0.173  1.0084 -1.4077 -0.3544
    4MOL   H169 1135   1.392   6.921   0.080  3.0122 -1.1583 -0.6999
    4MOL   H170 1136   1.151   6.730   0.036  0.5065 -0.6536 -2.0467
    4MOL   H171 1137   1.202   6.694   0.281 -1.4348 -0.9612  2.8254
    4MOL   H172 1138   0.953   6.695   0.254  0.0440  0.9233 -0.8945
    4MOL   H173 1139   0.950   6.823   0.384  1.4904  0.4393 -0.5363
    4MOL   H174 1140   1.015   6.656   0.409  0.2594  0.9126  1.8623
    4MOL   H175 1141   1.331   6.877   0.390  0.2468 -1.5059 -0.2937
    4MOL   H176 1142   1.232   6.806   0.505  2.1296  3.3184  1.9628
    4MOL   H177 1143   1.194   6.964   0.427  0.3541  0.4803 -1.1314
    4MOL   C178 1144   1.153   6.926   7.774 -0.0103 -0.3044  0.0219
    4MOL   C179 1145   1.172   7.079   7.797 -1.0844  0.2794 -0.3838
    4MOL   O180 1146   1.309   7.112   7.793  0.1114  0.3463 -0.0122
    4MOL   C181 1147   1.349   7.234   0.038  0.1691  0.2047  0.5097
    4MOL   C182 1148   1.486   7.269   7.800 -0.6478 -0.1228  0.2075
    4MOL   C183 1149   1.359   7.217   0.190  0.1706  0.4419  0.5320
    4MOL   H184 1150   1.047   6.900   7.770 -0.1924  0.3811  0.4364
    4MOL   H185 1151   1.191   6.897   7.676  1.1675 -1.2317  0.7372
    4MOL   H186 1152   1.141   7.099   0.079  0.3785 -2.2166  0.6055
    4MOL   H187 1153   1.281   7.316   0.018  0.8061  0.5721 -0.1450
    4MOL   H188 1154   1.518   7.349   0.046 -2.9124  1.0009  0.0031
    4MOL   H189 1155   1.480   7.293   7.694  0.0848  3.6395  0.9550
    4MOL   H190 1156   1.559   7.188   7.806 -1.1916 -0.5723  0.7580
    4MOL   H191 1157   1.453   7.166   0.210  0.7388  0.2500 -2.3301
    4MOL   H192 1158   1.270   7.167   0.228  0.6079 -1.6129 -1.0813
    4MOL   H193 1159   1.370   7.317   0.233 -0.6333  0.4043  0.8292
    4MOL   C194 1160   1.093   7.157   7.698  0.5429  0.6157  0.4225
    4MOL   C195 1161   0.941   7.132   7.694  0.6880  0.0896 -0.3440
    4MOL   O196 1162   0.882   7.221   7.600  0.3082 -0.4061  0.2413
    4MOL   C197 1163   0.892   7.206   7.463  0.3858 -0.0601  0.5286
    4MOL   C198 1164   0.776   7.104   7.423  0.3238 -0.0997 -0.5148
    4MOL   C199 1165   0.871   7.353   7.408  0.2800  0.7873 -0.5096
    4MOL   H200 1166   1.106   7.264   7.717  2.7019 -0.0207  2.7328
    4MOL   H201 1167   1.141   7.125   7.606  0.9990 -0.9507  1.1867
    4MOL   H202 1168   0.910   7.029   7.679  2.1606 -0.3588 -0.3662
    4MOL   H203 1169   0.988   7.157   7.447  0.4780  0.6643 -1.3283
    4MOL   H204 1170   0.763   7.100   7.315  0.4477 -0.5933 -0.5085
    4MOL   H205 1171   0.798   7.004   7.459  0.6774 -0.4796 -1.7499
    4MOL   H206 1172   0.683   7.138   7.469  0.5394  1.7891 -1.4224
    4MOL   H207 1173   0.860   7.355   7.300  1.3584  1.4746 -0.6119
    4MOL   H208 1174   0.776   7.396   7.442  1.3400  0.2491  3.3902
    4MOL   H209 1175   0.953   7.417   7.441  1.3740 -0.2985 -1.1278
    4MOL   C210 1176   0.880   7.180   0.010  0.7127  0.5061 -0.1635
    4MOL   C211 1177   0.724   7.172   0.008  0.2265 -0.1154  0.1702
    4MOL   O212 1178   0.669   7.181   0.143 -0.4799  0.5174 -0.1716
    4MOL   C213 1179   0.717   7.083   0.242 -0.5532 -0.3296 -0.1972
    4MOL   C214 1180   0.616   7.104   0.361 -0.0619 -0.3583  0.9150
    4MOL   C215 1181   0.718   6.940   0.188  0.5752 -0.6609  0.0131
    4MOL   H216 1182   0.915   7.279   0.041 -2.3652  1.8330 -0.7498
    4MOL   H217 1183   0.916   7.109   0.085 -0.8010 -0.2275 -0.1135
    4MOL   H218 1184   0.702   7.077   7.780 -0.9065  0.5172 -0.5703
    4MOL   H219 1185   0.822   7.090   0.270 -1.0211 -0.0553  1.5356
    4MOL   H220 1186   0.515   7.078   0.332 -0.2051 -0.9855  1.9259
    4MOL   H221 1187   0.609   7.204   0.403  2.1659 -0.0663  0.6531
    4MOL   H222 1188   0.649   7.026   0.431 -0.7168 -0.3986  1.1783
    4MOL   H223 1189   0.772   6.919   0.095  0.1382  1.4619 -0.7493
    4MOL   H224 1190   0.615   6.909   0.170  0.0794 -0.0980  1.7974
    4MOL   H225 1191   0.747   6.868   0.264  1.6236  1.4433  1.6491
    4MOL   C226 1192   0.641   7.278   7.749  0.7212 -0.0778  0.2988
    4MOL   C227 1193   0.487   7.242   7.746 -0.0278  0.4622  0.8398
    4MOL   O228 1194   0.459   7.116   7.684 -0.5503  0.3022  0.1196
    4MOL   C229 1195   0.412   7.010   7.766 -0.1967  0.5983 -0.1404
    4MOL   C230 1196   0.484   6.879   7.741 -0.0531 -0.4368  0.0334
    4MOL   C231 1197   0.260   6.996   7.747 -0.6594  0.0724  0.6002
    4MOL   H232 1198   0.672   7.273   7.645 -0.8079 -1.0562 -0.1335
    4MOL   H233 1199   0.659   7.378   7.788  1.6149 -0.5212  1.0358
    4MOL   H234 1200   0.455   7.246   0.030 -0.0943  0.8584  0.8054
    4MOL   H235 1201   0.447   7.022   0.049  2.7520 -2.2501 -0.7049
    4MOL   H236 1202   0.464   6.843   7.640  1.4859  2.9922 -1.5943
    4MOL   H237 1203   0.591   6.899   7.740 -0.5973  2.7751 -0.1505
    4MOL   H238 1204   0.458   6.803   7.815  3.1127 -1.3656  0.2642
    4MOL   H239 1205   0.220   6.909   7.799  0.8611 -0.2621  1.2542
    4MOL   H240 1206   0.244   6.983   7.640  0.2484 -2.8267  0.7758
    4MOL   H241 1207   0.194   7.080   7.763 -1.3337 -0.1906 -0.7347
    4MOL   C242 1208   0.405   7.355   7.683  0.1351 -0.2454  0.3633
    4MOL   C243 1209   0.418   7.362   7.519  0.2122 -0.5820  0.0225
    4MOL   O244 1210   0.377   7.486   7.463 -0.3709  0.0987 -0.1587
    4MOL   C245 1211   0.474   7.575   7.408  0.0975  0.4307  0.0735
    4MOL   C246 1212   0.383   7.681   7.358 -0.1765 -0.8304  0.5393
    4MOL   C247 1213   0.579   7.620   7.510  0.7352  0.2349  0.0203
    4MOL   H248 1214   0.299   7.338   7.700 -0.6557  3.2938 -0.5344
    4MOL   H249 1215   0.426   7.448   7.736 -0.8831 -0.4202  1.0863
    4MOL   H250 1216   0.522   7.352   7.487 -0.0676  1.1742 -1.4850
    4MOL   H251 1217   0.528   7.532   7.324 -1.1371 -3.2328  1.0730
    4MOL   H252 1218   0.318   7.701   7.443 -0.5279  0.2765  0.0275
    4MOL   H253 1219   0.430   7.775   7.327  3.3215 -3.3746 -2.2409
    4MOL   H254 1220   0.327   7.646   7.271 -0.9776 -0.3427  0.8517
    4MOL   H255 1221   0.649   7.542   7.539 -0.9642 -0.5715  2.1354
    4MOL   H256 1222   0.631   7.704   7.464 -0.6993  1.6423  0.9039
    4MOL   H257 1223   0.534   7.657   7.602 -0.7010  2.1344 -1.3890
    4MOL   C258 1224   0.328   7.267   7.434  0.1872  0.1514  0.4699
    4MOL   C259 1225   0.339   7.265   7.276 -0.3351  0.5664 -0.2981
    4MOL   O260 1226   0.233   7.179   7.226 -0.5586 -0.3338 -0.3583
    4MOL   C261 1227   0.101   7.234   7.219  0.5364  0.6519  0.6320
    4MOL   C262 1228   0.052   7.249   7.074  0.1283 -0.4390 -0.0555
    4MOL   C263 1229   7.813   7.155   7.302  0.1796 -0.3558 -0.7004
    4MOL   H264 1230   0.345   7.167   7.475  0.9839 -0.4729 -1.3519
    4MOL   H265 1231   0.224   7.299   7.447  0.0897  0.1657 -0.3467
    4MOL   H266 1232   0.336   7.367   7.238  0.0112 -0.0649 -2.0560
    4MOL   H267 1233   0.111   7.327   7.276 -2.2650  0.2170  1.9388
    4MOL   H268 1234   7.813   7.340   7.067  1.6326  0.5287 -0.3828
    4MOL   H269 1235   7.811   7.167   7.037 -0.8916 -0.6010  1.9165
    4MOL   H270 1236   0.129   7.273   7.002  0.5094  3.0791  1.4348
    4MOL   H271 1237   7.799   7.055   7.262  0.5165 -0.2349 -1.1258
    4MOL   H272 1238   0.026   7.157   7.406  0.3824 -0.9550 -0.7569
    4MOL   H273 1239   7.715   7.203   7.306 -1.1234 -3.0063  0.2313
    4MOL   C274 1240   0.476   7.202   7.227  0.2869 -0.0462  0.7074
    4MOL   C275 1241   0.499   7.197   7.073  0.0947  0.1578 -0.1792
    4MOL   O276 1242   0.567   7.313   7.033  0.3069 -0.3524  0.1624
    4MOL   C277 1243   0.493   7.411   6.971  0.3003  0.3781  0.0479
    4MOL   C278 1244   0.477   7.376   6.824 -0.4669  0.0342 -0.2406
    4MOL   C279 1245   0.561   7.544   6.996 -0.6271 -0.2947  0.2410
    4MOL   H280 1246   0.550   7.266   7.277 -0.1799  0.6428  0.5238
    4MOL   H281 1247   0.487   7.106   7.277 -0.1094  1.1555  3.2103
    4MOL   H282 1248   0.413   7.177   7.009 -1.2276 -0.3364  1.6961
    4MOL   H283 1249   0.401   7.413   7.029  0.0735 -1.1349 -0.2597
    4MOL   H284 1250   0.577   7.367   6.781 -1.1315  0.9352 -1.9864
    4MOL   H285 1251   0.419   7.285   6.806  1.0058 -0.6970 -1.4231
    4MOL   H286 1252   0.429   7.460   6.774  1.7135  1.1396 -0.5400
    4MOL   H287 1253   0.587   7.564   7.100 -3.5655 -1.2800  1.2447
    4MOL   H288 1254   0.510   7.630   6.953 -0.5154  0.0467  0.7811
    4MOL   H289 1255   0.656   7.552   6.945 -0.0650 -1.7943  1.0263
    4MOL   C290 1256   0.584   7.072   7.037  0.5506  0.3787 -0.2760
    4MOL   C291 1257   0.657   7.062   6.897 -0.1060 -0.2154 -0.2624
    4MOL   O292 1258   0.786   7.007   6.916 -0.1089 -0.6135  0.0298
    4MOL   C293 1259   0.887   7.101   6.957  0.0016  0.1927  0.2539
    4MOL   C294 1260   0.929   7.192   6.840 -0.0491 -0.0800 -0.1131
    4MOL   C295 1261   1.000   7.012   7.009 -0.5549 -0.3855  0.2255
    4MOL   H296 1262   0.529   6.979   7.047  3.3822 -1.5005 -1.4517
    4MOL   H297 1263   0.656   7.057   7.117  1.4348 -1.5020 -1.3890
    4MOL   H298 1264   0.660   7.159   6.849  0.4275 -0.7327 -1.2885
    4MOL   H299 1265   0.849   7.171   7.032  2.3740  1.5595  0.2101
    4MOL   H300 1266   0.957   7.121   6.761 -0.1663  1.5549 -1.6520
    4MOL   H301 1267   0.847   7.252   6.801 -1.0127 -0.0853  1.8720
    4MOL   H302 1268   1.012   7.258   6.863  2.3351 -3.1892  0.5597
    4MOL   H303 1269   1.072   7.082   7.051 -1.6044  1.2954 -0.7139
    4MOL   H304 1270   0.955   6.942   7.079  0.7584 -0.9536  0.5211
    4MOL   H305 1271   1.056   6.951   6.937  0.2600 -1.1129  1.4569
    4MOL   C306 1272   0.579   6.961   6.809  0.5262  0.1203 -0.1495
    4MOL   C307 1273   0.606   6.976   6.660 -0.1152 -0.4632 -0.0383
    4MOL   O308 1274   0.573   7.110   6.630  0.0991 -0.1722  0.4385
    4MOL   C309 1275   0.609   7.145   6.498  0.2808 -1.1880  0.1112
    4MOL   C310 1276   0.484   7.215   6.444 -0.5135 -0.3463 -0.1134
    4MOL   C311 1277   0.733   7.234   6.512  0.0458 -0.8667  0.2074
    4MOL   H312 1278   0.471   6.973   6.813  0.5196  0.6282 -1.6888
    4MOL   H313 1279   0.591   6.855   6.834  0.8212  0.0970 -0.3836
    4MOL   H314 1280   0.711   6.963   6.636  0.3469  1.2683  0.9540
    4MOL   H315 1281   0.629   7.059   6.433  0.8912 -0.4772 -0.6562
    4MOL   H316 1282   0.394   7.155   6.432 -0.2753 -0.7937  0.3155
    4MOL   H317 1283   0.510   7.258   6.348 -0.4350 -1.5926 -0.6620
    4MOL   H318 1284   0.456   7.296   6.512  0.5296  0.6176 -0.8195
    4MOL   H319 1285   0.704   7.322   6.569 -0.5900  0.8043 -2.5864
    4MOL   H320 1286   0.782   7.265   6.419 -1.7276 -0.9388 -0.7638
    4MOL   H321 1287   0.804   7.178   6.573 -0.8596 -1.1550  0.9967
    4MOL   H322 1288   0.546   6.909   6.598 -0.0718 -1.0142  0.4986
    5MOL     C1 1289   5.303   6.654   7.335 -0.4730 -1.1469 -0.7439
    5MOL     C2 1290   5.411   6.675   7.230 -0.2821  0.2550  0.8123
    5MOL     O3 1291   5.387   6.793   7.155 -0.1431  0.1063  0.3944
    5MOL     C4 1292   5.346   6.773   7.017  0.3936  0.3177 -0.2471
    5MOL     C5 1293   5.349   6.915   6.966  0.1973  0.0792 -0.0749
    5MOL     C6 1294   5.204   6.718   7.001  0.7862 -0.0931  0.2135
    5MOL     H7 1295   5.204   6.681   7.298  0.2074  1.6473 -0.6908
    5MOL     H8 1296   5.297   6.560   7.390  1.6724 -0.9351 -0.1070
    5MOL     H9 1297   5.404   6.594   7.158 -1.0214 -0.2061  1.3973
    5MOL    H10 1298   5.412   6.710   6.956 -0.9952  1.2824 -2.8042
    5MOL    H11 1299   5.260   6.966   7.004 -0.4807 -1.4571  0.4317
    5MOL    H12 1300   5.439   6.969   6.993  0.9040 -0.5959 -1.0625
    5MOL    H13 1301   5.340   6.919   6.858 -0.1419 -1.2030 -0.1018
    5MOL    H14 1302   5.205   6.611   7.021  0.5644 -0.0988  0.1984
    5MOL    H15 1303   5.131   6.764   7.068 -1.4723  0.7702 -2.6787
    5MOL    H16 1304   5.167   6.724   6.898 -0.7767 -2.1579  0.6111
    5MOL    H17 1305   5.320   6.730   7.411 -1.6076  0.6013 -2.1896
    5MOL    C18 1306   5.560   6.673   7.284 -0.1408 -0.2117  0.2961
    5MOL    C19 1307   5.624   6.534   7.306  0.0833  0.1922  0.4682
    5MOL    O20 1308   5.621   6.465   7.179 -0.1813  0.0172  0.3195
    5MOL    C21 1309   5.729   6.496   7.094 -0.4875 -0.0206 -0.2632
    5MOL    C22 1310   5.671   6.530   6.958 -0.0500 -0.3881  0.2776
    5MOL    C23 1311   5.822   6.378   7.086 -0.1995  0.1271 -0.2223
    5MOL    H24 1312   5.623   6.725   7.212 -1.2542 -0.8476 -1.1464
    5MOL    H25 1313   5.562   6.738   7.371 -1.5169 -1.0453  0.9689
    5MOL    H26 1314   5.726   6.566   7.331  0.7246 -1.5298  0.0794
    5MOL    H27 1315   5.784   6.586   7.121  1.1707 -0.9060 -0.6554
    5MOL    H28 1316   5.749   6.560   6.888 -0.4254 -1.4692 -0.6016
    5MOL    H29 1317   5.621   6.446   6.910 -1.0343  0.6078 -0.4630
    5MOL    H30 1318   5.611   6.620   6.952  0.1347 -0.4259 -3.1900
    5MOL    H31 1319   5.870   6.356   7.181  0.4096 -1.4337 -0.8854
    5MOL    H32 1320   5.894   6.409   7.011  0.5191 -0.2319  0.3188
    5MOL    H33 1321   5.783   6.282   7.053  0.1305 -0.1987  0.3238
    5MOL    C34 1322   5.567   6.438   7.417  0.2429  0.0127  0.6392
    5MOL    C35 1323   5.663   6.324   7.450 -0.4932  0.5295 -0.1122
    5MOL    O36 1324   5.639   6.285   7.581 -0.9694  0.1687  0.3752
    5MOL    C37 1325   5.712   6.351   7.686  0.0938 -0.4115 -0.0888
    5MOL    C38 1326   5.651   6.304   7.814 -0.2254 -0.1258 -0.2226
    5MOL    C39 1327   5.854   6.309   7.678 -1.1202 -0.7872  0.2043
    5MOL    H40 1328   5.475   6.386   7.389  1.1619 -2.1432  1.4868
    5MOL    H41 1329   5.548   6.498   7.506  0.1839  1.0942 -0.0979
    5MOL    H42 1330   5.767   6.356   7.439  0.0600 -1.0515  0.4057
    5MOL    H43 1331   5.697   6.459   7.695 -2.5860 -0.9756  3.1867
    5MOL    H44 1332   5.720   6.326   0.076 -1.5866  2.1674  0.3636
    5MOL    H45 1333   5.655   6.196   7.801 -3.1880 -0.2745 -0.2356
    5MOL    H46 1334   5.546   6.329   0.003 -0.4085 -0.5562 -1.1519
    5MOL    H47 1335   5.875   6.203   7.689  2.3008 -0.2617 -0.6491
    5MOL    H48 1336   5.905   6.334   7.584 -0.3105  0.1405  0.8756
    5MOL    H49 1337   5.911   6.355   7.759 -0.2358 -1.4107 -0.0531
    5MOL    C50 1338   5.638   6.205   7.365  0.6743  0.0162 -0.0729
    5MOL    C51 1339   5.739   6.083   7.371  0.3656  0.4769 -1.3520
    5MOL    O52 1340   5.848   6.141   7.296 -0.1169 -0.2757  0.3717
    5MOL    C53 1341   5.972   6.073   7.314  0.3888  0.2662 -0.4563
    5MOL    C54 1342   6.073   6.142   7.406 -0.2867 -0.4015  0.6113
    5MOL    C55 1343   6.032   6.052   7.168 -0.1942  0.3259  0.1047
    5MOL    H56 1344   5.537   6.167   7.383 -0.7410  2.5309 -2.3889
    5MOL    H57 1345   5.630   6.233   7.260 -1.3344 -3.0374 -0.8055
    5MOL    H58 1346   5.761   6.043   7.470 -3.0254 -1.7466 -1.3856
    5MOL    H59 1347   5.959   5.975   7.360  1.0713  0.7086  0.6886
    5MOL    H60 1348   6.103   6.244   7.382  1.5561 -0.7872  1.2438
    5MOL    H61 1349   6.162   6.080   7.408  1.0313  1.4058 -0.9549
    5MOL    H62 1350   6.043   6.141   7.511  2.4168  2.0802  1.4662
    5MOL    H63 1351   5.972   5.982   7.110 -1.2047 -0.0221  1.5267
    5MOL    H64 1352   6.130   6.008   7.149  0.2635 -0.0638  3.0984
    5MOL    H65 1353   6.021   6.149   7.120  3.1838  1.0303  0.6158
    5MOL    C66 1354   5.694   5.960   7.284  0.0047 -0.5303 -0.4493
    5MOL    C67 1355   5.563   5.896   7.336 -0.2469  0.7392 -0.0819
    5MOL    O68 1356   5.608   5.837   7.460 -0.1587 -0.2579  0.1132
    5MOL    C69 1357   5.524   5.827   7.573  0.3544 -0.0095  0.5013
    5MOL    C70 1358   5.508   5.682   7.601 -0.2408  0.9815 -0.8373
    5MOL    C71 1359   5.593   5.907   7.686  0.9239  0.9648 -0.1063
    5MOL    H72 1360   5.687   6.001   7.184  0.9128  1.3493  0.2480
    5MOL    H73 1361   5.763   5.876   7.273 -1.1783 -1.2782 -2.2780
    5MOL    H74 1362   5.488   5.969   7.369 -0.7607  0.1965 -0.0406
    5MOL    H75 1363   5.426   5.868   7.553  0.0125 -1.8436 -1.8044
    5MOL    H76 1364   5.471   5.653   7.699  0.8636 -3.2249 -1.5477
    5MOL    H77 1365   5.483   5.618   7.515  2.0882 -0.9956 -0.0934
    5MOL    H78 1366   5.606   5.637   7.612  0.3885  1.8205 -2.7457
    5MOL    H79 1367   5.629   6.003   7.650 -0.3879  0.5017 -2.7951
    5MOL    H80 1368   5.679   5.857   7.731  0.7899  0.4036 -0.4635
    5MOL    H81 1369   5.528   5.924   7.771 -0.7124 -1.3633 -0.8393
    5MOL    C82 1370   5.501   5.784   7.244 -0.2535  0.3686 -0.0751
    5MOL    C83 1371   5.442   5.850   7.113 -0.3887 -0.3364  0.0195
    5MOL    O84 1372   5.405   5.737   7.033 -0.4632 -0.8116 -0.4291
    5MOL    C85 1373   5.467   5.724   6.905  0.4786  0.6100  0.0951
    5MOL    C86 1374   5.402   5.618   6.816  0.0900 -0.1297 -0.0878
    5MOL    C87 1375   5.620   5.706   6.922 -0.6949 -0.1387 -0.3654
    5MOL    H88 1376   5.566   5.699   7.225 -1.4136 -0.6450  0.3721
    5MOL    H89 1377   5.417   5.736   7.296 -0.7542  0.0587 -1.1526
    5MOL    H90 1378   5.509   5.914   7.057  0.0864 -2.4172 -1.8537
    5MOL    H91 1379   5.449   5.821   6.858  2.1539  0.6032 -0.6235
    5MOL    H92 1380   5.302   5.655   6.796  0.1448  0.5247  0.7987
    5MOL    H93 1381   5.454   5.592   6.724 -0.7316 -3.2468  0.2695
    5MOL    H94 1382   5.397   5.519   6.859  0.2163  0.0731  0.3921
    5MOL    H95 1383   5.626   5.611   6.975  0.1098 -0.7852 -1.5803
    5MOL    H96 1384   5.666   5.682   6.826  0.3784  1.9794 -0.4268
    5MOL    H97 1385   5.680   5.779   6.975 -0.6712  0.2199 -0.8785
    5MOL    C98 1386   5.310   5.931   7.137  0.6914 -0.2410  0.0545
    5MOL    C99 1387   5.268   6.012   7.010  0.1965  0.7468  0.3268
    5MOL   O100 1388   5.203   6.128   7.053 -0.1264 -0.4543 -0.0706
    5MOL   C101 1389   5.285   6.242   7.071  1.3285 -0.4904 -0.5193
    5MOL   C102 1390   5.200   6.346   7.157  0.2618 -0.0361  0.2758
    5MOL   C103 1391   5.306   6.304   6.930  0.6641  0.4985 -1.0229
    5MOL   H104 1392   5.241   5.851   7.165 -0.2526  0.4766 -0.2238
    5MOL   H105 1393   5.321   5.990   7.228  0.8295  0.4389 -0.4036
    5MOL   H106 1394   5.357   6.035   6.952  1.6839 -0.4375  2.0883
    5MOL   H107 1395   5.383   6.228   7.116  1.6542  1.2454 -0.6617
    5MOL   H108 1396   5.100   6.344   7.114 -1.0450 -2.3613  3.2291
    5MOL   H109 1397   5.233   6.446   7.132  1.8835 -0.4582  0.6344
    5MOL   H110 1398   5.206   6.321   7.263  2.9406  0.1550  0.2058
    5MOL   H111 1399   5.334   6.409   6.935 -0.8013  0.9124 -1.2025
    5MOL   H112 1400   5.221   6.307   6.862 -0.3610 -0.2048  0.1902
    5MOL   H113 1401   5.384   6.262   6.868 -1.5510  0.3421 -3.8007
    5MOL   C114 1402   5.172   5.932   6.922 -0.0892 -0.2455 -0.4002
    5MOL   C115 1403   5.150   5.995   6.780  0.6305  0.3216 -0.1190
    5MOL   O116 1404   5.269   5.973   6.704  0.0205  0.0106 -0.3971
    5MOL   C117 1405   5.273   6.027   6.570  0.0155 -0.3194 -0.0087
    5MOL   C118 1406   5.330   5.929   6.470  0.6862  0.3505 -0.5665
    5MOL   C119 1407   5.361   6.151   6.579  0.8255  0.1969  0.5143
    5MOL   H120 1408   5.075   5.934   6.972  0.9272 -0.3058  1.6431
    5MOL   H121 1409   5.205   5.828   6.917  0.3833 -0.1477  0.6987
    5MOL   H122 1410   5.117   6.097   6.801 -0.8046  0.1067 -1.2397
    5MOL   H123 1411   5.177   6.061   6.530 -1.3127 -0.0896  3.2528
    5MOL   H124 1412   5.274   5.836   6.456  1.1691 -0.1539  0.7572
    5MOL   H125 1413   5.427   5.904   6.512  0.8331  0.9793 -0.5403
    5MOL   H126 1414   5.335   5.974   6.371  1.8470 -0.0615 -0.6971
    5MOL   H127 1415   5.447   6.121   6.640  1.3855 -1.0659 -0.8801
    5MOL   H128 1416   5.299   6.222   6.633  0.9286  0.8273 -0.1877
    5MOL   H129 1417   5.399   6.175   6.480  0.8872  0.8874  0.7049
    5MOL   C130 1418   5.036   5.909   6.712  0.2320  0.0113  0.9739
    5MOL   C131 1419   4.923   5.990   6.654 -0.1248  0.1736 -0.2771
    5MOL   O132 1420   4.834   6.024   6.759 -0.5797 -0.1589  0.0673
    5MOL   C133 1421   4.782   6.156   6.761  0.5812  0.3190 -0.2550
    5MOL   C134 1422   4.637   6.148   6.760 -0.2071  0.9056 -0.0000
    5MOL   C135 1423   4.835   6.220   6.889  0.1747  0.4155  0.2615
    5MOL   H136 1424   4.998   5.825   6.771 -1.6514  0.1694  0.0327
    5MOL   H137 1425   5.076   5.838   6.639 -2.0723 -1.5429  1.1832
    5MOL   H138 1426   4.953   6.070   6.587 -0.9641 -0.7073 -1.7507
    5MOL   H139 1427   4.811   6.220   6.678  0.8545 -0.4554 -0.7612
    5MOL   H140 1428   4.618   6.095   6.853 -2.0430  2.4096  0.5163
    5MOL   H141 1429   4.614   6.071   6.687  0.9602  1.5024 -1.0081
    5MOL   H142 1430   4.580   6.242   6.763  1.2052  1.7287  2.3938
    5MOL   H143 1431   4.943   6.237   6.885  0.0047  1.2383 -1.5415
    5MOL   H144 1432   4.791   6.317   6.911 -1.5504 -0.4592  0.7576
    5MOL   H145 1433   4.797   6.166   6.976 -0.0496  0.7667  0.3860
    5MOL   C146 1434   4.850   5.893   6.559 -0.6101  0.2186  0.0248
    5MOL   C147 1435   4.907   5.882   6.419 -0.4405  0.2877 -0.5457
    5MOL   O148 1436   4.822   5.781   6.365  0.2765  0.4076  0.1544
    5MOL   C149 1437   4.865   5.647   6.377  0.1762 -0.0687  0.2126
    5MOL   C150 1438   4.953   5.618   6.257  0.1492  0.4919 -0.2062
    5MOL   C151 1439   4.735   5.571   6.379  0.0264  0.3643  0.3189
    5MOL   H152 1440   4.743   5.914   6.560 -0.8863 -1.0547  3.1716
    5MOL   H153 1441   4.860   5.789   6.591 -3.9152  0.1153  0.9539
    5MOL   H154 1442   5.012   5.852   6.422  0.2141  2.4556 -1.0667
    5MOL   H155 1443   4.921   5.627   6.469 -0.6572 -2.5261  0.2075
    5MOL   H156 1444   4.988   5.515   6.256  0.6147  0.6413  0.6744
    5MOL   H157 1445   5.040   5.684   6.254  1.2487 -0.8446  1.6314
    5MOL   H158 1446   4.910   5.630   6.157  0.4560 -0.2005 -0.4239
    5MOL   H159 1447   4.671   5.593   6.294 -0.4529 -0.5928  0.4243
    5MOL   H160 1448   4.670   5.595   6.462  0.1073 -0.5288  0.6478
    5MOL   H161 1449   4.750   5.463   6.384  1.1678  0.3861 -1.8552
    5MOL   C162 1450   4.909   6.003   6.326 -0.3415 -0.0105 -0.9245
    5MOL   C163 1451   4.785   6.094   6.318  0.6847  1.2944 -0.0997
    5MOL   O164 1452   4.832   6.229   6.280  0.1061 -0.7048 -0.0889
    5MOL   C165 1453   4.846   6.319   6.390  0.0326 -0.5977  0.0707
    5MOL   C166 1454   4.716   6.390   6.429  0.7156  0.7991  0.8636
    5MOL   C167 1455   4.954   6.413   6.332  0.9020  0.3042  0.6427
    5MOL   H168 1456   4.988   6.066   6.366  1.1703 -0.6014 -2.9165
    5MOL   H169 1457   4.945   5.978   6.227  1.4149  0.5539 -0.4464
    5MOL   H170 1458   4.751   6.086   6.422 -1.2818 -0.4853 -0.8342
    5MOL   H171 1459   4.886   6.259   6.472  1.0850 -0.0876 -0.0743
    5MOL   H172 1460   4.732   6.449   6.520 -0.1141  0.6131  1.1346
    5MOL   H173 1461   4.639   6.326   6.473  0.6028  0.0586 -0.4002
    5MOL   H174 1462   4.681   6.458   6.351 -2.1387 -0.1209  1.2672
    5MOL   H175 1463   4.957   6.498   6.401  0.1679 -1.0376  2.3503
    5MOL   H176 1464   4.922   6.439   6.231  0.1375 -0.7566  0.6099
    5MOL   H177 1465   5.053   6.371   6.314  0.7450 -0.0903  0.6993
    5MOL   C178 1466   4.681   6.050   6.216 -0.1183 -0.7048 -0.1486
    5MOL   C179 1467   4.552   6.141   6.203  0.2784 -0.3596 -0.4988
    5MOL   O180 1468   4.480   6.112   6.081 -0.4629 -0.3066  0.5460
    5MOL   C181 1469   4.431   6.229   6.014  0.3209  0.6009 -0.0325
    5MOL   C182 1470   4.324   6.168   5.920 -0.7234 -0.0398 -0.2674
    5MOL   C183 1471   4.543   6.312   5.946 -0.6314 -0.0966  0.2992
    5MOL   H184 1472   4.650   5.949   6.244  1.0217 -0.9491  0.2535
    5MOL   H185 1473   4.735   6.036   6.123 -0.8277  0.2509 -0.7073
    5MOL   H186 1474   4.576   6.247   6.209  1.6646 -0.7164  0.6082
    5MOL   H187 1475   4.381   6.289   6.090 -1.9257 -0.6746 -0.4544
    5MOL   H188 1476   4.369   6.114   5.836 -0.2694 -1.4636  0.8665
    5MOL   H189 1477   4.257   6.245   5.883  0.3569  0.5811 -0.9574
    5MOL   H190 1478   4.267   6.101   5.985  2.9095 -1.8688  1.1830
    5MOL   H191 1479   4.500   6.410   5.925 -2.3564 -0.8281  0.3025
    5MOL   H192 1480   4.571   6.268   5.851 -0.9271 -0.0255  0.1774
    5MOL   H193 1481   4.629   6.325   6.012 -0.0684  2.9852 -0.9653
    5MOL   C194 1482   4.454   6.101   6.324  0.2170  0.5679 -0.1220
    5MOL   C195 1483   4.329   6.197   6.347  0.4232 -0.0344  0.3771
    5MOL   O196 1484   4.367   6.335   6.344  0.3800 -0.2582 -0.0519
    5MOL   C197 1485   4.272   6.435   6.366  0.0428 -0.5736  0.0273
    5MOL   C198 1486   4.350   6.563   6.322  0.2155 -0.0338 -0.3061
    5MOL   C199 1487   4.133   6.437   6.289  0.0564  0.1654  0.1369
    5MOL   H200 1488   4.416   6.001   6.301 -0.4493  0.4360  1.4556
    5MOL   H201 1489   4.509   6.084   6.417  1.5387 -1.7860 -1.2805
    5MOL   H202 1490   4.262   6.171   6.266  0.9679 -1.7680  0.4702
    5MOL   H203 1491   4.251   6.431   6.473 -1.9002 -2.1504 -0.3768
    5MOL   H204 1492   4.304   6.651   6.367 -0.7995 -1.2053  0.9507
    5MOL   H205 1493   4.451   6.555   6.363 -0.1400  1.5574  0.9177
    5MOL   H206 1494   4.364   6.567   6.213  0.9291  1.1283 -0.1811
    5MOL   H207 1495   4.072   6.350   6.316 -0.8060  0.6168 -0.3348
    5MOL   H208 1496   4.074   6.527   6.305  0.3286  0.7148 -1.8531
    5MOL   H209 1497   4.148   6.418   6.183 -0.0922 -1.5536  0.3983
    5MOL   C210 1498   4.259   6.164   6.483 -0.5360 -0.2475  0.2458
    5MOL   C211 1499   4.202   6.021   6.502 -0.7664 -0.2180  0.1249
    5MOL   O212 1500   4.302   5.942   6.574  0.1368  0.4441 -0.3121
    5MOL   C213 1501   4.284   5.797   6.557  0.2884  0.0362 -0.0824
    5MOL   C214 1502   4.345   5.748   6.431 -0.2567 -0.1238  1.1431
    5MOL   C215 1503   4.349   5.729   6.686 -0.0608 -0.0982  0.2806
    5MOL   H216 1504   4.174   6.233   6.487 -1.2072 -1.0331 -0.2985
    5MOL   H217 1505   4.331   6.187   6.562 -0.0958 -0.7204 -0.0181
    5MOL   H218 1506   4.179   5.976   6.405 -1.3267 -0.0153  0.1605
    5MOL   H219 1507   4.185   5.758   6.579 -0.1761  1.3003  0.0456
    5MOL   H220 1508   4.452   5.769   6.438 -0.6540  1.7037  1.9181
    5MOL   H221 1509   4.301   5.794   6.343  3.9415 -0.1430 -1.0795
    5MOL   H222 1510   4.341   5.640   6.412  0.0296  0.2176 -1.0040
    5MOL   H223 1511   4.309   5.791   6.766 -0.2768  0.2272 -0.0773
    5MOL   H224 1512   4.458   5.733   6.693 -0.1646  0.7912  1.4277
    5MOL   H225 1513   4.316   5.625   6.696  0.9734 -0.2906  1.8579
    5MOL   C226 1514   4.075   6.012   6.585 -0.5199 -0.4909 -0.3068
    5MOL   C227 1515   3.935   6.006   6.515 -0.0274 -0.4229 -0.1225
    5MOL   O228 1516   3.933   6.121   6.431 -0.6592 -0.1937  0.6822
    5MOL   C229 1517   3.840   6.133   6.325  0.3640 -0.2092 -0.0250
    5MOL   C230 1518   3.923   6.101   6.201 -0.4894  0.1682 -0.2280
    5MOL   C231 1519   3.773   6.271   6.319 -0.2637 -0.1111  0.4750
    5MOL   H232 1520   4.082   6.085   6.666 -2.9187 -0.7852  0.2153
    5MOL   H233 1521   4.072   5.912   6.630 -2.4675 -0.5841 -0.5958
    5MOL   H234 1522   3.928   5.913   6.460  0.4940 -1.2913  1.2455
    5MOL   H235 1523   3.763   6.057   6.342  0.8515 -0.7462 -0.1948
    5MOL   H236 1524   3.853   6.091   6.117 -0.1764  2.3257 -0.7674
    5MOL   H237 1525   3.989   6.171   6.150 -1.2016  0.0788 -1.3061
    5MOL   H238 1526   3.974   6.006   6.215  1.1258  1.2026  1.0869
    5MOL   H239 1527   3.752   6.310   6.418 -1.1211 -0.5088  0.4584
    5MOL   H240 1528   3.683   6.247   6.261  0.3849 -1.6507  0.0688
    5MOL   H241 1529   3.832   6.339   6.259  1.4723 -0.6014  1.5983
    5MOL   C242 1530   3.810   6.038   6.609  1.3927  0.3279  0.6347
    5MOL   C243 1531   3.754   5.915   6.682 -0.2198  0.0680  0.9345
    5MOL   O244 1532   3.726   5.820   6.574 -0.1408 -0.0671 -0.3969
    5MOL   C245 1533   3.728   5.678   6.607 -0.2344 -0.0679  1.2469
    5MOL   C246 1534   3.683   5.607   6.481 -0.3076  0.2161  0.4384
    5MOL   C247 1535   3.854   5.615   6.663 -0.2745 -0.1435 -0.0161
    5MOL   H248 1536   3.834   6.109   6.687 -1.9535  0.1787  1.8644
    5MOL   H249 1537   3.729   6.091   6.559  2.6094 -0.4192 -2.2597
    5MOL   H250 1538   3.833   5.880   6.750  0.7819 -0.1463 -0.3216
    5MOL   H251 1539   3.657   5.665   6.688  0.4652  1.1610  2.0758
    5MOL   H252 1540   3.580   5.634   6.454  0.4679  1.0982 -1.7990
    5MOL   H253 1541   3.746   5.628   6.394  0.1286 -0.3324  0.6288
    5MOL   H254 1542   3.691   5.499   6.477  1.1308  0.3656 -1.7174
    5MOL   H255 1543   3.879   5.637   6.767  0.5529  1.0210 -0.4423
    5MOL   H256 1544   3.852   5.506   6.658  0.6906 -0.1855  0.2535
    5MOL   H257 1545   3.940   5.661   6.613  0.6420 -0.3319  1.3637
    5MOL   C258 1546   3.619   5.941   6.759 -0.1167  0.3038 -0.6992
    5MOL   C259 1547   3.637   6.017   6.899 -0.3128  1.1156 -0.3839
    5MOL   O260 1548   3.598   5.930   7.001 -0.4256 -0.3977  0.1895
    5MOL   C261 1549   3.703   5.857   7.066  0.1805 -0.1070 -0.1459
    5MOL   C262 1550   3.773   5.912   7.192 -0.2951 -0.8610 -0.1475
    5MOL   C263 1551   3.621   5.734   7.111  0.1087 -0.1848  0.3830
    5MOL   H264 1552   3.544   5.996   6.702  0.6305  0.7192 -1.2846
    5MOL   H265 1553   3.567   5.847   6.777 -1.4278  0.5795 -2.9613
    5MOL   H266 1554   3.742   6.038   6.920  0.3259 -0.3143 -2.0197
    5MOL   H267 1555   3.778   5.826   6.994  1.2400  0.7682  0.5633
    5MOL   H268 1556   3.696   5.943   7.262  1.3088 -0.1853  1.3402
    5MOL   H269 1557   3.840   5.997   7.179 -0.1312 -0.8074  0.9933
    5MOL   H270 1558   3.821   5.836   7.253  0.2778 -0.2012  0.2370
    5MOL   H271 1559   3.566   5.697   7.025  1.1649  0.5100 -0.6044
    5MOL   H272 1560   3.682   5.655   7.154 -0.5446  0.4119  2.4598
    5MOL   H273 1561   3.553   5.769   7.188  0.9054  1.8524  0.1850
    5MOL   C274 1562   3.543   6.138   6.905  0.7439 -0.8337  0.0355
    5MOL   C275 1563   3.596   6.247   6.809 -0.2431  0.3468 -0.4267
    5MOL   O276 1564   3.475   6.299   6.751  0.1205  0.1959 -0.0994
    5MOL   C277 1565   3.491   6.380   6.633 -0.0984  0.1448 -0.3078
    5MOL   C278 1566   3.409   6.503   6.657 -0.1205  0.5908 -0.5375
    5MOL   C279 1567   3.437   6.303   6.514  0.3085  0.0647  0.5905
    5MOL   H280 1568   3.442   6.114   6.871  1.1370  0.1622 -1.9095
    5MOL   H281 1569   3.530   6.180   7.005 -1.3020 -1.5418  0.0877
    5MOL   H282 1570   3.653   6.191   6.735 -2.1275 -2.8696  0.4837
    5MOL   H283 1571   3.594   6.413   6.618  0.0574  0.4833  1.4258
    5MOL   H284 1572   3.412   6.566   6.568  0.4534  1.4241  0.0648
    5MOL   H285 1573   3.308   6.468   6.677 -0.4804  1.1956 -1.2537
    5MOL   H286 1574   3.449   6.560   6.741  3.3125  0.4839 -2.0134
    5MOL   H287 1575   3.330   6.290   6.529 -0.1451  1.2945 -1.3355
    5MOL   H288 1576   3.493   6.211   6.500 -0.4588 -0.7229  2.4937
    5MOL   H289 1577   3.463   6.367   6.429  0.6911 -1.8705 -0.7680
    5MOL   C290 1578   3.673   6.367   6.879  0.0531  0.0546  0.1615
    5MOL   C291 1579   3.819   6.343   6.906  0.1000  0.2146 -0.9312
    5MOL   O292 1580   3.896   6.457   6.867  0.0320  0.1205  0.1314
    5MOL   C293 1581   3.990   6.434   6.764 -0.1012  0.0802  0.2777
    5MOL   C294 1582   4.098   6.536   6.796  0.1066 -0.7028  0.7188
    5MOL   C295 1583   3.927   6.463   6.623  0.5924 -0.1502  0.2833
    5MOL   H296 1584   3.617   6.399   6.967  0.7444 -0.5819  0.8431
    5MOL   H297 1585   3.674   6.456   6.817  1.4084 -0.9119 -1.2553
    5MOL   H298 1586   3.834   6.258   6.840  0.7014  0.8811 -1.6612
    5MOL   H299 1587   4.050   6.343   6.760  2.3571  1.7167 -1.4935
    5MOL   H300 1588   4.188   6.534   6.735 -1.3671  1.0713 -1.5976
    5MOL   H301 1589   4.049   6.632   6.777  0.3755 -1.0771 -2.0656
    5MOL   H302 1590   4.124   6.535   6.902 -1.6473  0.9704  1.2040
    5MOL   H303 1591   4.001   6.485   6.545 -0.1823 -1.5026 -0.8660
    5MOL   H304 1592   3.875   6.377   6.581 -0.6712  0.2266  1.0651
    5MOL   H305 1593   3.858   6.547   6.631 -1.4775 -1.9126  1.4927
    5MOL   C306 1594   3.841   6.301   7.052 -0.1582  0.1850 -0.7088
    5MOL   C307 1595   3.981   6.244   7.083  0.0081  0.1778  0.3201
    5MOL   O308 1596   3.993   6.120   7.011  0.1249  0.2301 -0.1952
    5MOL   C309 1597   4.122   6.059   7.032  0.3338 -0.9666 -0.0428
    5MOL   C310 1598   4.107   5.912   7.000 -0.2951 -0.3056 -0.3289
    5MOL   C311 1599   4.239   6.114   6.945 -0.0234 -0.1641  0.0255
    5MOL   H312 1600   3.775   6.221   7.086 -1.8155  0.7026 -2.6146
    5MOL   H313 1601   3.832   6.386   7.120  1.2351 -0.2172 -0.0052
    5MOL   H314 1602   4.057   6.316   7.054  2.7750 -1.7818  2.4800
    5MOL   H315 1603   4.153   6.072   7.136 -1.0579  2.7342 -0.0233
    5MOL   H316 1604   4.195   5.849   6.999 -3.6327 -5.2530 -0.2972
    5MOL   H317 1605   4.070   5.913   6.897 -0.0389  3.3260 -0.4729
    5MOL   H318 1606   4.038   5.859   7.067 -1.3775 -0.4768 -1.5575
    5MOL   H319 1607   4.269   6.212   6.983 -0.2165 -0.8988  2.0980
    5MOL   H320 1608   4.220   6.132   6.839  0.8546 -1.5151 -0.3680
    5MOL   H321 1609   4.331   6.057   6.943 -0.8064 -1.4413 -1.7413
    5MOL   H322 1610   4.001   6.227   7.188 -2.1299  1.1642  0.9060
    6MOL     C1 1611   4.262   1.710   1.217  0.0322  0.3056 -0.1326
    6MOL     C2 1612   4.384   1.710   1.302  0.6095  0.2828 -0.4742
    6MOL     O3 1613   4.473   1.786   1.223  0.5999  0.1591 -0.2092
    6MOL     C4 1614   4.613   1.746   1.221  0.1472  0.0758 -0.6672
    6MOL     C5 1615   4.686   1.879   1.173 -0.0635  0.0295 -0.3712
    6MOL     C6 1616   4.626   1.637   1.103  0.2429 -0.3050 -0.6014
    6MOL     H7 1617   4.178   1.668   1.273  0.6187  0.7715  1.0975
    6MOL     H8 1618   4.235   1.813   1.194 -1.0433  0.0527 -0.0298
    6MOL     H9 1619   4.414   1.609   1.327  1.5600  0.7046  0.1255
    6MOL    H10 1620   4.658   1.722   1.317 -0.2704  1.9126 -0.0022
    6MOL    H11 1621   4.657   1.923   1.078  1.9182  0.8134 -0.6265
    6MOL    H12 1622   4.682   1.951   1.255  1.2482 -0.5330  0.2022
    6MOL    H13 1623   4.794   1.870   1.167  0.0664  1.0158  0.4236
    6MOL    H14 1624   4.543   1.574   1.072 -1.3860  2.1231 -1.2815
    6MOL    H15 1625   4.644   1.700   1.015  1.1720  2.8329  1.7388
    6MOL    H16 1626   4.711   1.570   1.116 -0.2795 -0.9198 -0.3296
    6MOL    H17 1627   4.283   1.645   1.131 -0.2339 -0.1741  0.1589
    6MOL    C18 1628   4.362   1.787   1.437  0.0750  0.0350 -0.6811
    6MOL    C19 1629   4.295   1.713   1.549  0.2738  0.3271 -0.3877
    6MOL    O20 1630   4.245   1.811   1.639  0.7610 -0.0792  0.6520
    6MOL    C21 1631   4.101   1.829   1.643 -0.9331 -0.2418  0.4806
    6MOL    C22 1632   4.050   1.908   1.525 -0.2477  0.2949 -0.3651
    6MOL    C23 1633   4.066   1.900   1.775  0.2977  0.7614  0.8727
    6MOL    H24 1634   4.456   1.835   1.466  0.0584 -1.4289  1.9424
    6MOL    H25 1635   4.302   1.877   1.422 -3.0110 -1.7482  0.5722
    6MOL    H26 1636   4.227   1.640   1.505  0.2760  0.2632 -0.2842
    6MOL    H27 1637   4.053   1.731   1.645  1.5783 -1.5126 -0.0558
    6MOL    H28 1638   4.100   2.005   1.516  1.6830 -0.5021  1.2475
    6MOL    H29 1639   4.071   1.847   1.438 -1.8570 -0.3451 -0.3104
    6MOL    H30 1640   3.943   1.927   1.519  0.2354  3.1606 -0.6795
    6MOL    H31 1641   4.133   1.877   1.858  0.2399 -0.4533  0.5814
    6MOL    H32 1642   3.961   1.889   1.802 -0.1234 -1.3672 -1.4737
    6MOL    H33 1643   4.083   2.005   1.751  0.8666  0.5522  0.3465
    6MOL    C34 1644   4.408   1.650   1.630  0.4356  0.1810  0.7869
    6MOL    C35 1645   4.380   1.549   1.735 -0.0555 -0.3271 -0.2639
    6MOL    O36 1646   4.313   1.439   1.676 -0.2473 -0.3382  0.0022
    6MOL    C37 1647   4.220   1.361   1.760  0.9574 -0.9623 -0.4843
    6MOL    C38 1648   4.084   1.418   1.735  0.1027  1.3595 -0.3039
    6MOL    C39 1649   4.228   1.211   1.723  0.0143  0.2198 -0.2623
    6MOL    H40 1650   4.480   1.725   1.661  1.0279 -0.0009 -0.1185
    6MOL    H41 1651   4.470   1.589   1.565 -1.7328 -0.2047 -0.9895
    6MOL    H42 1652   4.302   1.591   1.799  0.0126 -1.0057  0.2771
    6MOL    H43 1653   4.255   1.368   1.863 -1.3597 -1.7313  0.3930
    6MOL    H44 1654   4.037   1.398   1.638 -1.4133  1.5250  0.3779
    6MOL    H45 1655   4.091   1.527   1.734  2.6097  1.2177 -0.3471
    6MOL    H46 1656   4.010   1.387   1.809  1.8319  0.2837  1.0133
    6MOL    H47 1657   4.331   1.193   1.752  0.8491  0.4681 -2.9397
    6MOL    H48 1658   4.167   1.154   1.793 -0.2710 -0.9961 -1.4636
    6MOL    H49 1659   4.203   1.185   1.619  0.2385  0.9232 -0.4935
    6MOL    C50 1660   4.498   1.504   1.820  0.2616  0.1542 -0.2297
    6MOL    C51 1661   4.538   1.596   1.934  0.7858  0.5757  0.2985
    6MOL    O52 1662   4.573   1.714   1.877  0.5009 -0.2385 -0.1333
    6MOL    C53 1663   4.547   1.838   1.955  0.7287 -0.5847 -0.4536
    6MOL    C54 1664   4.444   1.921   1.875 -0.3572  0.0942 -0.2141
    6MOL    C55 1665   4.671   1.921   1.971  0.3085 -0.2653  0.1003
    6MOL    H56 1666   4.486   1.407   1.868  0.0610  0.4040  0.2406
    6MOL    H57 1667   4.585   1.487   1.757  0.8239 -1.4952  0.9550
    6MOL    H58 1668   4.447   1.612   1.991  0.6548 -1.0143  0.5620
    6MOL    H59 1669   4.513   1.796   2.051  1.2281 -1.4777 -0.6580
    6MOL    H60 1670   4.408   2.006   1.932  1.3863  1.5679 -1.2527
    6MOL    H61 1671   4.360   1.857   1.846 -0.6549  0.9000 -1.1495
    6MOL    H62 1672   4.482   1.970   1.785 -4.1539  0.9451 -1.4606
    6MOL    H63 1673   4.654   2.012   2.028  2.2364  1.5011 -2.0633
    6MOL    H64 1674   4.711   1.950   1.874  0.4717  0.6499  0.4407
    6MOL    H65 1675   4.755   1.867   2.015 -0.1986 -0.5658  0.7086
    6MOL    C66 1676   4.657   1.555   2.018 -0.8336 -0.4680  0.1523
    6MOL    C67 1677   4.638   1.418   2.094  0.1412 -0.2398 -0.0514
    6MOL    O68 1678   4.536   1.418   2.196 -0.0097 -0.3533 -0.5028
    6MOL    C69 1679   4.472   1.288   2.220  0.1994 -0.4606 -0.4260
    6MOL    C70 1680   4.474   1.262   2.366 -0.5677  0.3110  0.0483
    6MOL    C71 1681   4.339   1.291   2.158 -0.2661  0.7198  0.2436
    6MOL    H72 1682   4.741   1.541   1.950 -1.9120 -2.0141 -0.8817
    6MOL    H73 1683   4.683   1.636   2.086  1.4783 -1.3166  0.3142
    6MOL    H74 1684   4.605   1.340   2.025  0.5327  3.1488 -4.2934
    6MOL    H75 1685   4.524   1.201   2.181  0.4563 -0.2617 -0.5272
    6MOL    H76 1686   4.576   1.247   2.400 -0.5860 -0.1770 -0.0985
    6MOL    H77 1687   4.441   1.353   2.415 -0.8698  0.3348 -0.1955
    6MOL    H78 1688   4.419   1.175   2.402 -0.7084  0.3032 -0.1795
    6MOL    H79 1689   4.360   1.294   2.051  0.6756 -0.4090  0.3825
    6MOL    H80 1690   4.278   1.376   2.189  0.5160  1.7353 -0.9457
    6MOL    H81 1691   4.282   1.198   2.164  1.2764 -0.2296  0.4439
    6MOL    C82 1692   4.769   1.363   2.151  0.7290 -0.3757  0.4701
    6MOL    C83 1693   4.889   1.331   2.048  0.6611  0.3058 -1.0174
    6MOL    O84 1694   5.012   1.322   2.128 -0.0750  0.3529 -0.1558
    6MOL    C85 1695   5.136   1.334   2.066  0.1384  0.0351  0.0664
    6MOL    C86 1696   5.207   1.197   2.035  0.1261 -0.3568 -0.4765
    6MOL    C87 1697   5.228   1.414   2.157  0.6080  0.1518 -0.2872
    6MOL    H88 1698   4.808   1.447   2.208  0.1086 -0.8297  1.5797
    6MOL    H89 1699   4.748   1.276   2.213 -0.8246  1.2182  2.2086
    6MOL    H90 1700   4.891   1.417   1.981  1.7987  1.2682  0.2386
    6MOL    H91 1701   5.122   1.390   1.974 -3.5275  0.7929  1.0361
    6MOL    H92 1702   5.314   1.212   2.021  0.7169 -0.9644  3.0518
    6MOL    H93 1703   5.205   1.128   2.119  0.4417  0.4480  0.1918
    6MOL    H94 1704   5.166   1.150   1.945  1.9102  1.0165 -2.0561
    6MOL    H95 1705   5.175   1.508   2.177  0.3124  0.1172 -0.8786
    6MOL    H96 1706   5.254   1.373   2.254 -0.1622 -1.3781 -0.7032
    6MOL    H97 1707   5.324   1.436   2.111  0.3934  0.6399 -0.5146
    6MOL    C98 1708   4.865   1.205   1.958  0.3496 -0.9098  0.1745
    6MOL    C99 1709   4.825   1.231   1.810  0.7539  0.3339 -0.2081
    6MOL   O100 1710   4.761   1.118   1.747 -0.2573 -0.7205  0.5652
    6MOL   C101 1711   4.617   1.119   1.742 -0.1913 -0.2837  0.7492
    6MOL   C102 1712   4.566   0.979   1.780  0.3698 -0.3865  0.6236
    6MOL   C103 1713   4.569   1.148   1.592  0.4034  0.3649  0.4931
    6MOL   H104 1714   4.960   1.152   1.954 -0.3150 -2.0853 -0.0897
    6MOL   H105 1715   4.786   1.144   2.002  0.0620 -0.5316  0.1893
    6MOL   H106 1716   4.754   1.313   1.803 -0.1060 -0.4075 -0.2066
    6MOL   H107 1717   4.573   1.181   1.820  0.8704 -0.0527  1.1647
    6MOL   H108 1718   4.459   0.967   1.765 -0.2559  2.1615  2.9168
    6MOL   H109 1719   4.603   0.949   1.878 -0.5567  0.6549  1.2993
    6MOL   H110 1720   4.613   0.902   1.718  0.9813 -1.4864  2.4004
    6MOL   H111 1721   4.584   1.254   1.570 -0.2505  0.1911 -0.8922
    6MOL   H112 1722   4.460   1.147   1.586  0.4720 -0.8995 -1.0844
    6MOL   H113 1723   4.611   1.090   1.509 -0.4347  1.1822 -0.5227
    6MOL   C114 1724   4.954   1.256   1.727  0.2140 -0.1539  0.5326
    6MOL   C115 1725   4.937   1.337   1.597 -0.2534 -0.6557  0.3915
    6MOL   O116 1726   4.962   1.475   1.622 -0.1272 -0.2225  0.0164
    6MOL   C117 1727   4.847   1.557   1.661  0.4089 -0.2905 -0.0215
    6MOL   C118 1728   4.770   1.614   1.537  0.0223 -0.1098  0.0093
    6MOL   C119 1729   4.905   1.661   1.757 -0.0858  0.4942  0.3355
    6MOL   H120 1730   5.008   1.164   1.704  1.9437  0.7733  0.7449
    6MOL   H121 1731   5.020   1.314   1.792 -0.2270  0.4492  0.4453
    6MOL   H122 1732   4.843   1.315   1.548  0.3525  1.5942 -1.8708
    6MOL   H123 1733   4.779   1.487   1.709  0.0915  0.3324  0.4458
    6MOL   H124 1734   4.723   1.535   1.479  1.0355 -0.9724  0.3536
    6MOL   H125 1735   4.841   1.676   1.482 -1.3036 -1.3656 -3.2303
    6MOL   H126 1736   4.692   1.675   1.583  2.1188  1.1085  2.0936
    6MOL   H127 1737   4.963   1.731   1.697 -2.2906  3.0609  1.0920
    6MOL   H128 1738   4.968   1.612   1.832  0.9776  1.0626 -0.1841
    6MOL   H129 1739   4.821   1.709   1.806 -0.3856  0.0906  0.2227
    6MOL   C130 1740   5.041   1.292   1.508 -0.0811 -0.1505  0.4433
    6MOL   C131 1741   5.011   1.356   1.368  0.0835  0.1862  0.5376
    6MOL   O132 1742   4.936   1.257   1.299 -0.4781 -0.1691 -0.1853
    6MOL   C133 1743   4.854   1.308   1.196  0.4138  1.2133 -0.5875
    6MOL   C134 1744   4.882   1.211   1.075 -0.5259  0.7252 -0.1202
    6MOL   C135 1745   4.718   1.296   1.250 -0.4143 -0.4307  0.3894
    6MOL   H136 1746   5.049   1.184   1.489  0.2665  0.1422 -1.1223
    6MOL   H137 1747   5.137   1.325   1.549  0.3740 -1.3106  0.3523
    6MOL   H138 1748   4.946   1.443   1.381 -1.7560 -1.2861  1.4860
    6MOL   H139 1749   4.887   1.405   1.159  0.5488  0.8730 -1.3603
    6MOL   H140 1750   4.890   1.109   1.111  2.8757  0.5146 -1.3421
    6MOL   H141 1751   4.986   1.219   1.043  0.8712 -0.2110  3.9563
    6MOL   H142 1752   4.821   1.204   0.985  3.0263  1.4894 -2.6873
    6MOL   H143 1753   4.645   1.321   1.173  1.2617  0.5020 -0.9418
    6MOL   H144 1754   4.705   1.192   1.279 -0.8032 -0.4583  0.1213
    6MOL   H145 1755   4.705   1.364   1.334  1.6233 -0.2133  0.5533
    6MOL   C146 1756   5.144   1.376   1.298  0.0606 -0.5442  0.2806
    6MOL   C147 1757   5.217   1.508   1.337 -0.3561  0.8864  0.1794
    6MOL   O148 1758   5.351   1.490   1.322  0.3528 -0.5508  0.0322
    6MOL   C149 1759   5.424   1.461   1.449 -0.1035  0.4141  0.5710
    6MOL   C150 1760   5.456   1.587   1.539 -0.8069 -0.5216 -0.4070
    6MOL   C151 1761   5.565   1.406   1.403 -0.5974 -0.1897  0.1978
    6MOL   H152 1762   5.129   1.392   1.191 -0.0455 -1.2339  0.1901
    6MOL   H153 1763   5.208   1.290   1.316 -0.0044 -0.6397  0.0674
    6MOL   H154 1764   5.200   1.528   1.443  1.0590 -2.4976  1.1258
    6MOL   H155 1765   5.372   1.381   1.501  1.1407 -0.3637  0.6370
    6MOL   H156 1766   5.522   1.572   1.625 -0.9579 -0.4207 -0.2730
    6MOL   H157 1767   5.369   1.629   1.590 -1.6065 -0.5339 -1.7345
    6MOL   H158 1768   5.498   1.669   1.482  1.4276 -0.3475  1.4231
    6MOL   H159 1769   5.639   1.419   1.482  0.3941 -0.3601 -0.7011
    6MOL   H160 1770   5.590   1.457   1.310  0.8399  1.6980  1.5683
    6MOL   H161 1771   5.546   1.300   1.388  1.0179 -0.6579  1.3257
    6MOL   C162 1772   5.176   1.630   1.259 -0.3767  0.5242 -0.0588
    6MOL   C163 1773   5.219   1.765   1.305  0.3263  0.7029  0.2489
    6MOL   O164 1774   5.230   1.853   1.196 -0.0868 -0.2537  0.5745
    6MOL   C165 1775   5.361   1.856   1.131 -0.2758  0.0225 -0.4131
    6MOL   C166 1776   5.358   1.958   1.025  0.7252 -0.6226 -0.1781
    6MOL   C167 1777   5.415   1.729   1.067 -0.0815 -0.1033 -0.2990
    6MOL   H168 1778   5.203   1.607   1.156 -2.6290 -0.1882 -0.5198
    6MOL   H169 1779   5.067   1.624   1.257 -0.4531  1.8809 -0.5443
    6MOL   H170 1780   5.313   1.751   1.358  0.3255  0.3624  0.1628
    6MOL   H171 1781   5.428   1.889   1.211 -0.8511 -0.8334  0.4447
    6MOL   H172 1782   5.456   1.953   0.978  0.5863 -1.2249 -0.4065
    6MOL   H173 1783   5.353   2.060   1.062 -0.8998 -1.0670  0.8837
    6MOL   H174 1784   5.275   1.935   0.958 -0.0894  1.4916  0.0582
    6MOL   H175 1785   5.349   1.691   0.989  0.8260  0.1674 -1.2048
    6MOL   H176 1786   5.439   1.654   1.142 -0.8832  0.2629  0.3325
    6MOL   H177 1787   5.509   1.758   1.020  1.0587 -0.5782  1.6401
    6MOL   C178 1788   5.119   1.826   1.410  0.0587  0.5585  0.1330
    6MOL   C179 1789   5.179   1.947   1.475  1.0081 -0.3209 -0.1048
    6MOL   O180 1790   5.094   2.010   1.575 -0.1343  0.0958 -0.1491
    6MOL   C181 1791   4.973   2.073   1.525 -0.9448 -0.1337 -0.0137
    6MOL   C182 1792   4.951   2.214   1.592 -0.0095 -0.3506  0.0708
    6MOL   C183 1793   4.853   1.980   1.533 -0.3664 -0.1042  0.1347
    6MOL   H184 1794   5.088   1.752   1.484  0.1099 -0.3085 -0.7035
    6MOL   H185 1795   5.026   1.835   1.353 -0.8419 -0.0575  1.4664
    6MOL   H186 1796   5.207   2.019   1.398 -1.4426 -1.0781 -1.7438
    6MOL   H187 1797   4.996   2.096   1.421 -1.0454  3.5816  0.7465
    6MOL   H188 1798   4.951   2.213   1.701 -1.2481  1.3291  0.1026
    6MOL   H189 1799   4.866   2.263   1.545  1.5431  0.3001 -2.1430
    6MOL   H190 1800   5.037   2.277   1.567  0.1950 -1.1858 -1.3536
    6MOL   H191 1801   4.879   1.875   1.520  3.1670  0.4711  1.7854
    6MOL   H192 1802   4.772   2.010   1.466 -0.0212 -1.7114 -1.0335
    6MOL   H193 1803   4.805   1.991   1.630  1.1385 -2.2699  1.1517
    6MOL   C194 1804   5.307   1.927   1.564  0.1052 -0.3760  0.5835
    6MOL   C195 1805   5.361   2.055   1.621 -0.1354  0.2479 -1.0759
    6MOL   O196 1806   5.423   2.123   1.513 -0.3286 -0.1861  0.4801
    6MOL   C197 1807   5.396   2.264   1.514 -0.3160  0.3397  0.7083
    6MOL   C198 1808   5.476   2.332   1.621 -0.1938  0.1836  1.0407
    6MOL   C199 1809   5.445   2.325   1.382  0.5308  0.2136 -0.6536
    6MOL   H200 1810   5.272   1.855   1.639  1.0556  0.0299  1.4328
    6MOL   H201 1811   5.388   1.875   1.514 -0.7191 -3.6806  2.4984
    6MOL   H202 1812   5.283   2.118   1.664  1.3500  1.2327  0.2869
    6MOL   H203 1813   5.290   2.284   1.530 -0.4640 -1.4878  2.1936
    6MOL   H204 1814   5.584   2.320   1.613 -0.1848  0.3703  0.8843
    6MOL   H205 1815   5.462   2.440   1.619 -3.9091 -0.1996  2.1632
    6MOL   H206 1816   5.441   2.306   1.721 -1.7711  1.6281  0.8757
    6MOL   H207 1817   5.412   2.429   1.372  1.2070  0.3789 -1.1914
    6MOL   H208 1818   5.553   2.314   1.373  0.5598  0.4290 -0.5716
    6MOL   H209 1819   5.400   2.270   1.299  1.8338  2.4231 -2.8920
    6MOL   C210 1820   5.478   2.019   1.727 -0.2987  0.3779  0.1246
    6MOL   C211 1821   5.430   1.995   1.870  0.7183 -0.7032 -0.1532
    6MOL   O212 1822   5.357   1.875   1.871  1.0736 -0.4512  0.4824
    6MOL   C213 1823   5.255   1.863   1.971  0.3855 -0.5308  0.0522
    6MOL   C214 1824   5.119   1.919   1.915  0.3228 -0.3604 -0.3955
    6MOL   C215 1825   5.242   1.715   2.008  0.3618 -0.3737 -1.0166
    6MOL   H216 1826   5.572   2.075   1.725 -0.8613  1.3360  0.0096
    6MOL   H217 1827   5.525   1.930   1.685  0.6892  1.4709 -1.1250
    6MOL   H218 1828   5.356   2.066   1.906  1.2328  0.1949 -0.8456
    6MOL   H219 1829   5.280   1.915   2.063  1.6321 -0.8974 -0.0692
    6MOL   H220 1830   5.031   1.880   1.966  0.0001 -0.3928 -0.9685
    6MOL   H221 1831   5.102   1.879   1.814 -1.2111  0.2906 -0.4115
    6MOL   H222 1832   5.110   2.027   1.902 -2.1492 -0.3932  0.6875
    6MOL   H223 1833   5.332   1.680   2.060  0.8964  0.4913 -1.3521
    6MOL   H224 1834   5.225   1.648   1.923 -2.2392 -1.6005  0.4010
    6MOL   H225 1835   5.153   1.692   2.066  0.7739 -0.5995 -0.4623
    6MOL   C226 1836   5.547   1.979   1.971  0.7995  0.3746  0.3487
    6MOL   C227 1837   5.624   2.112   1.999 -0.2166  0.6387 -0.0913
    6MOL   O228 1838   5.691   2.085   2.122 -0.0789 -0.1464  0.8335
    6MOL   C229 1839   5.835   2.066   2.100 -0.3620 -0.3700 -0.1658
    6MOL   C230 1840   5.875   1.931   2.044  0.1431 -1.1291 -0.1639
    6MOL   C231 1841   5.901   2.106   2.230  0.8060 -0.0141 -0.0890
    6MOL   H232 1842   5.609   1.899   1.929 -0.3930 -0.9833  1.1451
    6MOL   H233 1843   5.504   1.953   2.068 -2.7805  0.6736 -1.0763
    6MOL   H234 1844   5.688   2.138   1.915  0.3130  0.3277  0.2160
    6MOL   H235 1845   5.872   2.138   2.027  0.7131 -0.9501 -0.2018
    6MOL   H236 1846   5.861   1.929   1.936 -2.3592 -0.2661  0.1178
    6MOL   H237 1847   5.976   1.900   2.070  1.0425  1.2876 -0.6440
    6MOL   H238 1848   5.808   1.862   2.096 -0.6089  1.2860  2.1480
    6MOL   H239 1849   5.865   2.204   2.261 -0.8205 -0.3501 -0.8902
    6MOL   H240 1850   6.010   2.118   2.224  0.7069  1.1992  0.4413
    6MOL   H241 1851   5.876   2.030   2.305  0.1329 -1.2367 -1.5229
    6MOL   C242 1852   5.520   2.223   2.040  0.2564 -0.2124  0.6120
    6MOL   C243 1853   5.590   2.356   2.084 -0.3363 -0.7127  0.1225
    6MOL   O244 1854   5.501   2.442   2.154  0.3365  0.3917 -0.5382
    6MOL   C245 1855   5.473   2.406   2.292  0.6490 -0.9641  0.6710
    6MOL   C246 1856   5.593   2.444   2.374 -0.6949 -0.4554  0.4799
    6MOL   C247 1857   5.335   2.451   2.343  0.4993 -0.0071  1.4930
    6MOL   H248 1858   5.454   2.256   1.960  1.6791  1.3514  0.0499
    6MOL   H249 1859   5.454   2.183   2.117  0.1114  1.3944  1.3534
    6MOL   H250 1860   5.672   2.322   2.147 -0.1083 -1.0252 -0.3390
    6MOL   H251 1861   5.491   2.299   2.296  1.3944 -0.7959  1.9467
    6MOL   H252 1862   5.626   2.545   2.350  0.0148 -0.6415  0.6792
    6MOL   H253 1863   5.559   2.451   2.478  2.1096  1.7284  1.3115
    6MOL   H254 1864   5.681   2.380   2.375 -0.5356 -0.2317  1.5964
    6MOL   H255 1865   5.263   2.395   2.283  0.6278  0.5668  0.7891
    6MOL   H256 1866   5.321   2.435   2.450  1.1238  0.5687  1.6657
    6MOL   H257 1867   5.306   2.555   2.326 -0.9803 -0.6993 -0.4182
    6MOL   C258 1868   5.632   2.443   1.962  0.2762 -0.2853  0.3388
    6MOL   C259 1869   5.726   2.563   2.002  0.3737  0.1948  0.2657
    6MOL   O260 1870   5.704   2.668   1.913 -0.5001  0.3041  0.3940
    6MOL   C261 1871   5.592   2.749   1.937 -0.0845  0.0771  0.2485
    6MOL   C262 1872   5.646   2.868   2.013 -0.5018 -0.1538  0.6345
    6MOL   C263 1873   5.524   2.783   1.801  0.1658  0.0828 -0.4913
    6MOL   H264 1874   5.688   2.370   1.903 -0.8182 -0.7437 -0.1449
    6MOL   H265 1875   5.545   2.475   1.904 -0.0112  0.1004  0.9847
    6MOL   H266 1876   5.698   2.590   2.104  0.7088  0.4851  0.2805
    6MOL   H267 1877   5.524   2.689   1.997 -0.3505  4.5527  4.7753
    6MOL   H268 1878   5.572   2.925   2.069  0.1704  0.6539  0.7018
    6MOL   H269 1879   5.700   2.941   1.953 -2.7716  0.7328 -0.3600
    6MOL   H270 1880   5.707   2.833   2.097  0.5784  0.7387  0.2291
    6MOL   H271 1881   5.462   2.702   1.764  1.7518 -0.2667 -2.4502
    6MOL   H272 1882   5.450   2.861   1.818  1.6427  1.9615 -2.4222
    6MOL   H273 1883   5.601   2.802   1.726 -0.6927 -1.3028 -1.7401
    6MOL   C274 1884   5.879   2.529   1.997  0.7718 -0.1448  0.1245
    6MOL   C275 1885   5.971   2.648   2.050 -0.2707 -0.0493  0.2283
    6MOL   O276 1886   5.973   2.628   2.192 -0.1540 -0.3613  0.4804
    6MOL   C277 1887   6.012   2.736   2.269 -0.1657 -0.1339 -0.0059
    6MOL   C278 1888   6.141   2.708   2.345 -0.8971  0.3470 -0.0291
    6MOL   C279 1889   5.893   2.780   2.361  0.6355 -0.3525  0.6387
    6MOL   H280 1890   5.897   2.433   2.045  0.8400 -0.6699 -0.9413
    6MOL   H281 1891   5.904   2.519   1.891  0.9065  0.1421  0.1295
    6MOL   H282 1892   5.936   2.747   2.020 -2.1576 -1.4911 -2.6037
    6MOL   H283 1893   6.027   2.817   2.198  0.0279 -1.4277 -1.4841
    6MOL   H284 1894   6.160   2.786   2.419 -0.8743  0.8268 -0.5337
    6MOL   H285 1895   6.147   2.619   2.407  3.2529  1.2767  1.0140
    6MOL   H286 1896   6.225   2.688   2.278 -1.5179  3.2070 -1.7694
    6MOL   H287 1897   5.932   2.863   2.420 -1.0885  1.0726 -0.1900
    6MOL   H288 1898   5.864   2.700   2.430 -1.8222  1.2645  1.5563
    6MOL   H289 1899   5.806   2.829   2.317 -0.1600 -0.2568  2.2536
    6MOL   C290 1900   6.114   2.625   2.006 -0.1749 -0.2796  0.1839
    6MOL   C291 1901   6.135   2.686   1.864 -0.8753 -0.2258 -0.5867
    6MOL   O292 1902   6.118   2.828   1.877  0.0268 -0.1944 -0.7162
    6MOL   C293 1903   6.003   2.888   1.805 -0.1922  0.1744 -1.1337
    6MOL   C294 1904   6.052   2.925   1.665  0.1067 -0.2822 -0.1648
    6MOL   C295 1905   5.961   3.004   1.891 -0.0224 -0.2969  0.6966
    6MOL   H296 1906   6.144   2.521   2.010 -0.5714 -0.3868  0.4372
    6MOL   H297 1907   6.177   2.670   2.082 -0.8024 -1.6267  1.5067
    6MOL   H298 1908   6.065   2.641   1.794 -2.2550 -0.6027  1.0223
    6MOL   H299 1909   5.919   2.820   1.808 -0.4759  0.5093 -1.4136
    6MOL   H300 1910   5.963   2.967   1.618 -0.1843 -2.2887 -1.4874
    6MOL   H301 1911   6.127   3.005   1.668  0.4877 -0.5500 -1.8176
    6MOL   H302 1912   6.084   2.839   1.606 -0.4711  0.4138 -1.5419
    6MOL   H303 1913   5.873   3.044   1.841 -0.1973 -2.4462 -0.7857
    6MOL   H304 1914   5.937   2.979   1.994 -1.0477 -1.3060  0.2285
    6MOL   H305 1915   6.036   3.082   1.896 -1.1717  0.9756 -1.1425
    6MOL   C306 1916   6.275   2.672   1.801  0.3900 -0.5616  0.4037
    6MOL   C307 1917   6.305   2.522   1.789  0.4307  0.2803 -0.3097
    6MOL   O308 1918   6.195   2.463   1.716 -0.1271  0.0567 -0.4267
    6MOL   C309 1919   6.206   2.330   1.679 -0.2717 -0.4111 -0.6131
    6MOL   C310 1920   6.123   2.252   1.782 -0.1119 -0.2532  0.9472
    6MOL   C311 1921   6.144   2.324   1.539 -0.1578  0.0128  0.3140
    6MOL   H312 1922   6.351   2.714   1.868 -0.2792 -1.2971  1.6380
    6MOL   H313 1923   6.267   2.727   1.707  1.0604  1.6669  1.5971
    6MOL   H314 1924   6.396   2.510   1.730  1.4527  0.8711  1.1160
    6MOL   H315 1925   6.310   2.297   1.673 -0.3053 -0.9099  1.2997
    6MOL   H316 1926   6.166   2.275   1.880  1.6513  1.2332 -0.1464
    6MOL   H317 1927   6.133   2.145   1.762  1.2454  0.2208 -1.0579
    6MOL   H318 1928   6.020   2.285   1.772  0.6965  1.2923 -3.4824
    6MOL   H319 1929   6.035   2.330   1.547 -0.0377  2.2182  0.4966
    6MOL   H320 1930   6.162   2.233   1.481  0.4588  0.9681 -1.0077
    6MOL   H321 1931   6.184   2.393   1.466 -0.0457 -0.5842 -0.1941
    6MOL   H322 1932   6.326   2.487   1.890 -0.6215 -1.0620 -0.5393
    7MOL     C1 1933   5.752   6.429   4.571  0.5261 -0.7954  0.2752
    7MOL     C2 1934   5.619   6.493   4.606  0.1010 -0.4244  0.5698
    7MOL     O3 1935   5.625   6.527   4.749  0.1084  0.3426  0.2184
    7MOL     C4 1936   5.515   6.491   4.830  0.8701  0.0457 -0.0394
    7MOL     C5 1937   5.495   6.619   4.914 -0.0582  0.2709 -0.4664
    7MOL     C6 1938   5.525   6.356   4.905 -0.4201 -0.3366  0.0685
    7MOL     H7 1939   5.771   6.345   4.637  0.1238  0.5261  2.0898
    7MOL     H8 1940   5.756   6.398   4.466 -1.1536  0.3262 -0.1503
    7MOL     H9 1941   5.543   6.415   4.599 -2.0421  1.6015  0.6503
    7MOL    H10 1942   5.429   6.474   4.765  0.9813 -1.8485  0.2783
    7MOL    H11 1943   5.416   6.596   4.986  0.0308  0.0518 -0.4386
    7MOL    H12 1944   5.582   6.651   4.972 -1.0147  3.0126 -0.4482
    7MOL    H13 1945   5.443   6.704   4.869 -3.5401 -0.3768  2.1374
    7MOL    H14 1946   5.430   6.312   4.934  0.4093 -1.6684  0.8505
    7MOL    H15 1947   5.584   6.287   4.845 -1.3139 -1.4141  0.4155
    7MOL    H16 1948   5.571   6.360   5.004 -3.9050 -0.4569  1.7538
    7MOL    H17 1949   5.835   6.500   4.569 -1.4877  1.6646  1.2102
    7MOL    C18 1950   5.589   6.615   4.519 -0.0268 -0.6499  0.1568
    7MOL    C19 1951   5.435   6.650   4.501  0.2366  0.1218 -0.2930
    7MOL    O20 1952   5.370   6.548   4.437 -0.4866 -0.1752  0.0192
    7MOL    C21 1953   5.231   6.539   4.460  0.5286  0.4619 -0.5857
    7MOL    C22 1954   5.178   6.475   4.595 -0.5508 -0.0971  0.4331
    7MOL    C23 1955   5.188   6.439   4.350  0.2525 -0.2764  0.5496
    7MOL    H24 1956   5.643   6.698   4.565 -2.0630  0.9282 -0.1844
    7MOL    H25 1957   5.633   6.594   4.422  1.1087 -0.6718  0.6767
    7MOL    H26 1958   5.388   6.669   4.598 -1.4474 -0.6271 -0.9372
    7MOL    H27 1959   5.173   6.630   4.442 -0.7067  0.1775  1.7165
    7MOL    H28 1960   5.210   6.377   4.629 -2.1651 -0.1244  1.9403
    7MOL    H29 1961   5.214   6.545   4.670 -0.4659  1.0046 -0.6179
    7MOL    H30 1962   5.072   6.453   4.600 -0.5691  0.3467  2.1584
    7MOL    H31 1963   5.086   6.410   4.375  0.8293  0.9642  4.7368
    7MOL    H32 1964   5.253   6.352   4.361  1.1576  0.3692  0.3612
    7MOL    H33 1965   5.221   6.482   4.256  5.0628  2.5959  3.3405
    7MOL    C34 1966   5.431   6.777   4.413  0.4297  0.0139  0.2065
    7MOL    C35 1967   5.496   6.910   4.470 -0.2243 -0.7229  0.2072
    7MOL    O36 1968   5.497   7.004   4.360 -0.2922  0.5890 -0.1537
    7MOL    C37 1969   5.597   6.982   4.266  0.7025  0.3851 -0.3700
    7MOL    C38 1970   5.555   7.061   4.143 -0.2100  0.2593 -0.2945
    7MOL    C39 1971   5.722   7.049   4.335 -0.7513  0.0921  0.1521
    7MOL    H40 1972   5.328   6.808   4.395 -0.1002 -1.0947  1.3249
    7MOL    H41 1973   5.473   6.750   4.316  0.0564 -1.6303  0.5010
    7MOL    H42 1974   5.598   6.887   4.501 -0.2956  0.2267  1.1645
    7MOL    H43 1975   5.623   6.880   4.236  2.3691  0.7080 -0.0807
    7MOL    H44 1976   5.459   7.043   4.096  0.0356 -0.2380 -0.6094
    7MOL    H45 1977   5.624   7.057   4.059 -0.7555 -1.9688 -0.6677
    7MOL    H46 1978   5.555   7.167   4.169  2.7420  0.4507 -0.8868
    7MOL    H47 1979   5.739   7.017   4.437  0.1181 -0.0233 -0.0277
    7MOL    H48 1980   5.818   7.037   4.285 -1.3760 -2.1679 -0.6080
    7MOL    H49 1981   5.708   7.156   4.347 -0.8139  0.0972  0.0523
    7MOL    C50 1982   5.422   6.977   4.584  0.8170  0.2032  0.6480
    7MOL    C51 1983   5.524   7.053   4.671  0.1053  0.7326 -0.2457
    7MOL    O52 1984   5.600   6.958   4.751 -0.1904 -0.3846 -0.4849
    7MOL    C53 1985   5.745   6.950   4.741  0.5434 -0.0834  0.5140
    7MOL    C54 1986   5.792   6.860   4.861 -0.5331  0.5462  0.4514
    7MOL    C55 1987   5.816   7.086   4.751  0.0616  0.4818  0.3618
    7MOL    H56 1988   5.337   7.033   4.545  0.5489 -1.6659 -1.5116
    7MOL    H57 1989   5.374   6.903   4.648  0.8534 -1.8861 -1.6531
    7MOL    H58 1990   5.584   7.126   4.616 -0.9549  0.8836 -1.2334
    7MOL    H59 1991   5.771   6.885   4.658 -2.4931 -0.2145 -0.3669
    7MOL    H60 1992   5.898   6.844   4.844 -0.1938  2.8318  0.2347
    7MOL    H61 1993   5.750   6.759   4.857 -2.4937  1.4001 -2.3963
    7MOL    H62 1994   5.779   6.890   4.965 -2.3218 -0.7080  0.6199
    7MOL    H63 1995   5.775   7.160   4.820  0.0025 -0.2216  1.0738
    7MOL    H64 1996   5.834   7.123   4.650 -0.4854 -1.4311 -0.4592
    7MOL    H65 1997   5.921   7.078   4.781  0.2792  1.9055  0.0607
    7MOL    C66 1998   5.461   7.135   4.784 -0.1867 -0.1999  0.1428
    7MOL    C67 1999   5.352   7.241   4.749 -0.3612  0.1967 -0.4782
    7MOL    O68 2000   5.420   7.334   4.670 -0.6929 -0.7845 -0.0565
    7MOL    C69 2001   5.339   7.406   4.567  0.1533 -0.0797 -0.3432
    7MOL    C70 2002   5.362   7.557   4.595  0.7370 -0.0377 -0.2611
    7MOL    C71 2003   5.386   7.380   4.431  0.0803 -0.2109  0.2318
    7MOL    H72 2004   5.411   7.075   4.861 -0.4590 -2.5483 -1.8061
    7MOL    H73 2005   5.542   7.184   4.837 -0.6136  2.0243 -1.2039
    7MOL    H74 2006   5.274   7.189   4.693 -0.6790 -0.4620  0.5510
    7MOL    H75 2007   5.234   7.382   4.583  0.5218 -0.4127  1.6616
    7MOL    H76 2008   5.465   7.586   4.574  0.3698  1.6247  0.1730
    7MOL    H77 2009   5.297   7.619   4.533 -2.1528 -2.2480  0.4698
    7MOL    H78 2010   5.342   7.586   4.698  2.4214 -0.1880  0.1342
    7MOL    H79 2011   5.494   7.378   4.414 -0.2586  0.3731 -2.1603
    7MOL    H80 2012   5.345   7.448   4.356 -0.2351 -1.5306 -0.8264
    7MOL    H81 2013   5.359   7.279   4.398  2.9115 -0.9779  0.1519
    7MOL    C82 2014   5.287   7.312   4.868 -1.0441 -0.4688 -0.1999
    7MOL    C83 2015   5.247   7.217   4.984  0.2754 -0.0522  0.5102
    7MOL    O84 2016   5.189   7.290   5.089 -0.0261 -0.5485  0.0967
    7MOL    C85 2017   5.279   7.347   5.190 -0.0230  0.3185  0.0916
    7MOL    C86 2018   5.314   7.255   5.303 -0.0123 -0.0453  0.1447
    7MOL    C87 2019   5.208   7.469   5.251  0.0341  0.6118 -0.3674
    7MOL    H88 2020   5.368   7.380   4.897  0.0380 -1.2024 -1.4472
    7MOL    H89 2021   5.204   7.375   4.838 -0.5527  0.9591  1.3702
    7MOL    H90 2022   5.335   7.166   5.023 -0.4248 -0.1278  2.0320
    7MOL    H91 2023   5.373   7.369   5.139  0.1569 -0.0090  0.2794
    7MOL    H92 2024   5.370   7.168   5.268 -0.0339  0.1270 -0.3299
    7MOL    H93 2025   5.385   7.293   5.376 -0.9568 -1.1497  1.6581
    7MOL    H94 2026   5.219   7.229   5.349 -0.1193 -2.2185 -1.2705
    7MOL    H95 2027   5.112   7.436   5.291 -0.7708  2.4784 -0.7154
    7MOL    H96 2028   5.258   7.522   5.332 -2.1258  0.6887  0.9776
    7MOL    H97 2029   5.189   7.544   5.174 -0.5001  0.9753  0.1158
    7MOL    C98 2030   5.151   7.116   4.933  0.1105  0.0104 -0.2808
    7MOL    C99 2031   5.129   7.000   5.032 -0.3599  0.2943 -0.1957
    7MOL   O100 2032   5.046   6.915   4.953 -0.2697 -0.3799  0.0044
    7MOL   C101 2033   5.107   6.824   4.861 -0.1056  0.1931  0.0500
    7MOL   C102 2034   5.016   6.808   4.742 -0.0328  0.2002  0.2271
    7MOL   C103 2035   5.112   6.687   4.937  0.3791 -0.2719  0.0837
    7MOL   H104 2036   5.053   7.154   4.901  0.5795  0.8750 -0.7053
    7MOL   H105 2037   5.199   7.073   4.846  1.8423  1.0519  0.1450
    7MOL   H106 2038   5.229   6.968   5.060 -0.5017  1.3473  1.5669
    7MOL   H107 2039   5.203   6.858   4.825  0.2808 -1.7490 -0.8432
    7MOL   H108 2040   4.923   6.754   4.761  0.5629 -0.5557  1.0143
    7MOL   H109 2041   5.077   6.760   4.665  2.2835 -0.9394  2.6901
    7MOL   H110 2042   4.981   6.903   4.700 -0.5862  0.0859  0.4210
    7MOL   H111 2043   5.114   6.598   4.873  1.2062  1.1832 -1.9613
    7MOL   H112 2044   5.031   6.672   5.008  0.2419 -0.9237 -0.2008
    7MOL   H113 2045   5.209   6.689   4.987  1.1619  0.6391 -1.4514
    7MOL   C114 2046   5.041   7.034   5.152 -0.2045  0.2026 -0.2809
    7MOL   C115 2047   5.025   6.932   5.270  0.1867  0.2094 -0.9798
    7MOL   O116 2048   5.139   6.925   5.348 -0.4597  0.1345  0.4374
    7MOL   C117 2049   5.164   6.800   5.409  0.1684 -0.0688  0.4742
    7MOL   C118 2050   5.253   6.848   5.529 -0.4724 -0.1338  0.1072
    7MOL   C119 2051   5.239   6.715   5.308 -0.2540 -0.4649 -0.0191
    7MOL   H120 2052   4.944   7.063   5.113 -0.0786  3.1279  1.4867
    7MOL   H121 2053   5.076   7.122   5.205 -1.6160  1.2228 -1.0214
    7MOL   H122 2054   5.003   6.839   5.217 -0.1715 -0.2170 -0.1030
    7MOL   H123 2055   5.075   6.745   5.438 -0.1928 -1.8010 -3.5377
    7MOL   H124 2056   5.191   6.881   5.613 -0.9650 -0.8313  0.0295
    7MOL   H125 2057   5.329   6.920   5.498 -0.3273 -0.1047  0.5266
    7MOL   H126 2058   5.307   6.765   5.575 -0.8438 -0.9086 -0.8374
    7MOL   H127 2059   5.283   6.633   5.365  2.3863  1.6644  1.1135
    7MOL   H128 2060   5.328   6.759   5.263 -1.2256  1.0862 -0.4589
    7MOL   H129 2061   5.165   6.681   5.236 -0.3830  0.5277 -0.3588
    7MOL   C130 2062   4.902   6.971   5.365  0.3596  0.1397  0.5589
    7MOL   C131 2063   4.766   6.969   5.293  0.2194 -0.3574  0.0987
    7MOL   O132 2064   4.665   6.985   5.390  0.2878 -0.0197 -0.0370
    7MOL   C133 2065   4.646   7.116   5.453  0.5041 -0.7373  0.1808
    7MOL   C134 2066   4.553   7.204   5.366  0.0101  0.5229  0.6244
    7MOL   C135 2067   4.592   7.099   5.596  0.3970 -0.4579  0.1066
    7MOL   H136 2068   4.913   7.071   5.405 -0.6550  0.5683 -0.2203
    7MOL   H137 2069   4.899   6.902   5.449  3.1913 -0.8783 -0.0764
    7MOL   H138 2070   4.760   7.037   5.208 -2.2987 -1.7816 -0.9020
    7MOL   H139 2071   4.740   7.170   5.467 -0.0246  0.2818 -0.1556
    7MOL   H140 2072   4.515   7.296   5.409  0.1157 -0.0236  1.9296
    7MOL   H141 2073   4.470   7.137   5.344  0.5521  0.1180 -0.2368
    7MOL   H142 2074   4.593   7.233   5.269  1.2480  0.8141  1.2049
    7MOL   H143 2075   4.575   7.197   5.639  0.2665 -0.8014  0.8460
    7MOL   H144 2076   4.505   7.034   5.584  1.5539 -1.5930 -2.5771
    7MOL   H145 2077   4.667   7.041   5.650 -1.4316 -3.0421 -0.0290
    7MOL   C146 2078   4.730   6.826   5.242 -0.5315  0.1102  0.0072
    7MOL   C147 2079   4.617   6.842   5.134 -0.2026 -0.4098 -0.6055
    7MOL   O148 2080   4.683   6.871   5.014 -0.2076  0.3861 -0.5260
    7MOL   C149 2081   4.621   6.946   4.914  0.6191  0.5268  0.9153
    7MOL   C150 2082   4.617   6.851   4.787 -0.2184 -0.6809 -0.0852
    7MOL   C151 2083   4.700   7.074   4.902  0.1195 -0.2196 -0.3309
    7MOL   H152 2084   4.712   6.756   5.323 -0.9531  1.4312  1.0637
    7MOL   H153 2085   4.809   6.780   5.181  0.0577 -1.3238  1.8057
    7MOL   H154 2086   4.541   6.917   5.156 -0.2655  0.5539 -3.8624
    7MOL   H155 2087   4.519   6.978   4.932 -0.2283 -0.5365 -1.8009
    7MOL   H156 2088   4.709   6.795   4.769 -0.8751 -1.2305 -1.8598
    7MOL   H157 2089   4.588   6.908   4.699  1.7514 -2.5798 -2.0419
    7MOL   H158 2090   4.545   6.771   4.804  1.0927 -1.7849  0.4234
    7MOL   H159 2091   4.708   7.126   4.998 -0.3433 -0.1709 -0.3206
    7MOL   H160 2092   4.668   7.145   4.826 -1.9665 -2.4848 -1.6258
    7MOL   H161 2093   4.804   7.049   4.881  0.8302  0.0484  2.5871
    7MOL   C162 2094   4.544   6.709   5.122 -0.4551  0.1535  0.3016
    7MOL   C163 2095   4.425   6.689   5.222  0.5352 -0.3332 -0.3420
    7MOL   O164 2096   4.334   6.796   5.185 -0.4730  0.2198  0.8562
    7MOL   C165 2097   4.273   6.866   5.288  0.2246  0.0622 -0.5987
    7MOL   C166 2098   4.150   6.791   5.352  0.6768 -0.4247  0.0475
    7MOL   C167 2099   4.232   6.994   5.226 -0.3080  0.6846  0.1514
    7MOL   H168 2100   4.513   6.718   5.017  0.4380  3.6468  0.2895
    7MOL   H169 2101   4.613   6.625   5.123 -1.4444 -0.6562  1.5631
    7MOL   H170 2102   4.462   6.691   5.325  0.7758 -0.4642 -0.4240
    7MOL   H171 2103   4.349   6.879   5.365 -0.0830 -1.3958 -0.0211
    7MOL   H172 2104   4.063   6.789   5.286  0.1918 -2.9991  0.7269
    7MOL   H173 2105   4.112   6.839   5.442 -0.2793  1.6782 -1.4248
    7MOL   H174 2106   4.175   6.688   5.376  3.8716 -0.0525 -1.4036
    7MOL   H175 2107   4.314   7.058   5.195 -0.6008 -0.2784 -2.7263
    7MOL   H176 2108   4.168   7.059   5.286 -2.7754  0.3459 -2.0187
    7MOL   H177 2109   4.178   6.969   5.134 -0.5776 -1.5476  0.8913
    7MOL   C178 2110   4.350   6.550   5.192 -0.0819 -0.6113 -0.4864
    7MOL   C179 2111   4.442   6.422   5.198 -0.4561  0.8789  0.0467
    7MOL   O180 2112   4.511   6.406   5.324  0.0820  0.3291 -0.2686
    7MOL   C181 2113   4.620   6.314   5.334 -0.4681 -0.2496  0.0575
    7MOL   C182 2114   4.597   6.236   5.467  0.2332 -0.2974  0.0419
    7MOL   C183 2115   4.753   6.390   5.336 -0.5152  0.1594 -0.0529
    7MOL   H184 2116   4.304   6.547   5.093 -2.4342 -3.4982  0.6314
    7MOL   H185 2117   4.266   6.536   5.260  0.3098  0.4108  0.2146
    7MOL   H186 2118   4.515   6.432   5.118  1.6715  1.2578  1.9816
    7MOL   H187 2119   4.612   6.242   5.252 -1.7919 -1.4919  1.2372
    7MOL   H188 2120   4.626   6.300   5.551  0.7673  0.8236 -0.9833
    7MOL   H189 2121   4.653   6.144   5.483 -0.3573 -0.7052 -0.2639
    7MOL   H190 2122   4.495   6.200   5.477  0.2637 -0.2133  0.6947
    7MOL   H191 2123   4.759   6.464   5.416  0.8383  2.5961 -2.3097
    7MOL   H192 2124   4.763   6.444   5.242  2.2542 -0.0372  0.0765
    7MOL   H193 2125   4.844   6.330   5.337 -1.1362 -0.8409 -1.9307
    7MOL   C194 2126   4.348   6.300   5.176  0.0467 -0.3466  0.1469
    7MOL   C195 2127   4.378   6.214   5.049 -0.5377  0.3721 -0.2230
    7MOL   O196 2128   4.354   6.291   4.930  0.2917 -0.1558 -0.0556
    7MOL   C197 2129   4.427   6.256   4.819 -0.5224  0.2099 -0.7493
    7MOL   C198 2130   4.352   6.298   4.698  0.6595  0.1520 -0.3369
    7MOL   C199 2131   4.561   6.333   4.833  1.3153  0.3276 -0.2074
    7MOL   H200 2132   4.358   6.231   5.260  1.5763 -0.8720 -0.4495
    7MOL   H201 2133   4.244   6.334   5.174 -0.0274 -0.5540  0.3559
    7MOL   H202 2134   4.483   6.186   5.046  0.8954  5.3563 -1.3116
    7MOL   H203 2135   4.449   6.150   4.813  0.3357  0.4067 -1.1905
    7MOL   H204 2136   4.363   6.406   4.690 -0.7009  0.5406  2.4434
    7MOL   H205 2137   4.377   6.248   4.604  3.0350 -1.9897  1.3374
    7MOL   H206 2138   4.246   6.274   4.704  0.0142  2.7492 -0.9866
    7MOL   H207 2139   4.631   6.290   4.761 -1.8787 -2.2085 -1.9418
    7MOL   H208 2140   4.546   6.439   4.813  1.1966  0.4409  0.4625
    7MOL   H209 2141   4.604   6.321   4.932 -2.5423  2.0048  1.7816
    7MOL   C210 2142   4.296   6.088   5.048  0.5604 -0.0383  0.1345
    7MOL   C211 2143   4.322   5.982   5.162  0.4788 -0.3971 -0.4839
    7MOL   O212 2144   4.238   5.873   5.121  0.2552 -0.2772 -0.1415
    7MOL   C213 2145   4.144   5.816   5.209 -0.0429 -0.7168  0.0638
    7MOL   C214 2146   4.027   5.911   5.236  0.7670  0.5055 -0.0186
    7MOL   C215 2147   4.098   5.676   5.166 -0.3359 -0.0721 -0.4577
    7MOL   H216 2148   4.311   6.031   4.956 -0.7164  0.2908 -0.2894
    7MOL   H217 2149   4.194   6.124   5.061  0.4813  0.5047 -1.7926
    7MOL   H218 2150   4.296   6.019   5.261  1.3361 -0.8170 -0.1028
    7MOL   H219 2151   4.194   5.797   5.304  0.2515  1.0599  0.2818
    7MOL   H220 2152   3.973   5.933   5.144  1.6011 -1.5670 -1.0220
    7MOL   H221 2153   4.058   6.000   5.291  1.1287  1.2278 -1.3603
    7MOL   H222 2154   3.956   5.865   5.304 -1.5431  3.5583 -0.2188
    7MOL   H223 2155   4.030   5.634   5.240  0.2477 -0.7324 -0.2892
    7MOL   H224 2156   4.172   5.599   5.145 -1.3839 -0.9016 -1.1586
    7MOL   H225 2157   4.055   5.690   5.067  0.4394  0.4774 -0.7196
    7MOL   C226 2158   4.464   5.929   5.184  0.8468 -0.4684 -0.1031
    7MOL   C227 2159   4.483   5.846   5.311 -0.4595  0.0387  0.1650
    7MOL   O228 2160   4.446   5.932   5.424 -0.0203  0.4045 -0.0510
    7MOL   C229 2161   4.421   5.856   5.545 -0.1836 -0.2398 -0.8275
    7MOL   C230 2162   4.273   5.872   5.583  0.6988 -0.1693 -0.1280
    7MOL   C231 2163   4.505   5.924   5.655 -0.8244 -0.1049 -0.5854
    7MOL   H232 2164   4.539   6.008   5.177  1.6903 -1.0696  1.9953
    7MOL   H233 2165   4.479   5.866   5.096  1.6576 -0.8729  0.3285
    7MOL   H234 2166   4.419   5.757   5.315 -1.8379  1.0378  0.5985
    7MOL   H235 2167   4.444   5.750   5.533  2.5382  0.4700 -2.1778
    7MOL   H236 2168   4.195   5.839   5.514 -0.2068 -0.2478  0.9196
    7MOL   H237 2169   4.251   5.818   5.675 -0.9111  0.2963 -0.2180
    7MOL   H238 2170   4.248   5.964   5.636 -1.1259 -2.5818  3.4361
    7MOL   H239 2171   4.487   6.032   5.660 -2.1866 -0.3778  0.9956
    7MOL   H240 2172   4.611   5.907   5.641 -0.4139  1.5992  0.2903
    7MOL   H241 2173   4.485   5.895   5.758  0.8829  1.0147  0.0786
    7MOL   C242 2174   4.628   5.806   5.340 -0.3522  0.0866 -0.0315
    7MOL   C243 2175   4.669   5.669   5.282  0.1284 -0.6280  1.1074
    7MOL   O244 2176   4.597   5.570   5.350  0.2657  0.6772  0.1805
    7MOL   C245 2177   4.546   5.457   5.274 -0.0507 -0.6640  0.0696
    7MOL   C246 2178   4.570   5.336   5.358  0.4539 -1.0416  0.7955
    7MOL   C247 2179   4.404   5.502   5.228 -0.1486 -0.3371  0.1308
    7MOL   H248 2180   4.686   5.882   5.287 -0.6839  0.1028 -0.3699
    7MOL   H249 2181   4.659   5.805   5.444 -1.2866 -4.3306  0.2770
    7MOL   H250 2182   4.653   5.677   5.174 -4.2515 -0.3162  1.6980
    7MOL   H251 2183   4.602   5.442   5.181  1.4541  0.3563  0.7879
    7MOL   H252 2184   4.541   5.249   5.299 -0.2356 -0.7570  0.7101
    7MOL   H253 2185   4.673   5.324   5.393  0.6623 -0.4599  0.3836
    7MOL   H254 2186   4.491   5.337   5.433  0.0389 -1.4747  0.3679
    7MOL   H255 2187   4.409   5.582   5.153  0.4229  0.6819  1.2367
    7MOL   H256 2188   4.345   5.421   5.186  1.1145 -2.0614  1.6187
    7MOL   H257 2189   4.357   5.545   5.317  0.5852 -2.6788  1.6911
    7MOL   C258 2190   4.820   5.637   5.299  0.3835  0.0568 -0.0721
    7MOL   C259 2191   4.920   5.665   5.190 -0.2167 -0.7955 -0.1398
    7MOL   O260 2192   4.927   5.800   5.157  0.0827 -0.5761 -0.1088
    7MOL   C261 2193   5.010   5.883   5.230  0.8210  0.6366  0.1488
    7MOL   C262 2194   5.158   5.857   5.200  0.2291 -0.3706  1.2801
    7MOL   C263 2195   4.962   6.022   5.188  0.0825 -0.9120 -0.1186
    7MOL   H264 2196   4.853   5.676   5.395  1.2977  1.8812 -1.1254
    7MOL   H265 2197   4.818   5.528   5.307  1.0141  0.1304  1.2515
    7MOL   H266 2198   5.007   5.616   5.233  0.1689 -0.3558 -0.4258
    7MOL   H267 2199   4.987   5.878   5.336  0.0249  1.8576  0.0321
    7MOL   H268 2200   5.196   5.878   5.100 -1.5789  0.7120  0.7825
    7MOL   H269 2201   5.173   5.751   5.221 -0.1060 -0.8510 -0.8121
    7MOL   H270 2202   5.210   5.919   5.273  3.4801  1.4315 -2.3889
    7MOL   H271 2203   4.877   6.054   5.249  1.0345  1.6844 -0.0734
    7MOL   H272 2204   5.035   6.102   5.200  0.4654 -1.0218 -1.6956
    7MOL   H273 2205   4.929   6.030   5.085  0.3060  0.8356 -0.0794
    7MOL   C274 2206   4.890   5.589   5.057  0.2759  0.4777 -0.4957
    7MOL   C275 2207   5.014   5.591   4.963  0.2097 -0.0752 -0.4608
    7MOL   O276 2208   5.068   5.459   4.954 -0.0812 -0.4972 -0.5589
    7MOL   C277 2209   5.136   5.409   5.067  0.2907 -0.9949 -0.0884
    7MOL   C278 2210   5.279   5.474   5.068  0.2581  0.1343 -0.5073
    7MOL   C279 2211   5.159   5.264   5.055  0.2182 -0.0943 -0.4646
    7MOL   H280 2212   4.853   5.491   5.084 -1.0743  0.4342 -2.4035
    7MOL   H281 2213   4.804   5.643   5.019 -1.4096  0.1580  2.7226
    7MOL   H282 2214   5.090   5.657   5.005 -0.2072 -1.0857  1.9552
    7MOL   H283 2215   5.078   5.427   5.158 -2.1949  0.0614 -1.8331
    7MOL   H284 2216   5.289   5.581   5.083  3.8742 -0.0780 -0.9832
    7MOL   H285 2217   5.343   5.423   5.140 -0.1627  0.2817 -0.0310
    7MOL   H286 2218   5.327   5.455   4.972 -1.2069  0.0383 -1.2300
    7MOL   H287 2219   5.225   5.233   5.136  2.0715 -0.8515 -2.2465
    7MOL   H288 2220   5.200   5.245   4.956  3.1900  1.4061  0.4208
    7MOL   H289 2221   5.061   5.215   5.049  0.5275 -0.9209  1.0382
    7MOL   C290 2222   4.975   5.631   4.824 -1.1572  0.1352  0.8765
    7MOL   C291 2223   5.085   5.645   4.724 -0.5346  0.3202  0.1585
    7MOL   O292 2224   5.031   5.693   4.596  0.3264 -0.4704  0.0357
    7MOL   C293 2225   4.976   5.589   4.515 -0.0326 -0.2802  0.1313
    7MOL   C294 2226   5.080   5.531   4.423 -0.4928  0.5669  0.3699
    7MOL   C295 2227   4.869   5.668   4.439 -0.2023 -0.6515 -0.4007
    7MOL   H296 2228   4.938   5.733   4.838 -0.8759  0.4623 -0.6136
    7MOL   H297 2229   4.896   5.566   4.785  0.7280 -1.2957 -0.6248
    7MOL   H298 2230   5.134   5.548   4.713  1.7618  1.6137 -1.5256
    7MOL   H299 2231   4.921   5.510   4.566  1.6572  0.2092  2.8456
    7MOL   H300 2232   5.031   5.505   4.329 -1.6750  2.9378  0.2858
    7MOL   H301 2233   5.154   5.602   4.386 -1.1343  0.8083 -0.4740
    7MOL   H302 2234   5.134   5.447   4.467  1.2924  0.8894 -1.1638
    7MOL   H303 2235   4.914   5.754   4.389 -0.5652  0.5895  1.3586
    7MOL   H304 2236   4.808   5.609   4.371 -1.6188  1.3197 -0.8580
    7MOL   H305 2237   4.782   5.702   4.494 -0.0359  1.5834 -1.4733
    7MOL   C306 2238   5.187   5.755   4.759 -0.0553 -0.9072  0.0753
    7MOL   C307 2239   5.297   5.776   4.656 -0.9044  0.3379 -0.1760
    7MOL   O308 2240   5.339   5.910   4.691  0.2877  0.0468  0.1035
    7MOL   C309 2241   5.336   6.002   4.579 -0.0448 -0.4215 -0.2316
    7MOL   C310 2242   5.370   6.127   4.646  0.1450 -0.4156  0.0964
    7MOL   C311 2243   5.442   5.970   4.477  0.0694  0.5643 -0.7113
    7MOL   H312 2244   5.235   5.734   4.855  1.0769 -1.8281 -0.6731
    7MOL   H313 2245   5.142   5.853   4.776 -3.3422 -2.2137 -0.7894
    7MOL   H314 2246   5.384   5.711   4.653 -0.7779  0.5232 -0.6770
    7MOL   H315 2247   5.234   5.999   4.540 -0.3377  1.0499  0.3814
    7MOL   H316 2248   5.386   6.210   4.578 -0.0639  0.3957  1.0259
    7MOL   H317 2249   5.456   6.109   4.711  0.2972 -0.3258 -0.0818
    7MOL   H318 2250   5.291   6.157   4.715  1.4226  1.2270  0.8568
    7MOL   H319 2251   5.402   5.901   4.402  1.8716  0.2557 -1.4290
    7MOL   H320 2252   5.532   5.933   4.527 -0.8168  1.1840  1.4024
    7MOL   H321 2253   5.463   6.053   4.410 -1.7229  0.0304 -1.9919
    7MOL   H322 2254   5.258   5.768   4.554 -0.0423 -1.7950 -0.3750
    8MOL     C1 2255   6.286   4.614   4.602 -0.1207 -0.5359  0.3930
    8MOL     C2 2256   6.267   4.583   4.454  0.0759  0.3401 -0.4488
    8MOL     O3 2257   6.392   4.537   4.406  0.0147 -0.0889 -0.1866
    8MOL     C4 2258   6.467   4.615   4.314  0.5255 -0.1794  0.0938
    8MOL     C5 2259   6.563   4.528   4.237  1.2360 -0.4765 -0.0648
    8MOL     C6 2260   6.530   4.720   4.394 -0.1631  0.1768 -0.2325
    8MOL     H7 2261   6.187   4.641   4.640  0.1019  2.5265 -1.0386
    8MOL     H8 2262   6.321   4.528   4.659  0.6000  0.6130  1.7092
    8MOL     H9 2263   6.231   4.665   4.393 -0.9470 -0.3842 -0.8155
    8MOL    H10 2264   6.400   4.645   4.234 -1.7140  0.0991  1.9791
    8MOL    H11 2265   6.506   4.442   4.202  1.6443 -1.0068  0.5824
    8MOL    H12 2266   6.611   4.582   4.155  1.9444  0.3733  0.8954
    8MOL    H13 2267   6.629   4.491   4.315  0.0723  0.4835  1.4095
    8MOL    H14 2268   6.570   4.685   4.490  0.0644  1.5750  0.1918
    8MOL    H15 2269   6.624   4.754   4.350  1.3448  0.4669  3.0573
    8MOL    H16 2270   6.463   4.801   4.422 -1.7827 -0.4327 -2.2493
    8MOL    H17 2271   6.356   4.697   4.610  2.1501 -2.3817  0.2611
    8MOL    C18 2272   6.172   4.463   4.411  0.0362  0.5430 -0.0118
    8MOL    C19 2273   6.021   4.496   4.399 -0.5465  0.0387 -0.2855
    8MOL    O20 2274   5.996   4.570   4.277 -0.4244 -0.0376 -0.2659
    8MOL    C21 2275   5.990   4.496   4.157 -0.2630  0.3147  0.3497
    8MOL    C22 2276   6.062   4.576   4.046  0.2494  0.4681  0.3133
    8MOL    C23 2277   5.841   4.484   4.112  0.2335 -0.3250  0.0989
    8MOL    H24 2278   6.206   4.412   4.321 -2.3848  1.0473 -1.2410
    8MOL    H25 2279   6.186   4.392   4.493  0.1501  2.7786  1.9803
    8MOL    H26 2280   5.957   4.408   4.391  0.7442 -0.7412 -2.4427
    8MOL    H27 2281   6.039   4.398   4.159  0.3649  0.6122 -0.3805
    8MOL    H28 2282   6.170   4.561   4.053  0.0718 -0.2388  1.7506
    8MOL    H29 2283   6.038   4.534   3.948  2.3527  0.9790 -0.4408
    8MOL    H30 2284   6.033   4.681   4.042 -0.6979  0.1735 -0.9977
    8MOL    H31 2285   5.832   4.416   4.027  1.8694 -0.9828  0.4405
    8MOL    H32 2286   5.799   4.580   4.083 -1.9793 -0.8388  1.4639
    8MOL    H33 2287   5.771   4.451   4.190 -0.8101 -0.7492 -1.0057
    8MOL    C34 2288   5.954   4.570   4.513  0.6821 -0.1614 -0.2009
    8MOL    C35 2289   5.802   4.585   4.505  0.0310 -0.1126  0.4299
    8MOL    O36 2290   5.757   4.593   4.639  0.3961  0.7490 -0.0654
    8MOL    C37 2291   5.708   4.471   4.692  0.2225 -0.3389  0.3914
    8MOL    C38 2292   5.767   4.455   4.833  0.1777  0.4536 -0.3097
    8MOL    C39 2293   5.558   4.485   4.695  0.2935  0.2266  0.1743
    8MOL    H40 2294   5.996   4.670   4.505  0.0691  0.2030  0.9035
    8MOL    H41 2295   5.992   4.526   4.606 -0.6919  0.6308  0.7605
    8MOL    H42 2296   5.752   4.508   4.446  0.1344  0.3504 -0.2652
    8MOL    H43 2297   5.754   4.394   4.630 -1.5817  0.1017 -1.5408
    8MOL    H44 2298   5.740   4.354   4.863  1.1593  0.3879  0.3904
    8MOL    H45 2299   5.731   4.526   4.908  0.4138 -1.4854  1.6871
    8MOL    H46 2300   5.874   4.463   4.815  0.1107 -0.4292 -1.1416
    8MOL    H47 2301   5.517   4.486   4.594  0.7261 -0.5386 -0.0123
    8MOL    H48 2302   5.508   4.399   4.739  2.2571 -0.5079  1.0009
    8MOL    H49 2303   5.529   4.577   4.746  0.4575 -0.2906  1.1983
    8MOL    C50 2304   5.765   4.713   4.430  0.3947 -0.4299 -0.2323
    8MOL    C51 2305   5.617   4.735   4.392 -0.0220 -0.0672  0.3000
    8MOL    O52 2306   5.579   4.634   4.296  0.2162  0.2676  0.2322
    8MOL    C53 2307   5.437   4.610   4.265  0.3872 -0.0697 -1.0163
    8MOL    C54 2308   5.375   4.507   4.366 -0.0168  0.4158 -0.2053
    8MOL    C55 2309   5.445   4.544   4.126 -0.0914 -0.2356 -0.0444
    8MOL    H56 2310   5.800   4.802   4.484 -1.5972  0.7055 -0.7413
    8MOL    H57 2311   5.824   4.699   4.340  2.6300  0.1149  1.1047
    8MOL    H58 2312   5.547   4.734   4.476  3.4758 -0.7430  3.2999
    8MOL    H59 2313   5.387   4.706   4.254  0.5868  0.0546 -0.8637
    8MOL    H60 2314   5.352   4.561   4.458  0.3627 -0.1421  0.2228
    8MOL    H61 2315   5.439   4.423   4.393 -0.7047  0.1005  0.4722
    8MOL    H62 2316   5.279   4.465   4.336 -0.1189 -1.3776  2.4886
    8MOL    H63 2317   5.525   4.470   4.116 -0.5037 -0.5425 -1.1280
    8MOL    H64 2318   5.457   4.630   4.060  0.8107 -1.8571 -2.0323
    8MOL    H65 2319   5.354   4.500   4.086  1.0437 -0.7548 -2.1298
    8MOL    C66 2320   5.614   4.867   4.306 -0.7726 -0.7110  0.2735
    8MOL    C67 2321   5.628   5.004   4.381  0.3652 -0.1899 -0.1799
    8MOL    O68 2322   5.518   5.000   4.475 -0.0486  0.0987 -0.0686
    8MOL    C69 2323   5.538   5.073   4.595  0.3250  0.9322  0.7231
    8MOL    C70 2324   5.411   5.144   4.640  0.3422  0.4193  0.1705
    8MOL    C71 2325   5.610   4.976   4.693 -0.1073  0.0464  0.0256
    8MOL    H72 2326   5.686   4.848   4.226 -0.4815 -0.3497  0.4451
    8MOL    H73 2327   5.518   4.873   4.256 -0.8811 -0.4234  0.5167
    8MOL    H74 2328   5.725   5.018   4.430  0.6020 -0.8040 -0.4620
    8MOL    H75 2329   5.604   5.157   4.575 -1.1165  1.5330 -1.7435
    8MOL    H76 2330   5.410   5.251   4.622  0.0397  0.5028  0.6578
    8MOL    H77 2331   5.323   5.114   4.582  1.5750 -2.2525 -0.3883
    8MOL    H78 2332   5.402   5.139   4.749  0.1025 -1.4208  0.0907
    8MOL    H79 2333   5.705   4.944   4.651 -0.8066 -0.3578 -1.2574
    8MOL    H80 2334   5.555   4.884   4.713  0.2487 -0.5727 -1.7801
    8MOL    H81 2335   5.631   5.031   4.785  2.3237 -0.1574 -0.3696
    8MOL    C82 2336   5.598   5.138   4.290  0.4709  0.2294 -0.1671
    8MOL    C83 2337   5.708   5.180   4.195 -0.1696  0.6083  1.0590
    8MOL    O84 2338   5.735   5.081   4.100 -0.0475  0.4268  0.5501
    8MOL    C85 2339   5.859   5.075   4.030 -0.6068  0.1066 -1.0506
    8MOL    C86 2340   5.808   4.995   3.906  0.6695 -0.1214 -0.3694
    8MOL    C87 2341   5.967   5.009   4.119  0.2819 -0.1020  0.4303
    8MOL    H88 2342   5.503   5.129   4.238  1.5174  1.9203 -2.4642
    8MOL    H89 2343   5.577   5.221   4.356 -0.4222  0.3685 -0.6222
    8MOL    H90 2344   5.799   5.189   4.254  0.3945 -1.5458  0.5382
    8MOL    H91 2345   5.889   5.175   3.999 -0.4082  0.7963  1.3000
    8MOL    H92 2346   5.768   4.895   3.925  0.6084 -0.1826 -0.8184
    8MOL    H93 2347   5.733   5.052   3.852 -0.9175 -1.4955  0.3404
    8MOL    H94 2348   5.887   4.988   3.831  2.2588 -2.6976  1.4417
    8MOL    H95 2349   5.989   5.076   4.202 -2.2565  2.9064 -1.1937
    8MOL    H96 2350   5.946   4.910   4.160  3.0170 -1.2062 -0.7101
    8MOL    H97 2351   6.063   5.012   4.067 -0.5206 -3.3479 -1.3670
    8MOL    C98 2352   5.671   5.310   4.121 -0.5308 -0.0058 -0.6663
    8MOL    C99 2353   5.738   5.432   4.186 -0.2138  0.3123  0.1181
    8MOL   O100 2354   5.662   5.455   4.309 -0.4336  0.1826 -0.4422
    8MOL   C101 2355   5.733   5.541   4.404 -0.0834 -0.2162 -0.3257
    8MOL   C102 2356   5.724   5.454   4.525 -0.2805  0.7280 -0.8320
    8MOL   C103 2357   5.665   5.669   4.437  0.4852 -0.6936 -0.5710
    8MOL   H104 2358   5.685   5.296   4.014  0.2191 -0.6153 -0.4909
    8MOL   H105 2359   5.563   5.327   4.128  0.1203  3.7893  1.4345
    8MOL   H106 2360   5.841   5.408   4.213 -0.6735 -0.4771  1.1696
    8MOL   H107 2361   5.840   5.554   4.383  0.1294 -0.5898  0.5127
    8MOL   H108 2362   5.625   5.460   4.571  0.0285  1.8673 -0.3104
    8MOL   H109 2363   5.784   5.488   4.610 -0.8619  0.7458 -0.4283
    8MOL   H110 2364   5.753   5.350   4.507 -1.1140 -0.3162  3.2758
    8MOL   H111 2365   5.558   5.654   4.452  0.7553  0.2079  2.8308
    8MOL   H112 2366   5.667   5.736   4.351 -0.4810  0.6437  0.4065
    8MOL   H113 2367   5.699   5.719   4.528 -0.0762  1.2067 -1.3757
    8MOL   C114 2368   5.742   5.562   4.099 -0.5654  0.4919  0.4495
    8MOL   C115 2369   5.799   5.547   3.953 -0.2588 -0.3175 -1.0335
    8MOL   O116 2370   5.817   5.678   3.903 -0.1855 -0.5937 -0.1097
    8MOL   C117 2371   5.702   5.765   3.873 -0.0808  0.2980  0.5589
    8MOL   C118 2372   5.691   5.766   3.721 -0.2698  0.1584  0.2035
    8MOL   C119 2373   5.732   5.898   3.932 -0.1278  0.4222 -0.3654
    8MOL   H120 2374   5.802   5.635   4.154  0.6722  1.5927 -2.2935
    8MOL   H121 2375   5.644   5.611   4.104 -0.0775  1.3488  2.3116
    8MOL   H122 2376   5.727   5.495   3.890 -1.8105  0.9048 -0.2905
    8MOL   H123 2377   5.611   5.720   3.912 -0.1297  0.9144  1.1574
    8MOL   H124 2378   5.635   5.678   3.690  1.1077 -0.7724  0.3078
    8MOL   H125 2379   5.786   5.779   3.669 -0.0385 -0.5138  0.4616
    8MOL   H126 2380   5.631   5.851   3.687 -1.0006 -0.4385 -0.0068
    8MOL   H127 2381   5.732   5.905   4.040  3.0960  1.8247 -0.3976
    8MOL   H128 2382   5.678   5.974   3.875  0.0735  0.1448 -0.9372
    8MOL   H129 2383   5.832   5.934   3.907 -0.1281  0.8961  0.3291
    8MOL   C130 2384   5.939   5.475   3.963  0.4066 -0.1748  0.0885
    8MOL   C131 2385   5.995   5.456   3.819 -0.0292 -0.4960  0.1864
    8MOL   O132 2386   5.926   5.342   3.779  0.4006  0.1475  0.2302
    8MOL   C133 2387   5.854   5.363   3.658  0.0610 -0.4521 -0.1620
    8MOL   C134 2388   5.957   5.334   3.547 -0.7424 -0.3591 -0.0779
    8MOL   C135 2389   5.729   5.271   3.652 -0.2732 -0.9723  0.1389
    8MOL   H136 2390   5.934   5.379   4.015  1.3080 -0.1763  0.1855
    8MOL   H137 2391   6.012   5.532   4.021  0.3759 -3.2867  3.3772
    8MOL   H138 2392   5.975   5.551   3.770  1.8873  0.0213  0.3910
    8MOL   H139 2393   5.811   5.462   3.648 -1.3758 -1.2998 -3.1083
    8MOL   H140 2394   6.045   5.397   3.556 -1.3353  0.3516  0.7670
    8MOL   H141 2395   5.914   5.332   3.446  1.0419 -0.1397 -0.8591
    8MOL   H142 2396   6.000   5.234   3.543 -0.6655 -0.3635  0.8463
    8MOL   H143 2397   5.759   5.166   3.662 -2.6678 -1.9256 -1.9411
    8MOL   H144 2398   5.665   5.299   3.736  0.9665  1.9903  0.1336
    8MOL   H145 2399   5.680   5.287   3.556  0.0718 -0.2192  0.0841
    8MOL   C146 2400   6.148   5.435   3.819 -0.3160  0.3179 -0.3560
    8MOL   C147 2401   6.235   5.561   3.829 -0.4539 -0.2573  0.3465
    8MOL   O148 2402   6.221   5.628   3.961  0.6607 -0.7233 -0.7849
    8MOL   C149 2403   6.244   5.766   3.955 -0.0372 -1.0692 -0.3207
    8MOL   C150 2404   6.319   5.815   4.079 -0.1031  0.0988  1.1712
    8MOL   C151 2405   6.104   5.828   3.927  0.2337  0.3722 -0.1983
    8MOL   H152 2406   6.173   5.389   3.724  1.7506  2.9721 -1.1749
    8MOL   H153 2407   6.183   5.367   3.896  0.1516 -0.3010 -1.1142
    8MOL   H154 2408   6.206   5.627   3.747 -0.2514 -1.1215 -0.4243
    8MOL   H155 2409   6.318   5.789   3.878  0.0645  2.7728  0.8266
    8MOL   H156 2410   6.343   5.920   4.063  1.1516  0.0470  2.5218
    8MOL   H157 2411   6.416   5.765   4.082  0.0000  0.1669 -0.6774
    8MOL   H158 2412   6.253   5.779   4.159 -2.2083 -0.5488 -0.8038
    8MOL   H159 2413   6.109   5.933   3.955  0.8010 -0.1510  1.7663
    8MOL   H160 2414   6.027   5.784   3.991 -0.7394  0.6063 -1.1925
    8MOL   H161 2415   6.072   5.823   3.823 -1.8031  2.1223  0.2963
    8MOL   C162 2416   6.381   5.532   3.790  0.0187  0.4022  0.1968
    8MOL   C163 2417   6.418   5.577   3.646  0.1912  0.0510  1.1939
    8MOL   O164 2418   6.555   5.529   3.638  0.6349  0.0632  0.1362
    8MOL   C165 2419   6.650   5.634   3.634 -0.0120 -0.3700 -0.0911
    8MOL   C166 2420   6.776   5.571   3.575 -0.2340  0.1269 -0.0291
    8MOL   C167 2421   6.676   5.702   3.771  0.1691  1.5398  0.4614
    8MOL   H168 2422   6.438   5.595   3.858  3.5757  0.4572 -2.6495
    8MOL   H169 2423   6.413   5.428   3.802 -0.1474  0.4522  1.0838
    8MOL   H170 2424   6.399   5.684   3.640 -0.7387 -0.0266  2.5811
    8MOL   H171 2425   6.625   5.708   3.557  0.1086 -0.6054 -0.3567
    8MOL   H172 2426   6.847   5.638   3.527 -0.8750  1.9736  1.5583
    8MOL   H173 2427   6.746   5.497   3.500  0.6424 -0.8383  0.5644
    8MOL   H174 2428   6.842   5.520   3.645 -0.3526  1.0367  0.7582
    8MOL   H175 2429   6.763   5.767   3.781  1.4760 -0.5066  2.8042
    8MOL   H176 2430   6.709   5.634   3.849  1.0880  0.7110 -0.6209
    8MOL   H177 2431   6.583   5.751   3.798 -0.7445 -0.5718  1.2239
    8MOL   C178 2432   6.340   5.504   3.529  0.6639  0.0818 -0.6707
    8MOL   C179 2433   6.387   5.526   3.386 -0.3538 -0.4302  0.6458
    8MOL   O180 2434   6.303   5.452   3.300  0.3669  0.0989  0.0355
    8MOL   C181 2435   6.367   5.346   3.232 -0.3594 -0.4856  0.5067
    8MOL   C182 2436   6.284   5.324   3.110 -0.0346 -0.0277 -0.7121
    8MOL   C183 2437   6.389   5.227   3.322  0.5067 -0.7197 -0.3669
    8MOL   H184 2438   6.236   5.535   3.537  0.0887 -1.7850 -0.7099
    8MOL   H185 2439   6.342   5.397   3.550  0.8442  0.3450  0.6941
    8MOL   H186 2440   6.491   5.497   3.374  0.1629  0.6672  2.3094
    8MOL   H187 2441   6.466   5.376   3.196 -0.4914 -0.5971  0.0489
    8MOL   H188 2442   6.342   5.265   3.039  1.5185 -2.1234  2.2183
    8MOL   H189 2443   6.262   5.420   3.063 -0.8231  0.4223  0.5472
    8MOL   H190 2444   6.195   5.271   3.144  0.8291 -0.5841  0.7022
    8MOL   H191 2445   6.306   5.199   3.387  1.0642  2.0023  1.5909
    8MOL   H192 2446   6.475   5.240   3.388  0.0644 -2.1374  0.4917
    8MOL   H193 2447   6.404   5.134   3.267  3.3474 -0.1839 -0.5674
    8MOL   C194 2448   6.389   5.669   3.327  0.2452  0.7956 -0.6245
    8MOL   C195 2449   6.483   5.678   3.207 -0.4423 -0.3512 -0.3946
    8MOL   O196 2450   6.610   5.681   3.275 -1.2744 -0.4760 -0.4431
    8MOL   C197 2451   6.725   5.667   3.186  0.4034  0.4420 -0.8787
    8MOL   C198 2452   6.830   5.775   3.216  0.4332  0.5863 -0.1095
    8MOL   C199 2453   6.775   5.514   3.188 -0.0543  0.3251 -0.0226
    8MOL   H200 2454   6.287   5.693   3.297 -0.8630 -3.0974 -0.2606
    8MOL   H201 2455   6.419   5.741   3.402 -0.1997 -1.5929  1.9307
    8MOL   H202 2456   6.468   5.593   3.140 -0.4444  1.0445 -2.2081
    8MOL   H203 2457   6.699   5.686   3.082 -1.7369 -2.1514 -0.8935
    8MOL   H204 2458   6.842   5.764   3.324  0.2815 -0.3811 -0.1845
    8MOL   H205 2459   6.927   5.769   3.167  0.4955 -1.4985  0.2159
    8MOL   H206 2460   6.787   5.873   3.196 -1.1443  0.2281  1.3287
    8MOL   H207 2461   6.700   5.457   3.133  0.0282 -0.8002  1.0236
    8MOL   H208 2462   6.865   5.503   3.127  1.2047 -1.4083  2.0814
    8MOL   H209 2463   6.795   5.470   3.285 -1.2158  0.5763  0.3345
    8MOL   C210 2464   6.457   5.813   3.119 -0.3773  0.5491  0.2445
    8MOL   C211 2465   6.319   5.829   3.052  1.2783  0.5121  0.6462
    8MOL   O212 2466   6.302   5.958   2.993 -0.0552  0.4099  0.1678
    8MOL   C213 2467   6.265   6.063   3.086 -0.0046 -0.5118 -0.2220
    8MOL   C214 2468   6.346   6.190   3.076 -0.5969  0.4371  0.4559
    8MOL   C215 2469   6.120   6.097   3.056 -0.1221 -0.4619  0.0898
    8MOL   H216 2470   6.537   5.814   3.044 -2.3210 -3.6089 -2.0705
    8MOL   H217 2471   6.479   5.895   3.187  3.3541 -1.0511  1.0937
    8MOL   H218 2472   6.236   5.815   3.120 -0.9407  1.7688 -1.6854
    8MOL   H219 2473   6.270   6.046   3.193 -1.1334  1.1185  0.1084
    8MOL   H220 2474   6.453   6.174   3.084 -0.1403  2.1366 -1.8126
    8MOL   H221 2475   6.317   6.273   3.140  1.1678 -1.1797  3.4833
    8MOL   H222 2476   6.337   6.234   2.977  4.8319 -1.0452 -0.8537
    8MOL   H223 2477   6.050   6.016   3.076 -0.0868 -0.5719 -0.2261
    8MOL   H224 2478   6.114   6.120   2.950 -0.4804 -1.5495 -0.1290
    8MOL   H225 2479   6.080   6.179   3.116 -3.1835 -1.1056 -1.0003
    8MOL   C226 2480   6.299   5.721   2.943  0.0017  0.2667  0.0180
    8MOL   C227 2481   6.154   5.696   2.913 -0.1343 -0.4691  0.7138
    8MOL   O228 2482   6.113   5.634   3.029 -0.1118 -0.1832 -0.2684
    8MOL   C229 2483   6.002   5.680   3.104 -0.0039 -0.2586  0.1560
    8MOL   C230 2484   5.999   5.560   3.204 -0.4637  0.0899 -0.0601
    8MOL   C231 2485   5.878   5.677   3.014  0.5861 -0.2256  0.8904
    8MOL   H232 2486   6.361   5.632   2.960 -1.6612 -0.4381  2.8112
    8MOL   H233 2487   6.341   5.754   2.849  1.2208 -0.5649  0.2588
    8MOL   H234 2488   6.112   5.796   2.902  0.7826 -0.2624 -0.9565
    8MOL   H235 2489   6.014   5.776   3.154  1.9252 -0.2297 -0.3275
    8MOL   H236 2490   5.911   5.552   3.269 -0.0811  0.5019  0.5129
    8MOL   H237 2491   6.016   5.463   3.159  0.8737 -0.1404  0.9211
    8MOL   H238 2492   6.083   5.573   3.273 -0.8267  0.8997  0.2419
    8MOL   H239 2493   5.886   5.764   2.949  0.0294  1.5493  3.1224
    8MOL   H240 2494   5.787   5.665   3.074  1.0337 -0.9013  1.4433
    8MOL   H241 2495   5.872   5.592   2.946  0.7413  3.0125 -3.3435
    8MOL   C242 2496   6.130   5.596   2.800 -0.4270  0.0777 -0.1639
    8MOL   C243 2497   6.166   5.643   2.655 -0.2850  0.1006  0.3031
    8MOL   O244 2498   6.074   5.748   2.639 -0.0087  0.1494  0.7955
    8MOL   C245 2499   6.120   5.885   2.630  0.2864  0.2524 -0.1721
    8MOL   C246 2500   6.195   5.895   2.497  0.1771 -0.6118  0.6413
    8MOL   C247 2501   5.998   5.975   2.641 -0.7478  0.5653  0.0240
    8MOL   H248 2502   6.189   5.510   2.833 -2.5229 -1.3923 -0.1581
    8MOL   H249 2503   6.022   5.581   2.803 -0.2751 -1.2934 -1.0827
    8MOL   H250 2504   6.269   5.680   2.661 -0.1305 -0.3800  0.5998
    8MOL   H251 2505   6.186   5.907   2.714 -0.0112 -2.3205  0.7684
    8MOL   H252 2506   6.262   5.810   2.480  2.1587  0.7081  1.6259
    8MOL   H253 2507   6.143   5.903   2.401 -0.1493 -1.0524  0.7807
    8MOL   H254 2508   6.252   5.988   2.496  0.0855 -0.5373 -2.3692
    8MOL   H255 2509   5.923   5.954   2.565 -0.1922  2.9439 -1.2013
    8MOL   H256 2510   5.943   5.968   2.735  3.1145  0.1479  2.3524
    8MOL   H257 2511   6.033   6.078   2.634  0.8249  0.0546  0.0755
    8MOL   C258 2512   6.144   5.528   2.551  0.4815 -0.0964  0.0399
    8MOL   C259 2513   6.264   5.468   2.472  0.9818 -0.0931  0.1596
    8MOL   O260 2514   6.224   5.375   2.367  0.0138 -0.2210 -0.1500
    8MOL   C261 2515   6.197   5.437   2.247 -0.1622 -0.3767  1.1019
    8MOL   C262 2516   6.319   5.474   2.165 -0.5142  0.6446 -0.0702
    8MOL   C263 2517   6.099   5.341   2.176 -0.6170 -0.0174 -0.0137
    8MOL   H264 2518   6.083   5.455   2.605  1.9170  1.1874  3.5407
    8MOL   H265 2519   6.076   5.569   2.476 -1.2808 -0.6293  1.3174
    8MOL   H266 2520   6.331   5.546   2.435 -0.1796  0.7026 -0.2899
    8MOL   H267 2521   6.141   5.530   2.261  2.1626  1.3151 -0.4836
    8MOL   H268 2522   6.375   5.382   2.145  0.6946  1.7892 -1.9991
    8MOL   H269 2523   6.376   5.556   2.208 -1.5559  0.0578  2.5854
    8MOL   H270 2524   6.279   5.506   2.069  0.6596 -0.7448 -1.0452
    8MOL   H271 2525   6.144   5.254   2.129 -3.0073  0.3960 -3.2681
    8MOL   H272 2526   6.028   5.300   2.248  1.7975 -1.2624  1.6870
    8MOL   H273 2527   6.048   5.399   2.098  0.4572  0.9751  0.0026
    8MOL   C274 2528   6.348   5.382   2.568  0.1005  0.2660  0.1333
    8MOL   C275 2529   6.497   5.385   2.533 -0.0367 -0.3267  0.2477
    8MOL   O276 2530   6.534   5.515   2.590  0.1245  0.2278 -0.2904
    8MOL   C277 2531   6.649   5.585   2.536 -0.2086 -0.1747  1.1444
    8MOL   C278 2532   6.677   5.700   2.636 -0.2232  0.9201  0.1464
    8MOL   C279 2533   6.627   5.627   2.387 -0.4290  0.2310 -0.3452
    8MOL   H280 2534   6.336   5.425   2.668 -0.2491 -0.8535  0.5831
    8MOL   H281 2535   6.303   5.283   2.570  1.9608 -0.5999 -0.6088
    8MOL   H282 2536   6.511   5.380   2.425  0.7695 -1.9256  0.4178
    8MOL   H283 2537   6.733   5.515   2.539  0.0168  0.1394  3.3493
    8MOL   H284 2538   6.585   5.755   2.655 -1.0561 -0.3295 -0.1976
    8MOL   H285 2539   6.702   5.663   2.735 -1.5034 -0.8670 -0.1574
    8MOL   H286 2540   6.753   5.772   2.607 -0.7470  1.2912 -0.3092
    8MOL   H287 2541   6.693   5.703   2.345 -0.0938  0.6298  0.8861
    8MOL   H288 2542   6.531   5.680   2.394 -0.7624 -0.1926 -1.6017
    8MOL   H289 2543   6.618   5.543   2.318  0.3340 -0.1765  0.0508
    8MOL   C290 2544   6.576   5.268   2.596 -0.1867 -0.2811 -0.3246
    8MOL   C291 2545   6.551   5.247   2.747 -0.1710 -0.3163 -0.2243
    8MOL   O292 2546   6.557   5.103   2.774  0.5206 -0.4248  0.2550
    8MOL   C293 2547   6.494   5.060   2.892  0.5608  0.0355  0.4382
    8MOL   C294 2548   6.560   4.941   2.952  0.6062 -0.0722 -0.7822
    8MOL   C295 2549   6.347   5.019   2.867  0.0115 -0.1776  0.5919
    8MOL   H296 2550   6.682   5.255   2.574 -0.0977 -1.9224  0.9715
    8MOL   H297 2551   6.532   5.180   2.547  3.4481 -1.0394 -2.4496
    8MOL   H298 2552   6.447   5.272   2.769  0.0981  2.9668 -2.2423
    8MOL   H299 2553   6.488   5.143   2.963  1.5071 -0.2548  0.8620
    8MOL   H300 2554   6.668   4.958   2.957  0.8675 -1.3948 -1.5401
    8MOL   H301 2555   6.517   4.916   3.049  4.2579  1.2035  1.2497
    8MOL   H302 2556   6.545   4.848   2.896 -2.3958  0.1374 -0.3742
    8MOL   H303 2557   6.294   4.994   2.959  1.1172 -0.9956  1.0171
    8MOL   H304 2558   6.289   5.084   2.802  1.2149  2.6541  2.2395
    8MOL   H305 2559   6.352   4.924   2.813 -1.0864  0.6451 -1.0216
    8MOL   C306 2560   6.647   5.326   2.839  0.0534  0.3588 -0.1546
    8MOL   C307 2561   6.799   5.300   2.825  0.3514  0.9819  0.5997
    8MOL   O308 2562   6.876   5.410   2.869 -0.6012 -0.3117 -0.2840
    8MOL   C309 2563   7.014   5.417   2.840 -0.1304 -0.0003 -0.1794
    8MOL   C310 2564   7.050   5.561   2.878 -0.0182 -0.1897  0.0285
    8MOL   C311 2565   7.080   5.307   2.920 -0.0718 -0.3121  0.3912
    8MOL   H312 2566   6.628   5.311   2.945  0.7095 -0.6809 -0.1815
    8MOL   H313 2567   6.635   5.435   2.832  1.4073  0.6110  1.1418
    8MOL   H314 2568   6.820   5.209   2.881  0.4571  0.6170 -0.0272
    8MOL   H315 2569   7.033   5.406   2.734 -0.3697  1.6120 -0.4076
    8MOL   H316 2570   7.035   5.584   2.984  0.2221 -0.4082  0.1091
    8MOL   H317 2571   6.988   5.628   2.817  1.2990  1.7623  0.7781
    8MOL   H318 2572   7.153   5.591   2.859 -0.2701 -0.5123 -1.9605
    8MOL   H319 2573   7.189   5.313   2.915 -0.0847  1.3235  1.4375
    8MOL   H320 2574   7.045   5.208   2.892  0.6122 -0.7063  0.8961
    8MOL   H321 2575   7.061   5.313   3.027  1.7774 -3.2829  0.9310
    8MOL   H322 2576   6.826   5.265   2.725  0.6715  1.8317  0.3834
    9MOL     C1 2577   5.694   2.080   2.543 -0.0102 -1.1050 -0.5975
    9MOL     C2 2578   5.565   2.028   2.619 -0.0587  0.1930  0.2173
    9MOL     O3 2579   5.529   2.136   2.708 -0.0009 -0.0913 -0.0032
    9MOL     C4 2580   5.616   2.161   2.821 -0.2064 -0.1531  0.1897
    9MOL     C5 2581   5.530   2.140   2.953 -0.1133  0.9684  0.9146
    9MOL     C6 2582   5.639   2.315   2.811 -0.0048 -0.0752  0.9354
    9MOL     H7 2583   5.673   2.169   2.483 -0.3946 -2.2702 -2.2579
    9MOL     H8 2584   5.784   2.097   2.601 -0.3713 -1.1985 -0.0058
    9MOL     H9 2585   5.597   1.945   2.682 -0.6704  0.0543  0.3436
    9MOL    H10 2586   5.711   2.108   2.828  0.8017  1.8777  2.2931
    9MOL    H11 2587   5.426   2.162   2.928  0.1964 -0.0137 -1.3427
    9MOL    H12 2588   5.543   2.041   2.997 -0.0117 -1.5832 -4.5131
    9MOL    H13 2589   5.566   2.210   3.029 -0.0753  1.2861  0.6063
    9MOL    H14 2590   5.673   2.362   2.903  1.7374  1.3452 -0.3758
    9MOL    H15 2591   5.702   2.344   2.726 -0.1679  2.1468  1.5346
    9MOL    H16 2592   5.542   2.361   2.795  0.7274  1.3565  0.5218
    9MOL    H17 2593   5.719   2.008   2.465 -0.1342 -0.8250 -0.8993
    9MOL    C18 2594   5.464   1.994   2.506  0.5836  0.5608 -0.2545
    9MOL    C19 2595   5.412   1.845   2.496 -0.0070 -0.6695  0.2470
    9MOL    O20 2596   5.536   1.774   2.455 -0.3943 -0.4532 -0.4116
    9MOL    C21 2597   5.547   1.642   2.506  0.0995  0.1199  0.5046
    9MOL    C22 2598   5.595   1.626   2.651 -0.3791  0.1615  0.0864
    9MOL    C23 2599   5.656   1.585   2.414  0.0570 -0.3019  0.4194
    9MOL    H24 2600   5.373   2.051   2.525  0.2606  0.7565 -2.2682
    9MOL    H25 2601   5.480   2.036   2.406  0.2259  0.1528 -0.4878
    9MOL    H26 2602   5.381   1.813   2.596  0.5232 -0.3978  0.5036
    9MOL    H27 2603   5.452   1.589   2.502  1.2955 -2.1065  0.8378
    9MOL    H28 2604   5.519   1.642   2.728  0.2970  1.1558  0.5425
    9MOL    H29 2605   5.613   1.523   2.683 -1.9648  0.1790  1.1137
    9MOL    H30 2606   5.683   1.687   2.669  0.6951 -1.0037 -1.0739
    9MOL    H31 2607   5.755   1.624   2.440 -0.4685 -0.5555  2.9574
    9MOL    H32 2608   5.640   1.616   2.311 -1.5886 -0.0146  0.7568
    9MOL    H33 2609   5.674   1.477   2.416  1.9190 -0.0004  0.5942
    9MOL    C34 2610   5.303   1.826   2.391 -0.4577  0.4252  0.6135
    9MOL    C35 2611   5.161   1.836   2.444  0.0981 -0.7778  0.2062
    9MOL    O36 2612   5.070   1.867   2.343  0.2993  0.4244  0.0775
    9MOL    C37 2613   5.032   2.004   2.330  0.2361  0.0164  0.6666
    9MOL    C38 2614   5.143   2.099   2.278  0.2406  0.8981 -0.4851
    9MOL    C39 2615   4.908   2.010   2.237  0.1035 -0.7973  0.1364
    9MOL    H40 2616   5.310   1.728   2.343 -1.7179  1.1833 -1.1541
    9MOL    H41 2617   5.333   1.895   2.312 -0.4882  1.8969  1.8831
    9MOL    H42 2618   5.156   1.915   2.520  0.7789  0.0582 -0.6122
    9MOL    H43 2619   5.008   2.043   2.429 -0.4669 -1.3310  1.0386
    9MOL    H44 2620   5.167   2.062   2.178 -2.6299  2.2192 -1.7183
    9MOL    H45 2621   5.225   2.106   2.348 -1.0773 -1.0767  1.3289
    9MOL    H46 2622   5.106   2.200   2.260 -1.4160  0.4994  0.5058
    9MOL    H47 2623   4.847   1.923   2.262 -1.1081 -0.2929 -1.0209
    9MOL    H48 2624   4.857   2.106   2.238 -0.2507 -0.9917  1.2003
    9MOL    H49 2625   4.946   1.996   2.135 -1.0349  0.2054 -0.4453
    9MOL    C50 2626   5.122   1.704   2.512 -0.0636 -0.2545 -0.2044
    9MOL    C51 2627   5.005   1.729   2.613  0.2244 -0.2182 -0.8994
    9MOL    O52 2628   5.075   1.793   2.725  0.2197  0.3683  0.2634
    9MOL    C53 2629   5.007   1.900   2.781  0.4207 -0.7012 -0.2530
    9MOL    C54 2630   5.109   1.979   2.853  0.0566  0.7342  0.6853
    9MOL    C55 2631   4.883   1.862   2.865 -0.3389  0.5014 -0.6529
    9MOL    H56 2632   5.073   1.637   2.442 -1.2421 -0.4616  0.7971
    9MOL    H57 2633   5.206   1.650   2.555  0.8478  0.4624 -1.0777
    9MOL    H58 2634   4.930   1.795   2.569  1.2103  3.1839  2.2583
    9MOL    H59 2635   4.964   1.957   2.698 -1.2379 -3.0562 -1.0749
    9MOL    H60 2636   5.064   2.060   2.911  0.9975 -0.2658  2.8450
    9MOL    H61 2637   5.197   2.007   2.795 -0.2619 -0.6165 -0.5024
    9MOL    H62 2638   5.155   1.930   2.938 -1.4528 -0.7010  0.7081
    9MOL    H63 2639   4.915   1.788   2.938 -0.5782 -0.2327 -1.2811
    9MOL    H64 2640   4.811   1.820   2.794 -1.2308  3.1903 -1.4142
    9MOL    H65 2641   4.828   1.942   2.916 -2.4902 -0.4304 -1.4617
    9MOL    C66 2642   4.957   1.594   2.674  0.4068 -0.3701  0.1779
    9MOL    C67 2643   4.855   1.530   2.581  1.0770  0.1722 -0.5687
    9MOL    O68 2644   4.737   1.619   2.581  0.2196  0.0698 -0.0523
    9MOL    C69 2645   4.642   1.615   2.472  0.4612 -0.0926 -0.1592
    9MOL    C70 2646   4.515   1.669   2.528 -0.4024  0.0255  0.4127
    9MOL    C71 2647   4.694   1.698   2.350  0.2293  0.3074 -0.3034
    9MOL    H72 2648   5.041   1.525   2.668  1.2977  0.6562  0.7224
    9MOL    H73 2649   4.920   1.607   2.776  0.4255  2.0842 -0.1050
    9MOL    H74 2650   4.900   1.518   2.482  0.9537 -1.3283 -0.4510
    9MOL    H75 2651   4.621   1.513   2.440  0.7878  0.6347 -2.7786
    9MOL    H76 2652   4.454   1.717   2.452  1.0496  0.8414 -0.2556
    9MOL    H77 2653   4.456   1.601   2.590 -0.6083 -0.8547 -0.7445
    9MOL    H78 2654   4.541   1.755   2.590 -2.5392  1.4457 -0.5891
    9MOL    H79 2655   4.718   1.801   2.378 -0.0448  0.7051 -1.5158
    9MOL    H80 2656   4.616   1.711   2.275 -0.2977 -3.3016 -0.4508
    9MOL    H81 2657   4.783   1.660   2.301 -0.0249 -2.0351  1.0180
    9MOL    C82 2658   4.811   1.396   2.634 -0.0932 -0.1547  0.7185
    9MOL    C83 2659   4.916   1.282   2.647 -0.0287 -0.5482  0.1736
    9MOL    O84 2660   4.848   1.163   2.673  0.3166 -0.0450  0.0752
    9MOL    C85 2661   4.828   1.134   2.813  0.6221 -0.0020 -0.2021
    9MOL    C86 2662   4.966   1.094   2.877  0.4558  0.3529 -0.3089
    9MOL    C87 2663   4.711   1.026   2.831 -0.6551 -0.2761  0.3813
    9MOL    H88 2664   4.767   1.420   2.731 -0.0129  0.5290  0.5824
    9MOL    H89 2665   4.729   1.353   2.577  0.8357  0.8558 -1.4280
    9MOL    H90 2666   5.008   1.306   2.700 -0.3715  0.6676  0.2449
    9MOL    H91 2667   4.789   1.227   2.856 -0.4242 -0.1397 -0.8212
    9MOL    H92 2668   4.951   1.057   2.978 -1.8580  4.8878  1.1513
    9MOL    H93 2669   5.013   1.014   2.819 -2.0296  0.8016 -3.0638
    9MOL    H94 2670   5.033   1.180   2.885 -1.7748  2.1654 -0.4703
    9MOL    H95 2671   4.685   1.002   2.934  0.7259 -1.3845  0.4779
    9MOL    H96 2672   4.623   1.077   2.790  0.0354 -1.0496 -2.1276
    9MOL    H97 2673   4.730   0.937   2.771 -0.7176  1.5797 -2.5157
    9MOL    C98 2674   4.977   1.252   2.510  0.5864 -0.2022 -0.4644
    9MOL    C99 2675   5.098   1.155   2.524 -0.0988 -0.0806 -0.2771
    9MOL   O100 2676   5.209   1.238   2.506 -0.1404  0.1873  0.0189
    9MOL   C101 2677   5.332   1.191   2.560  0.2613  0.2059  0.4582
    9MOL   C102 2678   5.338   1.265   2.697  0.1078 -0.1336  0.9263
    9MOL   C103 2679   5.437   1.222   2.458 -0.6976  0.5019 -0.0759
    9MOL   H104 2680   4.897   1.211   2.448 -0.0686 -0.1626  0.3464
    9MOL   H105 2681   5.017   1.342   2.462  0.9459 -1.0185 -1.7164
    9MOL   H106 2682   5.103   1.104   2.620 -0.3253 -1.6784 -1.1059
    9MOL   H107 2683   5.331   1.082   2.571  0.7145  0.0105 -1.4066
    9MOL   H108 2684   5.248   1.246   2.755 -0.8727  0.3712 -0.4004
    9MOL   H109 2685   5.346   1.371   2.672 -0.8576  0.6230  3.5640
    9MOL   H110 2686   5.429   1.250   2.755 -0.4273  0.4670  1.9419
    9MOL   H111 2687   5.443   1.329   2.440  0.0841  0.6456  0.9844
    9MOL   H112 2688   5.419   1.163   2.369  1.2035  0.4240 -0.4350
    9MOL   H113 2689   5.532   1.189   2.501 -1.1872 -0.6371  0.1489
    9MOL   C114 2690   5.098   1.064   2.405  0.0250 -0.1272 -0.1476
    9MOL   C115 2691   4.991   0.948   2.400  0.2619 -0.3540  0.3771
    9MOL   O116 2692   5.006   0.879   2.280 -0.2017  0.3148 -0.0899
    9MOL   C117 2693   4.937   0.916   2.163 -0.5586  0.6189 -0.1767
    9MOL   C118 2694   4.788   0.868   2.165 -0.3433  0.4204 -0.7258
    9MOL   C119 2695   5.028   0.882   2.047 -1.2110 -0.1291  0.4392
    9MOL   H120 2696   5.198   1.025   2.387  0.4857  1.5673 -1.4147
    9MOL   H121 2697   5.075   1.123   2.316  0.2447  2.3006  1.3797
    9MOL   H122 2698   4.891   0.994   2.398  0.2419 -0.4799 -1.5505
    9MOL   H123 2699   4.935   1.025   2.175  1.7602  0.7121 -0.3859
    9MOL   H124 2700   4.747   0.920   2.078  0.4974  0.9419 -0.8140
    9MOL   H125 2701   4.739   0.910   2.252 -0.6236 -1.0249 -0.1617
    9MOL   H126 2702   4.767   0.761   2.171  0.1589  0.3090 -0.9578
    9MOL   H127 2703   5.036   0.774   2.047  1.8861  0.0373 -1.6312
    9MOL   H128 2704   5.125   0.926   2.066 -1.7521  1.4873 -0.4193
    9MOL   H129 2705   4.994   0.917   1.949  1.0521 -2.4981 -1.2400
    9MOL   C130 2706   4.999   0.840   2.508  0.4634  0.3944 -0.4431
    9MOL   C131 2707   4.882   0.739   2.526  0.9950 -0.4802 -0.1214
    9MOL   O132 2708   4.756   0.811   2.527  0.0551  0.1108  0.6826
    9MOL   C133 2709   4.640   0.735   2.527  0.6955 -0.2256 -0.0914
    9MOL   C134 2710   4.520   0.842   2.540 -0.4633  0.7139 -0.7692
    9MOL   C135 2711   4.615   0.647   2.402  0.5436 -0.0040 -0.1341
    9MOL   H136 2712   5.014   0.895   2.601 -0.7809  0.9190 -0.5453
    9MOL   H137 2713   5.095   0.787   2.504 -0.3802 -1.1599 -0.4484
    9MOL   H138 2714   4.881   0.671   2.441 -0.5990  0.7925 -1.1418
    9MOL   H139 2715   4.643   0.658   2.605  0.6918 -0.4987 -0.3595
    9MOL   H140 2716   4.538   0.880   2.640  1.2048 -2.2980  0.1440
    9MOL   H141 2717   4.420   0.802   2.521 -0.9304  1.0572  0.9294
    9MOL   H142 2718   4.539   0.926   2.473 -1.1946  0.3601 -1.4374
    9MOL   H143 2719   4.686   0.570   2.372  1.1414  1.2250 -1.9729
    9MOL   H144 2720   4.522   0.590   2.410  0.5889  0.1905  2.0298
    9MOL   H145 2721   4.599   0.701   2.309 -1.7430 -0.9499 -0.3180
    9MOL   C146 2722   4.891   0.641   2.655 -0.5317 -0.4725 -0.3797
    9MOL   C147 2723   5.032   0.590   2.683  0.3506  0.0129 -0.0425
    9MOL   O148 2724   5.101   0.696   2.761 -0.7409  0.1415 -0.1735
    9MOL   C149 2725   5.246   0.678   2.768  0.0608  0.6969  0.0958
    9MOL   C150 2726   5.294   0.785   2.869 -0.3407  0.6260 -0.6235
    9MOL   C151 2727   5.318   0.691   2.638 -0.1836  0.9628 -0.3501
    9MOL   H152 2728   4.820   0.560   2.639 -0.9566 -0.1886  0.0153
    9MOL   H153 2729   4.859   0.693   2.745 -3.0438  0.4240 -1.7256
    9MOL   H154 2730   5.081   0.570   2.588 -0.3684 -0.3687 -0.3360
    9MOL   H155 2731   5.264   0.578   2.808 -0.1446  0.5253 -0.2374
    9MOL   H156 2732   5.225   0.777   2.953 -0.2725  1.9187 -0.4429
    9MOL   H157 2733   5.283   0.886   2.830 -0.8555  0.7280 -0.2291
    9MOL   H158 2734   5.397   0.769   2.903 -1.0550 -1.0220  0.8798
    9MOL   H159 2735   5.305   0.792   2.597 -1.2062  0.9364 -0.1164
    9MOL   H160 2736   5.290   0.615   2.565 -0.2936  1.9103 -1.3126
    9MOL   H161 2737   5.425   0.673   2.643 -0.5741 -1.6752 -1.0798
    9MOL   C162 2738   5.021   0.456   2.762 -1.1812  0.1730 -0.0326
    9MOL   C163 2739   4.939   0.463   2.902 -0.8923 -0.4274 -0.7692
    9MOL   O164 2740   4.803   0.491   2.878  0.1497  0.3093  0.2542
    9MOL   C165 2741   4.734   0.545   2.987 -0.3577  0.1614 -0.2403
    9MOL   C166 2742   4.584   0.546   2.930 -0.5602 -0.1803 -0.0231
    9MOL   C167 2743   4.787   0.691   3.021  0.5081 -0.7982 -0.0751
    9MOL   H168 2744   4.963   0.386   2.701 -0.6471 -1.0292  0.8027
    9MOL   H169 2745   5.119   0.410   2.777 -0.7175  1.8591  2.5174
    9MOL   H170 2746   4.987   0.541   2.960 -0.2556 -2.1435  1.0532
    9MOL   H171 2747   4.739   0.479   3.073 -0.3152  1.8418  1.0523
    9MOL   H172 2748   4.583   0.631   2.862  2.3935 -1.3617 -1.5983
    9MOL   H173 2749   4.517   0.578   3.010 -0.8111  0.9150 -0.6559
    9MOL   H174 2750   4.553   0.445   2.904 -1.4546 -0.5288  2.2641
    9MOL   H175 2751   4.713   0.725   3.093  1.7186 -0.3389  0.9649
    9MOL   H176 2752   4.762   0.759   2.939  0.7867 -0.6734 -0.0565
    9MOL   H177 2753   4.887   0.716   3.056  0.0130  1.9117 -0.4518
    9MOL   C178 2754   4.952   0.332   2.975 -0.1447  0.3225 -0.3875
    9MOL   C179 2755   5.088   0.280   3.016 -0.0390 -0.0034 -0.4860
    9MOL   O180 2756   5.134   0.371   3.116  0.3699  0.1511 -0.0090
    9MOL   C181 2757   5.248   0.454   3.093 -0.4172  0.0723  0.6659
    9MOL   C182 2758   5.367   0.368   3.138 -0.6773 -0.6752 -0.4704
    9MOL   C183 2759   5.228   0.582   3.176 -0.3992  0.0328 -0.6778
    9MOL   H184 2760   4.888   0.258   2.927  0.2766 -0.1866 -0.1577
    9MOL   H185 2761   4.902   0.358   3.069  0.6496 -0.9538  0.4023
    9MOL   H186 2762   5.157   0.277   2.931  0.9910  0.8158  0.3107
    9MOL   H187 2763   5.256   0.461   2.984 -0.6161  1.4971  0.7442
    9MOL   H188 2764   5.455   0.421   3.101 -1.0332  0.9297  0.9147
    9MOL   H189 2765   5.384   0.274   3.085  1.5747 -0.3873 -0.3303
    9MOL   H190 2766   5.368   0.348   3.245 -0.8634  1.1326 -0.1128
    9MOL   H191 2767   5.245   0.565   3.282  2.5692 -0.3537 -1.1912
    9MOL   H192 2768   5.127   0.623   3.170 -0.3706  0.1077 -0.6443
    9MOL   H193 2769   5.292   0.666   3.153 -1.0396  1.2978  1.9758
    9MOL   C194 2770   5.082   0.142   3.090  0.5625  1.0272  0.0558
    9MOL   C195 2771   5.110   0.032   2.984 -0.2019  0.0008 -0.2792
    9MOL   O196 2772   5.085   7.722   3.048  0.7286 -0.2349 -0.3845
    9MOL   C197 2773   4.948   7.696   3.076 -0.6204  0.0572  0.1196
    9MOL   C198 2774   4.929   7.555   3.023 -0.2099 -0.3304  0.1148
    9MOL   C199 2775   4.931   7.692   3.229 -0.0952  0.2646 -1.4017
    9MOL   H200 2776   5.156   0.145   3.170 -0.0208 -0.8024  0.6930
    9MOL   H201 2777   4.982   0.125   3.131  0.7424 -0.1559  0.0265
    9MOL   H202 2778   5.042   0.043   2.899  0.2622  0.3781 -0.6047
    9MOL   H203 2779   4.875   7.761   3.027 -1.3176 -1.7216 -1.2542
    9MOL   H204 2780   4.996   7.483   3.071  1.0041 -0.4422 -1.7175
    9MOL   H205 2781   4.831   7.521   3.057 -0.4677 -1.4278 -1.6420
    9MOL   H206 2782   4.944   7.551   2.915  0.0019  2.4283  0.0192
    9MOL   H207 2783   4.941   7.796   3.261  3.1378 -0.3894 -0.0500
    9MOL   H208 2784   4.840   7.651   3.273 -0.5903  2.4808 -0.3334
    9MOL   H209 2785   5.007   7.626   3.272 -1.6791 -0.0440  0.9834
    9MOL   C210 2786   5.260   0.026   2.945 -0.6596 -0.7093  0.1657
    9MOL   C211 2787   5.294   7.785   2.809  0.3843  0.1424 -0.0930
    9MOL   O212 2788   5.259   0.042   2.694  0.4096  0.0736  0.3719
    9MOL   C213 2789   5.155   7.819   2.613  0.3286 -0.5140 -0.2948
    9MOL   C214 2790   5.123   0.121   2.534  0.3293 -0.0116  0.1719
    9MOL   C215 2791   5.186   7.702   2.518 -0.0583 -0.8008  0.4181
    9MOL   H216 2792   5.319   7.803   3.026  0.3190  1.5253  0.7015
    9MOL   H217 2793   5.307   0.124   2.936 -0.0648 -1.0093 -0.0903
    9MOL   H218 2794   5.241   7.690   2.813  0.7400 -0.0363  0.4954
    9MOL   H219 2795   5.070   7.803   2.679 -0.1871  1.1521 -0.5167
    9MOL   H220 2796   5.029   0.116   2.478 -0.6724  1.5223  1.6786
    9MOL   H221 2797   5.204   0.148   2.467 -0.8942 -0.9643 -1.7598
    9MOL   H222 2798   5.118   0.194   2.614  0.7939 -0.5585  0.6996
    9MOL   H223 2799   5.266   7.714   2.446  1.0368 -1.2116  1.5536
    9MOL   H224 2800   5.094   7.682   2.463 -0.6852  1.6115  0.5220
    9MOL   H225 2801   5.213   7.620   2.584  0.4264  0.0919  1.3489
    9MOL   C226 2802   5.446   7.766   2.785  0.1495  1.3502 -0.1680
    9MOL   C227 2803   5.517   7.669   2.873 -0.4699  0.5108 -0.7420
    9MOL   O228 2804   5.658   7.687   2.864 -0.0853  0.2727  0.1131
    9MOL   C229 2805   5.711   7.795   2.936 -0.2348 -0.2922  0.5353
    9MOL   C230 2806   5.815   0.031   2.845 -0.0841  0.1046 -0.4993
    9MOL   C231 2807   5.777   7.760   3.064 -0.5340 -0.0245  0.0081
    9MOL   H232 2808   5.507   0.037   2.782 -0.6526  1.9008  0.2625
    9MOL   H233 2809   5.447   7.732   2.681  0.0174 -0.2593  0.3474
    9MOL   H234 2810   5.486   7.687   2.976 -0.2831  0.3551 -0.6574
    9MOL   H235 2811   5.642   0.057   2.955  1.8257  1.0347  2.4873
    9MOL   H236 2812   5.762   0.078   2.762 -2.6147 -0.2390  0.8954
    9MOL   H237 2813   5.854   0.122   2.890 -0.6062 -0.2529  0.7101
    9MOL   H238 2814   5.884   7.778   2.802  1.4372 -0.4216  2.6678
    9MOL   H239 2815   5.827   0.027   3.104  1.4441 -1.8158  1.6267
    9MOL   H240 2816   5.855   7.684   3.056 -1.4178 -0.8356 -1.0185
    9MOL   H241 2817   5.712   7.719   3.141  1.5668 -0.7541  1.4426
    9MOL   C242 2818   5.499   7.519   2.840 -0.5674  0.4507 -0.2847
    9MOL   C243 2819   5.568   7.422   2.938  0.1779 -0.0355 -0.2915
    9MOL   O244 2820   5.531   7.291   2.883 -0.1747 -0.0724  0.1246
    9MOL   C245 2821   5.640   7.199   2.867 -0.7406  0.5012 -0.8558
    9MOL   C246 2822   5.606   7.054   2.846 -0.0115 -0.3120  0.6027
    9MOL   C247 2823   5.723   7.240   2.746  0.5621  0.5279 -0.7876
    9MOL   H248 2824   5.395   7.487   2.842 -0.4457  0.0873  0.1964
    9MOL   H249 2825   5.541   7.497   2.742  2.8641  4.8654  0.0352
    9MOL   H250 2826   5.676   7.432   2.949 -0.0765 -0.9247  3.9045
    9MOL   H251 2827   5.696   7.205   2.960 -0.9672 -1.3145 -0.5814
    9MOL   H252 2828   5.693   6.994   2.818 -0.5204 -0.2136 -1.3145
    9MOL   H253 2829   5.561   7.012   2.936 -0.8031 -0.5318  0.1108
    9MOL   H254 2830   5.547   7.033   2.756  0.3407  0.1470  0.2612
    9MOL   H255 2831   5.660   7.237   2.657 -0.5791  0.1221  0.0228
    9MOL   H256 2832   5.765   7.340   2.758 -0.7402  0.8417  1.4979
    9MOL   H257 2833   5.803   7.167   2.732  0.8517  1.1902 -2.7093
    9MOL   C258 2834   5.510   7.428   3.082 -0.5622 -0.5119 -0.3748
    9MOL   C259 2835   5.568   7.323   3.181  0.8192 -0.7000  1.1965
    9MOL   O260 2836   5.489   7.335   3.294 -0.0066 -0.4882 -0.1429
    9MOL   C261 2837   5.429   7.214   3.337  0.8630 -0.4711 -0.6165
    9MOL   C262 2838   5.377   7.240   3.479  0.4541 -0.6062  0.5124
    9MOL   C263 2839   5.307   7.168   3.247  0.7653 -0.1222  0.0899
    9MOL   H264 2840   5.517   7.527   3.126 -0.4753 -0.1608 -1.1855
    9MOL   H265 2841   5.403   7.407   3.079 -0.7113 -0.1079  1.4766
    9MOL   H266 2842   5.564   7.227   3.129  0.5270 -0.3761  0.6084
    9MOL   H267 2843   5.500   7.131   3.344  0.6080 -0.4161  3.3842
    9MOL   H268 2844   5.300   7.317   3.475  1.7997  0.8185  1.4176
    9MOL   H269 2845   5.463   7.286   3.527  0.4015 -0.8398  0.8342
    9MOL   H270 2846   5.351   7.145   3.527  2.3470 -1.7314 -0.6436
    9MOL   H271 2847   5.310   7.183   3.139  0.2969 -2.8021 -0.3209
    9MOL   H272 2848   5.301   7.060   3.260  0.7686  0.0592  1.6920
    9MOL   H273 2849   5.215   7.209   3.290  0.0314 -1.6341  0.0096
    9MOL   C274 2850   5.708   7.350   3.229 -0.7536  0.2208 -0.2582
    9MOL   C275 2851   5.782   7.236   3.307  0.3102  0.1031  0.6006
    9MOL   O276 2852   5.887   7.187   3.224 -0.6085 -0.0745  0.2328
    9MOL   C277 2853   5.863   7.069   3.144  0.3571 -0.0087 -0.5689
    9MOL   C278 2854   5.916   6.952   3.222  0.5161 -0.2334 -0.3344
    9MOL   C279 2855   5.951   7.085   3.019  0.0885 -0.1489  0.2231
    9MOL   H280 2856   5.764   7.387   3.144 -0.8016 -1.9750 -1.2971
    9MOL   H281 2857   5.703   7.444   3.285 -1.1353  0.1256 -0.1286
    9MOL   H282 2858   5.713   7.155   3.331  1.3766 -0.7823  0.6948
    9MOL   H283 2859   5.763   7.058   3.103  0.6917 -0.4465 -1.2676
    9MOL   H284 2860   5.928   6.866   3.156  1.1655 -0.6079  0.2707
    9MOL   H285 2861   6.013   6.976   3.264 -0.1403  0.3190  0.8972
    9MOL   H286 2862   5.847   6.925   3.302  0.6850 -1.1310 -0.4860
    9MOL   H287 2863   6.057   7.073   3.038  0.1201 -2.3829 -1.1814
    9MOL   H288 2864   5.926   7.184   2.982 -0.0884 -0.9357 -1.8576
    9MOL   H289 2865   5.920   7.014   2.941 -2.6647  0.7362  0.4504
    9MOL   C290 2866   5.849   7.291   3.431 -0.4466 -0.7372 -0.4229
    9MOL   C291 2867   5.920   7.189   3.513 -0.2007  0.3247 -0.3709
    9MOL   O292 2868   5.982   7.255   3.622  0.4153 -0.8511 -0.1561
    9MOL   C293 2869   6.119   7.301   3.595  1.0168  0.2938 -0.3634
    9MOL   C294 2870   6.229   7.214   3.649 -0.6224 -0.2478  0.5295
    9MOL   C295 2871   6.123   7.438   3.645 -0.3804 -0.6896 -0.3056
    9MOL   H296 2872   5.767   7.348   3.475  0.1927 -0.5981  0.6198
    9MOL   H297 2873   5.921   7.368   3.404 -1.0539 -0.1287 -0.3017
    9MOL   H298 2874   5.994   7.136   3.453  0.5910 -0.5883  1.3833
    9MOL   H299 2875   6.139   7.302   3.487 -0.0665  2.3639 -0.5697
    9MOL   H300 2876   6.230   7.110   3.618 -1.7697  0.0739 -0.6204
    9MOL   H301 2877   6.320   7.255   3.605 -1.0753 -1.0077 -1.1610
    9MOL   H302 2878   6.226   7.218   3.758 -1.6787  1.2587  0.4679
    9MOL   H303 2879   6.213   7.489   3.611 -0.0017 -0.8879  0.3901
    9MOL   H304 2880   6.040   7.491   3.599  0.0411 -0.9278 -1.3474
    9MOL   H305 2881   6.107   7.461   3.751  2.3514  4.3771 -0.8160
    9MOL   C306 2882   5.831   7.088   3.578  0.6072  0.0323 -0.2942
    9MOL   C307 2883   5.904   6.974   3.649  0.4691  0.3490 -0.2675
    9MOL   O308 2884   5.820   6.871   3.703  0.2659 -0.6158 -0.1320
    9MOL   C309 2885   5.890   6.756   3.760  0.2639  0.1843  0.7329
    9MOL   C310 2886   5.789   6.648   3.797  0.4109 -0.3526 -0.7619
    9MOL   C311 2887   6.004   6.701   3.679 -0.2776 -0.2815 -0.6403
    9MOL   H312 2888   5.762   7.047   3.504  0.8640 -0.7087 -0.1185
    9MOL   H313 2889   5.770   7.145   3.648  1.8289  0.7240  0.2256
    9MOL   H314 2890   5.984   6.938   3.584 -0.9211 -2.5046 -0.4860
    9MOL   H315 2891   5.943   6.785   3.851  0.4935  1.2286  0.2748
    9MOL   H316 2892   5.731   6.679   3.885  0.2490  1.0075 -1.3273
    9MOL   H317 2893   5.834   6.550   3.812  0.7188 -0.4920 -2.5235
    9MOL   H318 2894   5.725   6.635   3.709  1.3211  0.2921 -1.5243
    9MOL   H319 2895   5.967   6.679   3.578  2.0441 -1.7518 -1.2006
    9MOL   H320 2896   6.043   6.612   3.728 -1.4289 -1.0463 -1.0777
    9MOL   H321 2897   6.093   6.762   3.668  0.2736 -0.9909 -0.1727
    9MOL   H322 2898   5.970   7.009   3.728  1.4200 -1.5769 -0.1676
   10MOL     C1 2899   4.614   6.400   3.710 -0.5047  0.2513 -0.4370
   10MOL     C2 2900   4.669   6.442   3.846 -0.9585 -0.4908  0.8300
   10MOL     O3 2901   4.745   6.561   3.834 -0.0229  0.1898  0.8580
   10MOL     C4 2902   4.834   6.594   3.944 -0.1603  0.7451 -0.6562
   10MOL     C5 2903   4.871   6.730   3.922 -0.0214  0.2113 -0.7301
   10MOL     C6 2904   4.962   6.513   3.964 -0.1266  0.0931 -0.2241
   10MOL     H7 2905   4.697   6.396   3.640  0.4355  1.5808  0.6023
   10MOL     H8 2906   4.563   6.304   3.702 -1.6529  0.6989  1.2426
   10MOL     H9 2907   4.736   6.363   3.880 -1.8257 -1.2223  0.8762
   10MOL    H10 2908   4.777   6.603   4.036 -1.6766 -1.0498 -1.3920
   10MOL    H11 2909   4.907   6.740   3.820 -1.5979  1.7259 -1.1687
   10MOL    H12 2910   4.787   6.799   3.929 -1.4726 -1.2361 -3.0996
   10MOL    H13 2911   4.947   6.763   3.993 -0.1637 -0.7995 -0.1014
   10MOL    H14 2912   4.936   6.421   4.018  0.4119 -0.2693 -0.5766
   10MOL    H15 2913   5.007   6.488   3.868 -0.3903 -2.1111  0.1863
   10MOL    H16 2914   5.039   6.558   4.027 -0.9285 -0.1840  0.9893
   10MOL    H17 2915   4.546   6.475   3.669 -0.2369  0.9762  0.4458
   10MOL    C18 2916   4.571   6.442   3.973  0.6312 -0.2017 -0.0849
   10MOL    C19 2917   4.494   6.577   4.002  0.0821  0.2663 -0.5704
   10MOL    O20 2918   4.440   6.592   4.134  0.7541 -0.2634  0.1997
   10MOL    C21 2919   4.532   6.615   4.239  0.4242  0.8116  0.2993
   10MOL    C22 2920   4.508   6.496   4.332  0.2647  0.0994  0.1995
   10MOL    C23 2921   4.493   6.744   4.299 -0.1486 -0.0484 -0.2736
   10MOL    H24 2922   4.501   6.359   3.964 -0.7207  0.9962 -0.8999
   10MOL    H25 2923   4.631   6.424   4.062 -0.0018 -1.3482  0.1167
   10MOL    H26 2924   4.562   6.662   3.996  0.2493  0.1389 -0.4664
   10MOL    H27 2925   4.638   6.622   4.218  0.5566  2.3964  1.3615
   10MOL    H28 2926   4.506   6.400   4.280 -0.5674  0.0823  0.2448
   10MOL    H29 2927   4.591   6.488   4.401 -0.3966 -2.0455  0.7972
   10MOL    H30 2928   4.419   6.505   4.395  0.5534  0.3601  0.5681
   10MOL    H31 2929   4.389   6.728   4.327  0.5349 -1.3261  1.6298
   10MOL    H32 2930   4.501   6.829   4.232  2.4008  1.1613  1.5009
   10MOL    H33 2931   4.552   6.752   4.390  0.2671  0.2176 -0.5672
   10MOL    C34 2932   4.377   6.601   3.906  0.9981  0.2384  0.2269
   10MOL    C35 2933   4.318   6.744   3.922  0.4888  0.3014  0.0728
   10MOL    O36 2934   4.399   6.825   3.833  0.7277 -0.0860  0.4310
   10MOL    C37 2935   4.425   6.955   3.864  0.1544 -0.4552  0.0357
   10MOL    C38 2936   4.552   6.959   3.940 -0.6393  0.1694  0.8932
   10MOL    C39 2937   4.417   7.033   3.731  0.2747 -0.3403  0.9506
   10MOL    H40 2938   4.301   6.532   3.941  0.9642  0.7624  1.1958
   10MOL    H41 2939   4.400   6.561   3.807  0.2158 -1.6258  0.7801
   10MOL    H42 2940   4.330   6.774   4.026  0.5176  0.9062 -0.1021
   10MOL    H43 2941   4.340   6.991   3.924 -0.3328  2.3235 -2.2019
   10MOL    H44 2942   4.571   7.052   3.993 -1.9873  0.6544  0.5533
   10MOL    H45 2943   4.640   6.932   3.882  0.3447  3.9204  0.5320
   10MOL    H46 2944   4.549   6.882   4.017 -1.1572  2.0896  2.8143
   10MOL    H47 2945   4.480   6.990   3.653  1.6801  0.4362  1.6462
   10MOL    H48 2946   4.317   7.037   3.688  0.3516 -1.3660  0.6724
   10MOL    H49 2947   4.441   7.138   3.750 -0.0806 -0.2533  0.9262
   10MOL    C50 2948   4.170   6.755   3.880  0.2191 -0.2014 -0.1941
   10MOL    C51 2949   4.075   6.723   3.996  0.7825  0.2962  0.4501
   10MOL    O52 2950   3.948   6.728   3.931  0.8653 -0.0600  0.2698
   10MOL    C53 2951   3.888   6.597   3.896 -0.3557  0.4117 -0.0320
   10MOL    C54 2952   3.806   6.626   3.770 -0.5892  0.2215 -0.0118
   10MOL    C55 2953   3.807   6.534   4.006 -0.3286  0.7480 -0.2352
   10MOL    H56 2954   4.150   6.857   3.847  1.5608 -0.2300 -1.1443
   10MOL    H57 2955   4.146   6.685   3.799  0.4446  0.3849 -0.7720
   10MOL    H58 2956   4.089   6.621   4.030 -2.7646 -0.2322  0.5346
   10MOL    H59 2957   3.961   6.518   3.874 -0.0096  1.3082 -2.2722
   10MOL    H60 2958   3.755   6.538   3.732  0.5347 -0.3161 -0.3110
   10MOL    H61 2959   3.876   6.666   3.697 -0.0673  0.5070  0.6358
   10MOL    H62 2960   3.733   6.706   3.777  1.0536  1.7934 -0.3993
   10MOL    H63 2961   3.726   6.585   4.057  0.2953  0.5077  1.0154
   10MOL    H64 2962   3.870   6.500   4.088 -0.0220  0.0265 -0.7585
   10MOL    H65 2963   3.763   6.441   3.969 -1.1546  0.7085  0.8274
   10MOL    C66 2964   4.078   6.834   4.105  1.0021 -0.0961  0.1520
   10MOL    C67 2965   3.964   6.825   4.209  0.0724  0.1543  0.8334
   10MOL    O68 2966   3.974   6.947   4.285 -0.1411 -1.1649  0.1035
   10MOL    C69 2967   3.903   7.057   4.237  0.3679 -0.0230  0.3359
   10MOL    C70 2968   3.763   7.050   4.297 -0.3612  0.7255  0.3883
   10MOL    C71 2969   3.990   7.177   4.280 -1.3965  0.2934 -0.0048
   10MOL    H72 2970   4.175   6.835   4.154  0.6641  2.0675  0.8100
   10MOL    H73 2971   4.064   6.930   4.057 -0.0097  0.7412  2.0674
   10MOL    H74 2972   3.868   6.823   4.158 -0.3816  0.3459  1.6647
   10MOL    H75 2973   3.897   7.072   4.129 -1.3262  1.5578  0.6107
   10MOL    H76 2974   3.761   7.072   4.404 -0.1212 -0.9001  0.7460
   10MOL    H77 2975   3.698   7.120   4.245  1.7732  0.5049 -2.7052
   10MOL    H78 2976   3.702   6.960   4.286  1.0890 -0.3271  0.8324
   10MOL    H79 2977   4.047   7.220   4.198  0.5048 -0.4899  0.8680
   10MOL    H80 2978   4.058   7.151   4.361 -1.2513  2.7750  0.7063
   10MOL    H81 2979   3.925   7.260   4.308  2.6396  3.0029  1.9438
   10MOL    C82 2980   3.990   6.715   4.315  0.1552 -0.1733 -0.1950
   10MOL    C83 2981   3.876   6.668   4.414 -0.1931  0.3180 -0.0934
   10MOL    O84 2982   3.931   6.571   4.500  0.2750  0.2285 -0.3219
   10MOL    C85 2983   3.938   6.435   4.455  0.4532 -0.5512  0.3917
   10MOL    C86 2984   3.809   6.362   4.483 -0.2109 -0.0346  0.3191
   10MOL    C87 2985   4.045   6.364   4.530  0.3929 -0.2422 -0.0624
   10MOL    H88 2986   4.018   6.630   4.252  1.3227  1.1906 -1.5522
   10MOL    H89 2987   4.078   6.749   4.368  0.0335  0.3551 -0.3269
   10MOL    H90 2988   3.791   6.624   4.362  0.2194 -0.7939  0.1660
   10MOL    H91 2989   3.981   6.444   4.355  1.2769  0.8156  0.8369
   10MOL    H92 2990   3.808   6.253   4.485  0.6121 -0.0925 -1.3429
   10MOL    H93 2991   3.782   6.400   4.581 -1.2259 -0.9653  0.4016
   10MOL    H94 2992   3.729   6.386   4.413  2.2288 -0.2300 -2.6759
   10MOL    H95 2993   4.130   6.430   4.548  0.2524 -0.3135  0.8774
   10MOL    H96 2994   4.005   6.343   4.629  1.3307 -0.7170  0.2277
   10MOL    H97 2995   4.075   6.271   4.481  0.5046  0.2244 -0.9076
   10MOL    C98 2996   3.820   6.771   4.512  0.0746 -0.1719  0.0199
   10MOL    C99 2997   3.701   6.742   4.605  0.4903  0.5247  0.1134
   10MOL   O100 2998   3.587   6.749   4.520  0.6751 -0.3592  0.2659
   10MOL   C101 2999   3.472   6.675   4.562  0.0861  0.6946  0.3026
   10MOL   C102 3000   3.463   6.548   4.485 -0.2811  0.0184 -0.5168
   10MOL   C103 3001   3.346   6.757   4.544  0.2148 -0.1814  0.4609
   10MOL   H104 3002   3.904   6.813   4.566  0.0461  0.4121 -0.3840
   10MOL   H105 3003   3.794   6.860   4.455 -0.0343 -1.2778 -1.7059
   10MOL   H106 3004   3.707   6.642   4.647  0.1263  0.8156  0.8710
   10MOL   H107 3005   3.494   6.644   4.664 -1.2413 -1.8485 -0.1346
   10MOL   H108 3006   3.455   6.565   4.377  0.0530 -0.1754 -0.5753
   10MOL   H109 3007   3.368   6.496   4.493  0.5886 -1.5938 -0.3672
   10MOL   H110 3008   3.543   6.478   4.508 -0.2923  0.3672  0.6075
   10MOL   H111 3009   3.326   6.770   4.437 -0.4390  1.6810  0.7872
   10MOL   H112 3010   3.363   6.850   4.598  0.3044  0.1465 -0.1187
   10MOL   H113 3011   3.258   6.711   4.588  0.2224  0.1381  0.8189
   10MOL   C114 3012   3.684   6.841   4.720 -0.3889 -0.3078 -0.2659
   10MOL   C115 3013   3.800   6.847   4.828  0.4410  0.3133 -0.1778
   10MOL   O116 3014   3.762   6.934   4.936 -0.2770 -0.0262  0.8912
   10MOL   C117 3015   3.866   7.019   4.970  0.6285 -0.9810 -1.0147
   10MOL   C118 3016   3.857   7.043   5.122 -0.4255 -0.4941  0.2856
   10MOL   C119 3017   3.841   7.153   4.895  0.0919  0.3731 -0.2968
   10MOL   H120 3018   3.582   6.833   4.755 -0.2893  0.6023  0.2280
   10MOL   H121 3019   3.683   6.936   4.667  2.3110  0.0622  0.2511
   10MOL   H122 3020   3.882   6.884   4.766  1.1370 -0.2563  0.3899
   10MOL   H123 3021   3.968   6.986   4.949  0.6916 -0.4058 -1.6138
   10MOL   H124 3022   3.758   7.069   5.159 -1.2879  0.0549 -2.3549
   10MOL   H125 3023   3.916   7.126   5.161  0.1884 -1.1921  0.8745
   10MOL   H126 3024   3.888   6.951   5.173 -0.2490 -0.9523 -0.6336
   10MOL   H127 3025   3.904   7.231   4.936  0.3958 -0.7489  1.4530
   10MOL   H128 3026   3.734   7.176   4.890 -0.3285 -1.7676 -2.3169
   10MOL   H129 3027   3.870   7.136   4.791 -2.8541 -1.2052 -0.9273
   10MOL   C130 3028   3.834   6.715   4.892 -0.1793 -0.6721 -0.3935
   10MOL   C131 3029   3.974   6.704   4.955  0.2381 -0.1256 -0.3642
   10MOL   O132 3030   4.056   6.752   4.842  0.1721  0.2954  0.8430
   10MOL   C133 3031   4.200   6.756   4.865  0.5635 -0.0451  0.2373
   10MOL   C134 3032   4.275   6.640   4.801 -0.0064  0.0085 -0.1357
   10MOL   C135 3033   4.240   6.889   4.789 -0.0081 -0.2193 -0.2367
   10MOL   H136 3034   3.826   6.639   4.814 -0.5764 -1.3895  0.3453
   10MOL   H137 3035   3.757   6.681   4.961 -0.7198 -1.0319 -1.1763
   10MOL   H138 3036   3.989   6.769   5.041 -1.0254  0.6468 -0.7123
   10MOL   H139 3037   4.221   6.760   4.972  1.6779 -2.1535  0.1202
   10MOL   H140 3038   4.381   6.646   4.826 -0.0597  0.9588 -0.0917
   10MOL   H141 3039   4.264   6.640   4.693  0.8315  1.6813 -0.2408
   10MOL   H142 3040   4.245   6.541   4.833  0.5936  0.2369  1.1560
   10MOL   H143 3041   4.178   6.974   4.815 -0.8825 -0.5334 -1.2255
   10MOL   H144 3042   4.345   6.913   4.800 -0.1043  0.4243 -0.6795
   10MOL   H145 3043   4.220   6.876   4.682 -0.3185 -0.0781 -0.1943
   10MOL   C146 3044   4.009   6.557   4.985 -0.0190 -0.4813  0.4865
   10MOL   C147 3045   3.909   6.485   5.083 -0.1657 -0.0465 -0.1493
   10MOL   O148 3046   3.945   6.345   5.085  0.8181  0.6854  0.5657
   10MOL   C149 3047   3.868   6.271   4.984  0.6807  0.4029 -0.4114
   10MOL   C150 3048   3.776   6.173   5.059  0.1552  0.0655 -0.3822
   10MOL   C151 3049   3.968   6.215   4.890  0.3393  0.4160 -0.1626
   10MOL   H152 3050   4.105   6.551   5.037 -0.8122 -1.3656  1.8802
   10MOL   H153 3051   4.000   6.512   4.886  2.5877 -0.3187  0.1439
   10MOL   H154 3052   3.806   6.496   5.050 -0.5952 -2.0739  0.4265
   10MOL   H155 3053   3.805   6.336   4.924  0.0814  0.5469  0.3651
   10MOL   H156 3054   3.735   6.107   4.983  1.5362  0.7127 -1.7012
   10MOL   H157 3055   3.691   6.227   5.101  0.4214  0.0490  0.1854
   10MOL   H158 3056   3.829   6.118   5.137 -0.7250 -0.2882 -0.0267
   10MOL   H159 3057   4.051   6.285   4.873  0.1931  0.7298  0.3967
   10MOL   H160 3058   3.918   6.181   4.799 -0.4154 -1.6229  0.9826
   10MOL   H161 3059   4.018   6.126   4.927  0.4113  0.3814 -0.3415
   10MOL   C162 3060   3.908   6.532   5.234 -0.2291  0.0129  0.0249
   10MOL   C163 3061   3.824   6.445   5.330  0.2496  0.1344 -0.3831
   10MOL   O164 3062   3.903   6.427   5.449 -0.6652  0.1692  0.2809
   10MOL   C165 3063   4.001   6.327   5.458  0.0599  0.8514 -0.6300
   10MOL   C166 3064   3.919   6.194   5.479 -0.0539  0.1293  0.0683
   10MOL   C167 3065   4.089   6.361   5.576 -0.0532  0.5864  0.2260
   10MOL   H168 3066   4.011   6.550   5.265 -0.0177  1.1725 -1.2795
   10MOL   H169 3067   3.867   6.633   5.234  2.0313  0.9584 -0.1948
   10MOL   H170 3068   3.797   6.352   5.279 -0.6239  0.1552  0.0324
   10MOL   H171 3069   4.057   6.319   5.365  0.5304 -0.1923 -0.2544
   10MOL   H172 3070   3.855   6.169   5.394  0.9618 -0.9541 -0.3993
   10MOL   H173 3071   3.859   6.207   5.569 -0.5582  0.9611 -0.3750
   10MOL   H174 3072   3.978   6.104   5.497  0.4416  0.3540 -0.4126
   10MOL   H175 3073   4.182   6.306   5.591 -0.5879 -0.5492 -0.6138
   10MOL   H176 3074   4.036   6.367   5.671 -0.9857 -2.0806 -0.0830
   10MOL   H177 3075   4.128   6.462   5.563 -0.7677  1.0129  1.3377
   10MOL   C178 3076   3.680   6.507   5.358 -0.4133 -0.0943 -0.0898
   10MOL   C179 3077   3.571   6.400   5.396 -0.4440 -0.3359 -0.7823
   10MOL   O180 3078   3.490   6.451   5.501  0.0284  0.5595 -0.8524
   10MOL   C181 3079   3.548   6.448   5.626 -0.6123  0.6423 -0.4204
   10MOL   C182 3080   3.521   6.322   5.702  0.0492 -0.1613  0.1817
   10MOL   C183 3081   3.487   6.563   5.703 -0.1690 -0.1894 -0.5058
   10MOL   H184 3082   3.645   6.563   5.270 -0.3118 -0.5170 -0.3975
   10MOL   H185 3083   3.681   6.581   5.438  1.9866  0.4614 -0.5735
   10MOL   H186 3084   3.630   6.314   5.427 -1.0370 -0.6929 -0.6314
   10MOL   H187 3085   3.657   6.459   5.628 -0.5635  0.1075  0.0719
   10MOL   H188 3086   3.557   6.330   5.804 -0.4946  1.7832  0.2328
   10MOL   H189 3087   3.552   6.232   5.648 -1.8185 -0.0037 -1.2112
   10MOL   H190 3088   3.412   6.313   5.709  0.2567 -1.1106  2.7309
   10MOL   H191 3089   3.508   6.556   5.809  0.8716 -0.6978 -0.7445
   10MOL   H192 3090   3.378   6.559   5.707 -0.2697  2.5394  0.8297
   10MOL   H193 3091   3.522   6.657   5.660 -1.6155 -0.2799 -1.9469
   10MOL   C194 3092   3.484   6.370   5.273  0.3179 -0.4935 -0.0796
   10MOL   C195 3093   3.391   6.248   5.290  0.2336 -0.4046  0.0974
   10MOL   O196 3094   3.495   6.153   5.305  0.9987 -0.1402 -0.0626
   10MOL   C197 3095   3.460   6.016   5.327 -0.0455  0.0768  0.3443
   10MOL   C198 3096   3.574   5.928   5.267 -0.4822  0.2262  0.5852
   10MOL   C199 3097   3.446   5.986   5.474  0.1113  0.0423  0.0456
   10MOL   H200 3098   3.422   6.456   5.250 -0.0495 -0.4123  1.2274
   10MOL   H201 3099   3.556   6.336   5.197 -1.1140 -2.1243 -0.7547
   10MOL   H202 3100   3.345   6.255   5.389  2.5403  1.3160  1.1011
   10MOL   H203 3101   3.369   5.984   5.276  0.3496  0.1599 -0.4296
   10MOL   H204 3102   3.572   5.822   5.291 -1.4077  0.4179  1.3578
   10MOL   H205 3103   3.571   5.932   5.158  1.6942  1.4671  0.5387
   10MOL   H206 3104   3.669   5.966   5.305  0.7657 -1.1681 -1.0489
   10MOL   H207 3105   3.386   5.897   5.494  0.3487 -0.4906 -1.5095
   10MOL   H208 3106   3.548   5.978   5.511 -0.5612  0.7635  2.1159
   10MOL   H209 3107   3.398   6.063   5.533 -2.3313 -0.4813 -1.1704
   10MOL   C210 3108   3.311   6.222   5.165 -0.3123  0.2137 -0.0600
   10MOL   C211 3109   3.210   6.334   5.123  0.7601 -0.2617 -0.1169
   10MOL   O212 3110   3.178   6.287   4.997 -0.0499  0.1081  0.1462
   10MOL   C213 3111   3.152   6.377   4.892  0.1918  0.7198 -0.5687
   10MOL   C214 3112   3.288   6.435   4.837 -0.1033 -0.1374 -0.0848
   10MOL   C215 3113   3.093   6.290   4.776 -0.3808 -0.2232 -0.4670
   10MOL   H216 3114   3.248   6.135   5.185  2.0080 -1.4245  0.3718
   10MOL   H217 3115   3.383   6.206   5.085  0.6177  2.0783  0.3765
   10MOL   H218 3116   3.267   6.426   5.111  1.1721 -0.3082  1.4050
   10MOL   H219 3117   3.081   6.456   4.918 -1.8424 -0.8997 -1.1458
   10MOL   H220 3118   3.352   6.364   4.785  0.3364  0.6097 -0.5704
   10MOL   H221 3119   3.348   6.484   4.914  0.6149 -1.3873  0.1707
   10MOL   H222 3120   3.267   6.510   4.761  0.1992 -0.0182 -0.0551
   10MOL   H223 3121   3.162   6.210   4.750  1.5437  1.2226  0.0721
   10MOL   H224 3122   3.085   6.350   4.686 -0.6608 -2.6867 -2.1205
   10MOL   H225 3123   2.993   6.255   4.803 -0.5898  1.7578  1.5425
   10MOL   C226 3124   3.089   6.362   5.206 -0.0204 -0.0900 -0.1080
   10MOL   C227 3125   3.111   6.468   5.317 -0.6258 -0.1227 -0.8410
   10MOL   O228 3126   3.005   6.454   5.407  0.6138 -0.1504  0.9780
   10MOL   C229 3127   3.036   6.453   5.545  0.1150 -0.4389  1.0106
   10MOL   C230 3128   3.086   6.305   5.568 -0.2569 -0.5400 -0.6367
   10MOL   C231 3129   2.912   6.494   5.626  0.1442 -0.8646  0.1963
   10MOL   H232 3130   3.064   6.264   5.247 -0.7069  0.2222  0.2336
   10MOL   H233 3131   3.003   6.382   5.141  1.5213  1.0534 -1.8177
   10MOL   H234 3132   3.204   6.448   5.369 -0.9384  0.3817 -0.0813
   10MOL   H235 3133   3.117   6.525   5.558  1.9726 -2.5398  1.6717
   10MOL   H236 3134   3.171   6.281   5.505 -0.5652  0.1643 -1.3273
   10MOL   H237 3135   3.112   6.276   5.670 -1.9355 -3.4518 -0.9762
   10MOL   H238 3136   3.008   6.232   5.547  0.3417 -0.8747 -1.6989
   10MOL   H239 3137   2.935   6.495   5.732 -0.7031 -0.0264  0.3761
   10MOL   H240 3138   2.833   6.421   5.613 -0.7395  0.1178  0.0416
   10MOL   H241 3139   2.873   6.590   5.592 -1.0410 -0.9886  1.1963
   10MOL   C242 3140   3.112   6.617   5.265  0.1562 -0.6632 -0.3685
   10MOL   C243 3141   3.134   6.724   5.365 -0.2233  0.8565 -0.0677
   10MOL   O244 3142   3.075   6.841   5.304  0.6563 -0.2490  0.1760
   10MOL   C245 3143   2.970   6.902   5.371  0.1553 -0.3808 -0.1460
   10MOL   C246 3144   2.985   7.041   5.324  0.0354  0.4519  0.1635
   10MOL   C247 3145   2.841   6.837   5.328 -0.6616 -0.3553  0.0706
   10MOL   H248 3146   3.180   6.633   5.182  0.7252 -0.2773  0.1720
   10MOL   H249 3147   3.015   6.629   5.216 -0.3335 -0.9278  0.5366
   10MOL   H250 3148   3.080   6.701   5.457  0.7193 -1.5699 -0.0666
   10MOL   H251 3149   2.986   6.904   5.479  3.5905  4.2763 -0.6161
   10MOL   H252 3150   3.085   7.084   5.330  1.3311 -2.6504  1.9609
   10MOL   H253 3151   2.963   7.036   5.217 -1.9274  0.7759  0.5320
   10MOL   H254 3152   2.908   7.108   5.363  0.1798  1.4119 -1.1234
   10MOL   H255 3153   2.823   6.744   5.383  2.8746 -0.1731  1.6907
   10MOL   H256 3154   2.760   6.908   5.343 -0.3498 -0.2521  1.3291
   10MOL   H257 3155   2.839   6.817   5.221  1.6906 -1.1752  0.1514
   10MOL   C258 3156   3.280   6.766   5.410  0.7821 -0.2701 -0.2021
   10MOL   C259 3157   3.287   6.889   5.508  0.1036  0.1890 -0.0118
   10MOL   O260 3158   3.417   6.901   5.551 -0.1206 -0.1282 -0.3273
   10MOL   C261 3159   3.514   6.951   5.455  0.3289 -0.9450  0.2203
   10MOL   C262 3160   3.505   7.105   5.452 -0.2091  0.6279  0.3428
   10MOL   C263 3161   3.648   6.906   5.507 -0.1622 -0.8401  0.5083
   10MOL   H264 3162   3.324   6.682   5.464 -0.0592  0.0960  1.0604
   10MOL   H265 3163   3.339   6.791   5.321  1.6689 -1.8430 -0.0732
   10MOL   H266 3164   3.236   6.978   5.469  0.7062  0.7619  0.4872
   10MOL   H267 3165   3.495   6.904   5.359 -0.0111  0.5880 -0.4724
   10MOL   H268 3166   3.587   7.155   5.401  1.1365 -0.8752  0.9956
   10MOL   H269 3167   3.503   7.160   5.547  1.0149 -0.7067  1.1605
   10MOL   H270 3168   3.410   7.140   5.412  1.5889  3.1035 -1.9520
   10MOL   H271 3169   3.648   6.955   5.604 -0.0676 -0.2972  0.2289
   10MOL   H272 3170   3.664   6.800   5.529 -0.0497 -1.1436 -0.9547
   10MOL   H273 3171   3.733   6.942   5.450 -0.2088  1.3158  1.7630
   10MOL   C274 3172   3.212   6.860   5.639  0.2799 -0.0740  0.6640
   10MOL   C275 3173   3.196   6.977   5.734 -0.4216 -0.2509  0.0445
   10MOL   O276 3174   3.113   7.080   5.681  0.3912 -0.4127 -0.1439
   10MOL   C277 3175   3.185   7.204   5.658  0.1922 -1.2106  0.5851
   10MOL   C278 3176   3.226   7.275   5.792  0.1368  0.0202 -0.0073
   10MOL   C279 3177   3.104   7.303   5.573 -0.3112  0.2644  0.1466
   10MOL   H280 3178   3.113   6.816   5.631  0.5035 -0.2020 -1.6649
   10MOL   H281 3179   3.268   6.779   5.685 -0.0263 -0.3771  0.5015
   10MOL   H282 3180   3.294   7.022   5.752  0.2671 -0.7098 -2.3651
   10MOL   H283 3181   3.282   7.191   5.610  0.5209  0.0075  0.9113
   10MOL   H284 3182   3.141   7.300   5.854  2.0511 -0.4122  2.9014
   10MOL   H285 3183   3.290   7.210   5.851 -0.8586 -2.0076 -1.1060
   10MOL   H286 3184   3.274   7.370   5.766  2.6756 -0.7443  1.7432
   10MOL   H287 3185   3.005   7.328   5.611 -0.6517 -0.1715 -0.4364
   10MOL   H288 3186   3.077   7.266   5.474 -1.8963 -0.6118  0.8855
   10MOL   H289 3187   3.147   7.402   5.561 -0.2393 -0.0842 -3.1470
   10MOL   C290 3188   3.135   6.939   5.873  0.0343 -0.4870  0.7237
   10MOL   C291 3189   3.231   6.865   5.974  0.6863 -0.4456 -0.4050
   10MOL   O292 3190   3.322   6.970   6.012 -0.4079  0.2507  1.1282
   10MOL   C293 3191   3.461   6.926   6.025 -0.0141  0.6764 -0.2900
   10MOL   C294 3192   3.535   7.019   6.123  0.2414 -0.4489 -0.2333
   10MOL   C295 3193   3.534   6.929   5.886  0.5963 -0.0592  0.1403
   10MOL   H296 3194   3.042   6.886   5.855  0.0425 -0.2652  0.0312
   10MOL   H297 3195   3.100   7.034   5.914  1.8033  0.0849  0.9367
   10MOL   H298 3196   3.290   6.787   5.926  1.5534 -0.1089  0.1227
   10MOL   H299 3197   3.474   6.820   6.050  0.6078  0.4438 -1.5569
   10MOL   H300 3198   3.638   6.987   6.139  0.6697  0.6785 -0.6897
   10MOL   H301 3199   3.524   7.120   6.083  0.8494  0.4669  1.8518
   10MOL   H302 3200   3.469   7.019   6.210 -0.0954 -2.3357 -0.4553
   10MOL   H303 3201   3.524   7.031   5.850 -1.1094 -0.7595 -1.4125
   10MOL   H304 3202   3.638   6.897   5.894  0.7307  0.3436  0.0115
   10MOL   H305 3203   3.493   6.857   5.816 -0.3360 -0.1445  0.7664
   10MOL   C306 3204   3.150   6.810   6.093 -0.4547  0.1236  0.0050
   10MOL   C307 3205   3.234   6.788   6.222  0.1793  0.0587 -0.5593
   10MOL   O308 3206   3.146   6.733   6.321 -0.6707 -0.1042  0.2546
   10MOL   C309 3207   3.214   6.698   6.438  0.0260 -0.5542 -0.3382
   10MOL   C310 3208   3.299   6.809   6.508 -0.4131 -0.3328  0.8725
   10MOL   C311 3209   3.095   6.645   6.524  0.1902 -0.4313  0.2461
   10MOL   H312 3210   3.110   6.715   6.059 -0.5593  1.1661 -2.9514
   10MOL   H313 3211   3.058   6.866   6.110 -2.2987 -2.8694  0.0802
   10MOL   H314 3212   3.328   6.738   6.199  0.1824  1.0031 -2.7558
   10MOL   H315 3213   3.277   6.614   6.408  0.2905  0.0204 -1.4123
   10MOL   H316 3214   3.388   6.831   6.450 -0.8744  0.9256  0.6288
   10MOL   H317 3215   3.326   6.784   6.610 -2.9409 -1.8195  1.2100
   10MOL   H318 3216   3.244   6.903   6.509  1.0178  0.5060  2.4723
   10MOL   H319 3217   3.126   6.587   6.610  1.0109  2.6927  2.1462
   10MOL   H320 3218   3.034   6.572   6.471  0.7409 -1.9488  1.6826
   10MOL   H321 3219   3.027   6.724   6.558  0.0317  0.2436 -1.5424
   10MOL   H322 3220   3.264   6.887   6.254 -1.5593  0.2451  0.5381
   11MOL     C1 3221   2.612   4.410   5.170 -0.6703  0.0853  0.7605
   11MOL     C2 3222   2.533   4.537   5.135  0.1794 -0.0751 -0.5640
   11MOL     O3 3223   2.627   4.641   5.161 -0.4652 -0.4706  0.3706
   11MOL     C4 3224   2.587   4.766   5.212  0.6646 -0.2024  0.4457
   11MOL     C5 3225   2.683   4.873   5.165  0.7494  0.0251  0.4861
   11MOL     C6 3226   2.597   4.755   5.369  0.6214  0.5684  0.1450
   11MOL     H7 3227   2.543   4.325   5.171  3.2986 -3.2883  2.3202
   11MOL     H8 3228   2.695   4.378   5.108 -1.4397 -0.7587  0.1497
   11MOL     H9 3229   2.447   4.555   5.200 -0.8546 -0.4924 -1.8032
   11MOL    H10 3230   2.487   4.797   5.180  1.7116  1.1105 -1.6919
   11MOL    H11 3231   2.789   4.854   5.182  0.9561  0.8251  0.1227
   11MOL    H12 3232   2.666   4.887   5.058  1.4929 -1.1229  0.2083
   11MOL    H13 3233   2.647   4.967   5.207 -0.2978 -0.1234 -0.0592
   11MOL    H14 3234   2.552   4.659   5.392  0.9995 -0.3394 -2.7344
   11MOL    H15 3235   2.703   4.759   5.392  0.4413  1.5720  0.8735
   11MOL    H16 3236   2.538   4.837   5.412  1.2545  0.5698  1.0220
   11MOL    H17 3237   2.655   4.415   5.270  0.8820  1.3545  0.0450
   11MOL    C18 3238   2.475   4.558   4.993 -0.2929  0.2786 -0.7116
   11MOL    C19 3239   2.330   4.509   4.967  0.0173  0.0379 -0.2435
   11MOL    O20 3240   2.244   4.583   5.051  0.4985 -0.4976 -0.0530
   11MOL    C21 3241   2.109   4.596   5.004  0.4096 -0.4137 -0.6388
   11MOL    C22 3242   2.096   4.731   4.927 -0.2792 -0.3834  0.1434
   11MOL    C23 3243   2.026   4.587   5.133 -0.1370  0.3992  0.1206
   11MOL    H24 3244   2.485   4.666   4.979  2.2972  0.0473 -0.7411
   11MOL    H25 3245   2.545   4.517   4.921  2.5128  0.5575  1.7811
   11MOL    H26 3246   2.297   4.536   4.867 -1.9647  1.3424  0.7232
   11MOL    H27 3247   2.072   4.511   4.946 -0.2257 -1.5333  1.3415
   11MOL    H28 3248   2.173   4.749   4.852 -1.1609 -0.9761 -0.9174
   11MOL    H29 3249   2.000   4.734   4.876 -1.1290 -1.2324  1.6483
   11MOL    H30 3250   2.105   4.814   4.997 -2.4350  0.8027 -0.9551
   11MOL    H31 3251   2.076   4.505   5.185  0.6360 -0.7784 -2.3642
   11MOL    H32 3252   1.924   4.560   5.107  0.0457  0.0097 -0.1959
   11MOL    H33 3253   2.032   4.674   5.199  0.8039 -0.3471  1.0368
   11MOL    C34 3254   2.311   4.359   4.994 -0.0764 -0.4272 -0.4541
   11MOL    C35 3255   2.383   4.259   4.900  0.2584 -0.8658 -0.4649
   11MOL    O36 3256   2.332   4.136   4.941 -0.1209  0.2809  0.2658
   11MOL    C37 3257   2.422   4.069   5.028 -0.0700  0.6564 -0.3116
   11MOL    C38 3258   2.341   3.961   5.113 -0.3534  0.4055  0.1510
   11MOL    C39 3259   2.526   3.987   4.939  0.1933 -0.0075 -0.0963
   11MOL    H40 3260   2.206   4.339   4.975 -0.1480 -2.0897  1.4491
   11MOL    H41 3261   2.314   4.340   5.102  0.3729  0.2078 -0.3509
   11MOL    H42 3262   2.491   4.260   4.914  0.3602  1.5731 -1.2784
   11MOL    H43 3263   2.469   4.135   5.100 -1.8575 -0.1141  1.5996
   11MOL    H44 3264   2.313   3.867   5.064  1.8720 -1.0338  1.5141
   11MOL    H45 3265   2.248   4.000   5.155 -0.0394  2.8736 -1.3892
   11MOL    H46 3266   2.399   3.924   5.198  0.8674  0.4439 -0.6526
   11MOL    H47 3267   2.469   3.940   4.859 -1.8147 -0.1118  1.3384
   11MOL    H48 3268   2.592   4.061   4.894 -0.2341  0.8194  0.6119
   11MOL    H49 3269   2.585   3.915   4.996  1.5420 -0.7933 -2.4013
   11MOL    C50 3270   2.341   4.273   4.750  0.5155 -0.4246 -0.1522
   11MOL    C51 3271   2.423   4.368   4.663 -0.2861  0.3538 -0.3811
   11MOL    O52 3272   2.384   4.345   4.527  0.3022 -0.0698 -0.0598
   11MOL    C53 3273   2.272   4.423   4.483  0.8359 -0.3917  0.6524
   11MOL    C54 3274   2.212   4.355   4.355  0.8885  0.0511  0.0287
   11MOL    C55 3275   2.317   4.568   4.459 -0.3579 -0.3477 -0.7437
   11MOL    H56 3276   2.356   4.177   4.702 -0.7593 -0.0820 -1.2690
   11MOL    H57 3277   2.234   4.274   4.735  0.6482  0.1610 -1.0929
   11MOL    H58 3278   2.389   4.465   4.699  1.0112  1.5648 -2.3036
   11MOL    H59 3279   2.192   4.406   4.555 -0.0701 -1.1417 -0.5023
   11MOL    H60 3280   2.298   4.347   4.289 -1.0636 -2.1558 -2.3543
   11MOL    H61 3281   2.126   4.408   4.313 -2.5278 -2.7121  3.1440
   11MOL    H62 3282   2.191   4.250   4.376 -1.9820  0.4816 -0.4745
   11MOL    H63 3283   2.411   4.565   4.404 -1.7719  0.3766 -3.2617
   11MOL    H64 3284   2.329   4.639   4.541 -1.9074  2.7416 -3.0685
   11MOL    H65 3285   2.242   4.616   4.395 -0.9937  0.9255  0.9036
   11MOL    C66 3286   2.574   4.354   4.661  0.3234  0.6389  0.7527
   11MOL    C67 3287   2.629   4.242   4.573 -0.9571 -0.1282 -0.4188
   11MOL    O68 3288   2.577   4.117   4.622  0.1205  0.5041  0.4135
   11MOL    C69 3289   2.576   4.011   4.527  0.4106  0.3211 -1.1389
   11MOL    C70 3290   2.603   3.870   4.596 -0.2232 -0.5338  0.2689
   11MOL    C71 3291   2.440   4.008   4.460  0.5879  0.1023 -0.5173
   11MOL    H72 3292   2.600   4.440   4.599 -2.7981  0.1784 -1.3407
   11MOL    H73 3293   2.622   4.352   4.758  1.8182  1.7511  0.0518
   11MOL    H74 3294   2.600   4.265   4.470 -0.0434 -0.8613 -0.8468
   11MOL    H75 3295   2.661   4.023   4.459  1.2729  2.2344  0.2499
   11MOL    H76 3296   2.610   3.793   4.519 -1.8131  0.7610 -1.2222
   11MOL    H77 3297   2.693   3.859   4.656 -0.1814  0.4247  0.3846
   11MOL    H78 3298   2.519   3.853   4.664  0.6940  1.6730  2.0119
   11MOL    H79 3299   2.429   3.941   4.374 -1.9857 -0.4693  0.1972
   11MOL    H80 3300   2.414   4.107   4.424 -0.4003  0.2985  0.7259
   11MOL    H81 3301   2.365   3.975   4.532 -0.0230 -0.6935 -1.4969
   11MOL    C82 3302   2.786   4.231   4.570 -0.1656  0.3347 -0.2120
   11MOL    C83 3303   2.847   4.356   4.497  0.0158 -0.5240  0.3404
   11MOL    O84 3304   2.982   4.367   4.538 -0.1307  0.2126 -0.1775
   11MOL    C85 3305   3.001   4.448   4.657 -0.4273  0.2436 -0.1917
   11MOL    C86 3306   3.036   4.590   4.601  0.1273  0.6766  0.0290
   11MOL    C87 3307   3.121   4.392   4.728 -0.1210 -0.0285 -0.4784
   11MOL    H88 3308   2.815   4.219   4.675  1.1052 -1.9754 -0.7812
   11MOL    H89 3309   2.846   4.153   4.522  0.0876  0.1282  0.4391
   11MOL    H90 3310   2.796   4.444   4.534 -1.3577 -1.9089  1.8274
   11MOL    H91 3311   2.923   4.450   4.733  1.3048  1.4273  1.5708
   11MOL    H92 3312   3.125   4.580   4.539  0.0787  0.5328 -0.0176
   11MOL    H93 3313   2.951   4.628   4.545 -0.2428 -0.5784 -0.2664
   11MOL    H94 3314   3.055   4.661   4.682 -0.1239 -1.4080  1.9557
   11MOL    H95 3315   3.093   4.289   4.752 -2.2791  0.3113 -1.4311
   11MOL    H96 3316   3.205   4.388   4.660  0.9518 -1.6687  0.8958
   11MOL    H97 3317   3.138   4.442   4.823 -0.7485 -1.8057  0.6002
   11MOL    C98 3318   2.849   4.346   4.335 -0.2160 -0.1978  0.4668
   11MOL    C99 3319   2.904   4.466   4.256  0.1777  0.3343 -0.2369
   11MOL   O100 3320   2.798   4.540   4.199 -0.5639  0.7673  0.4287
   11MOL   C101 3321   2.746   4.655   4.259  0.5300  0.0269  1.3480
   11MOL   C102 3322   2.625   4.685   4.169 -0.1244 -0.2581 -0.1600
   11MOL   C103 3323   2.842   4.774   4.239  0.4334  0.0743  0.3030
   11MOL   H104 3324   2.912   4.259   4.315 -0.1065  0.3012 -1.4784
   11MOL   H105 3325   2.751   4.309   4.305  0.3855 -2.0961  0.7399
   11MOL   H106 3326   2.960   4.521   4.332 -0.9836  1.0291  0.1263
   11MOL   H107 3327   2.721   4.650   4.365  1.1488 -1.9533  1.4212
   11MOL   H108 3328   2.664   4.705   4.069  0.9711  0.3356  0.3838
   11MOL   H109 3329   2.565   4.766   4.210  1.5428  1.2814 -0.6942
   11MOL   H110 3330   2.562   4.595   4.165  0.2881 -0.5268 -0.7444
   11MOL   H111 3331   2.875   4.770   4.135  1.6338  0.3453  0.6698
   11MOL   H112 3332   2.925   4.755   4.307  1.9663  1.1272 -1.2429
   11MOL   H113 3333   2.808   4.872   4.272  2.6014  1.8058 -2.4087
   11MOL   C114 3334   3.002   4.438   4.147 -0.2515 -0.2769  0.0822
   11MOL   C115 3335   3.141   4.385   4.175  0.6379  0.5797  0.1240
   11MOL   O116 3336   3.200   4.369   4.042  0.2131 -0.1277 -0.3418
   11MOL   C117 3337   3.195   4.242   3.988  0.4433  0.7150  0.3405
   11MOL   C118 3338   3.321   4.161   4.025  0.4415  0.2182 -0.4780
   11MOL   C119 3339   3.176   4.261   3.838 -0.0070 -1.1109 -0.4401
   11MOL   H120 3340   3.027   4.525   4.087 -0.2161 -1.2080 -1.2747
   11MOL   H121 3341   2.965   4.368   4.073  4.6691 -1.6989 -1.2062
   11MOL   H122 3342   3.157   4.296   4.236 -1.7075  0.2374  0.2812
   11MOL   H123 3343   3.099   4.201   4.017  0.9585  0.3585  1.5614
   11MOL   H124 3344   3.408   4.222   4.000  2.0588 -0.6160  2.8341
   11MOL   H125 3345   3.327   4.070   3.965 -0.5403  0.6640 -1.2831
   11MOL   H126 3346   3.319   4.140   4.131  0.6577  2.2396 -0.0550
   11MOL   H127 3347   3.156   4.165   3.791 -3.0736 -0.5993 -0.2751
   11MOL   H128 3348   3.257   4.298   3.776 -0.6041  1.3886  0.2232
   11MOL   H129 3349   3.082   4.313   3.825  0.3833 -0.4584 -0.6396
   11MOL   C130 3350   3.223   4.508   4.240 -0.3536 -0.2690  0.4623
   11MOL   C131 3351   3.364   4.473   4.288 -0.7154 -0.2182 -0.0114
   11MOL   O132 3352   3.351   4.406   4.410 -0.2685  0.1831  0.5326
   11MOL   C133 3353   3.414   4.279   4.420  0.6180 -0.0035  0.0882
   11MOL   C134 3354   3.555   4.291   4.461 -0.3560 -0.3382 -0.0199
   11MOL   C135 3355   3.334   4.201   4.522  0.3126 -0.0813  1.1573
   11MOL   H136 3356   3.169   4.559   4.320 -0.8644  0.7558 -0.5145
   11MOL   H137 3357   3.245   4.583   4.164  1.9272 -0.4095  0.9626
   11MOL   H138 3358   3.414   4.409   4.216 -1.1101 -1.6610  0.9701
   11MOL   H139 3359   3.407   4.229   4.324  0.2579  2.2777 -1.0985
   11MOL   H140 3360   3.619   4.346   4.392 -0.8455 -0.8782 -0.8954
   11MOL   H141 3361   3.600   4.193   4.480 -0.5471 -0.2518  0.9366
   11MOL   H142 3362   3.561   4.352   4.552  0.4389  0.6962 -0.7595
   11MOL   H143 3363   3.227   4.220   4.527  0.4317  0.7288  0.8057
   11MOL   H144 3364   3.332   4.095   4.499 -0.6777 -0.1437  1.5374
   11MOL   H145 3365   3.359   4.219   4.627  0.3977 -3.8637  1.8320
   11MOL   C146 3366   3.451   4.594   4.314 -0.3073 -0.2551 -0.1154
   11MOL   C147 3367   3.528   4.654   4.197  0.1401 -0.1811  0.9686
   11MOL   O148 3368   3.439   4.694   4.097 -0.3063 -0.1168  0.0894
   11MOL   C149 3369   3.474   4.638   3.966  0.3378 -0.5419 -0.6940
   11MOL   C150 3370   3.597   4.715   3.908 -0.2157  0.8473 -0.0535
   11MOL   C151 3371   3.350   4.673   3.875 -0.5470  0.1353 -0.4247
   11MOL   H152 3372   3.526   4.562   4.386 -0.4411 -3.8577 -1.4953
   11MOL   H153 3373   3.393   4.663   4.374  1.2177 -0.6389  1.8596
   11MOL   H154 3374   3.589   4.570   4.164  0.3717 -0.1943  1.4277
   11MOL   H155 3375   3.484   4.532   3.991 -2.2356 -0.6543 -0.0741
   11MOL   H156 3376   3.591   4.820   3.939  2.6964  1.5228 -1.5534
   11MOL   H157 3377   3.598   4.711   3.799 -0.7611 -2.0473  0.0125
   11MOL   H158 3378   3.685   4.670   3.955 -0.8317  0.7211  0.9815
   11MOL   H159 3379   3.261   4.620   3.907  1.0154 -1.5608  1.2413
   11MOL   H160 3380   3.370   4.643   3.772 -0.2327  0.2508 -0.3986
   11MOL   H161 3381   3.334   4.780   3.883  0.2886  0.0725  2.4516
   11MOL   C162 3382   3.620   4.778   4.225  0.0687 -0.2932 -0.3991
   11MOL   C163 3383   3.752   4.741   4.299  0.3498 -0.1963 -0.7540
   11MOL   O164 3384   3.833   4.700   4.192 -0.0490 -0.7564 -0.5463
   11MOL   C165 3385   3.934   4.605   4.218 -0.2826  0.4031 -0.4366
   11MOL   C166 3386   4.003   4.598   4.078  0.3487 -0.3006 -0.5135
   11MOL   C167 3387   3.874   4.464   4.247  0.5848 -0.0401 -0.1565
   11MOL   H168 3388   3.647   4.835   4.136  1.0725  0.8485  0.6077
   11MOL   H169 3389   3.554   4.832   4.293  0.9433 -1.2278  1.2085
   11MOL   H170 3390   3.727   4.668   4.375  0.6745  1.6045  1.1450
   11MOL   H171 3391   4.009   4.629   4.293  0.0347  1.4212 -1.0803
   11MOL   H172 3392   4.023   4.696   4.035 -1.3480  0.1085 -0.4018
   11MOL   H173 3393   3.929   4.544   4.018 -0.3294  0.7457 -0.6282
   11MOL   H174 3394   4.091   4.535   4.082  0.8298  0.3756 -0.4336
   11MOL   H175 3395   3.788   4.448   4.182 -0.0756  2.3468  0.0720
   11MOL   H176 3396   3.840   4.467   4.350  2.6645  0.2634  0.5495
   11MOL   H177 3397   3.943   4.381   4.254 -0.1013 -0.4462  2.0547
   11MOL   C178 3398   3.809   4.868   4.370 -0.6461 -0.5534  0.1446
   11MOL   C179 3399   3.852   4.839   4.509  0.0309  0.2495  0.4639
   11MOL   O180 3400   3.932   4.943   4.555  0.6101  0.1186 -0.2493
   11MOL   C181 3401   4.069   4.915   4.563 -0.3063  0.7141  0.1539
   11MOL   C182 3402   4.115   5.021   4.665  0.0140 -0.1871  0.1433
   11MOL   C183 3403   4.137   4.920   4.430  0.0883  0.2211  0.2837
   11MOL   H184 3404   3.743   4.955   4.371  2.5561  1.9742 -0.2959
   11MOL   H185 3405   3.900   4.894   4.315 -0.7588 -0.6995 -0.1107
   11MOL   H186 3406   3.899   4.741   4.503 -0.9194 -0.4085  3.0337
   11MOL   H187 3407   4.086   4.823   4.620  0.7304  0.8417  0.0523
   11MOL   H188 3408   4.220   5.051   4.669  0.2836 -0.6335 -2.2671
   11MOL   H189 3409   4.081   5.008   4.767  1.5991 -0.6502  0.6211
   11MOL   H190 3410   4.053   5.105   4.632 -2.7958 -2.7666 -1.3854
   11MOL   H191 3411   4.101   5.007   4.376  0.8859  0.9641  0.9476
   11MOL   H192 3412   4.122   4.828   4.374  1.0647 -0.2451  0.7651
   11MOL   H193 3413   4.245   4.928   4.421  0.0836  1.6181  1.3920
   11MOL   C194 3414   3.736   4.821   4.611 -0.0601 -0.0254 -0.0853
   11MOL   C195 3415   3.780   4.760   4.742 -0.3402  0.2952 -0.2350
   11MOL   O196 3416   3.789   4.615   4.722 -0.1610  0.0370 -0.5559
   11MOL   C197 3417   3.907   4.546   4.760 -0.3410  0.0191  0.3245
   11MOL   C198 3418   3.925   4.517   4.909 -0.2100  0.0371  0.1629
   11MOL   C199 3419   3.913   4.418   4.685  0.0579 -0.7590 -0.0342
   11MOL   H200 3420   3.695   4.920   4.634  0.5176  0.5484 -1.4083
   11MOL   H201 3421   3.647   4.769   4.576 -1.7554  2.2618  0.6607
   11MOL   H202 3422   3.880   4.791   4.774 -0.7198 -0.8297  2.1485
   11MOL   H203 3423   3.996   4.597   4.722  0.8488 -1.5933  0.9008
   11MOL   H204 3424   4.019   4.466   4.930 -1.0435 -1.4788  0.3379
   11MOL   H205 3425   3.915   4.599   4.980 -0.8210 -0.1034  0.2440
   11MOL   H206 3426   3.847   4.447   4.940 -0.9711  0.0245 -1.7026
   11MOL   H207 3427   3.997   4.362   4.727 -2.0535 -3.4275  0.7416
   11MOL   H208 3428   3.820   4.361   4.683 -0.6694  0.4041  0.1028
   11MOL   H209 3429   3.944   4.433   4.581  0.3880  0.8762  0.3001
   11MOL   C210 3430   3.694   4.781   4.864  0.4558 -0.3672  0.5987
   11MOL   C211 3431   3.739   4.901   4.948  0.2969 -0.1166 -0.3643
   11MOL   O212 3432   3.688   5.021   4.880  0.5544  0.2851 -0.2044
   11MOL   C213 3433   3.775   5.134   4.860 -0.6896 -0.3231  0.8817
   11MOL   C214 3434   3.728   5.195   4.725  0.6711 -0.4397 -0.0824
   11MOL   C215 3435   3.754   5.229   4.978 -0.8008  0.0129  0.0365
   11MOL   H216 3436   3.693   4.698   4.935  1.6750 -2.5965 -1.8832
   11MOL   H217 3437   3.590   4.798   4.839  0.1971 -0.3754  1.6303
   11MOL   H218 3438   3.847   4.895   4.962  0.3652  1.6724  0.0468
   11MOL   H219 3439   3.878   5.100   4.846 -1.5487 -2.8760  0.5053
   11MOL   H220 3440   3.778   5.290   4.705 -0.1660 -0.7786 -4.0664
   11MOL   H221 3441   3.623   5.225   4.732  0.3984 -1.7133  1.6565
   11MOL   H222 3442   3.739   5.129   4.639  0.9197 -1.1499  0.4901
   11MOL   H223 3443   3.814   5.319   4.964  0.4750 -0.5915  1.4534
   11MOL   H224 3444   3.809   5.192   5.064 -0.8352  2.2840  1.0891
   11MOL   H225 3445   3.650   5.245   5.006 -1.3626 -3.4726  0.1349
   11MOL   C226 3446   3.679   4.902   5.092 -0.3005 -0.1128  0.7396
   11MOL   C227 3447   3.759   4.818   5.193 -0.2498 -0.4535 -0.9677
   11MOL   O228 3448   3.703   4.830   5.319  0.4931  0.3089 -0.2069
   11MOL   C229 3449   3.575   4.769   5.350 -0.4072 -0.4258 -0.0044
   11MOL   C230 3450   3.478   4.876   5.403 -0.2902 -0.4684 -0.3151
   11MOL   C231 3451   3.610   4.657   5.441  0.1684 -0.1668 -0.4990
   11MOL   H232 3452   3.571   4.888   5.094 -0.7289  2.4758 -0.7458
   11MOL   H233 3453   3.694   5.003   5.131 -0.0661 -0.0066  0.3783
   11MOL   H234 3454   3.758   4.714   5.160 -0.0624 -0.7889  0.0685
   11MOL   H235 3455   3.518   4.733   5.263 -0.4815 -0.4841  0.0685
   11MOL   H236 3456   3.386   4.828   5.433  0.4575 -1.3730  0.5755
   11MOL   H237 3457   3.520   4.919   5.494  0.3349 -2.4697  0.3698
   11MOL   H238 3458   3.454   4.952   5.328  1.5986 -0.6543 -1.1380
   11MOL   H239 3459   3.675   4.590   5.384 -0.9435 -0.2051 -1.7483
   11MOL   H240 3460   3.523   4.595   5.461  1.1569 -0.6077  2.7030
   11MOL   H241 3461   3.661   4.689   5.532  0.7213  0.0226 -0.8721
   11MOL   C242 3462   3.902   4.873   5.221  0.0656  0.4445 -0.4019
   11MOL   C243 3463   3.966   4.827   5.355 -0.4831  0.8062 -0.2809
   11MOL   O244 3464   4.090   4.896   5.356  0.1685 -0.2525 -0.1019
   11MOL   C245 3465   4.136   4.950   5.481 -0.1234 -0.1743 -0.8113
   11MOL   C246 3466   4.289   4.950   5.466 -0.0955  0.5054 -0.1474
   11MOL   C247 3467   4.065   5.080   5.497  0.7492 -0.2604  0.3498
   11MOL   H248 3468   3.963   4.852   5.133  0.7366  0.6913 -0.0007
   11MOL   H249 3469   3.894   4.982   5.223 -0.4347  0.4387 -1.8300
   11MOL   H250 3470   3.912   4.854   5.446  2.2401  0.2454  1.5775
   11MOL   H251 3471   4.110   4.883   5.564 -2.8902  1.1072 -0.5876
   11MOL   H252 3472   4.331   5.034   5.522  1.3397 -0.1580 -0.2180
   11MOL   H253 3473   4.338   4.862   5.506  0.0268  0.7615  0.2723
   11MOL   H254 3474   4.328   4.961   5.365 -0.2442 -0.4607 -0.3060
   11MOL   H255 3475   4.104   5.148   5.573  0.8022 -0.5916  0.6208
   11MOL   H256 3476   4.056   5.141   5.407 -0.5737 -1.9211 -0.6669
   11MOL   H257 3477   3.965   5.049   5.529  0.1339  1.8185  0.5402
   11MOL   C258 3478   4.004   4.679   5.341 -0.0909 -0.1457  0.9764
   11MOL   C259 3479   4.075   4.603   5.454 -0.2464  0.0232 -0.6195
   11MOL   O260 3480   4.126   4.479   5.411  0.1338  0.3252  0.2572
   11MOL   C261 3481   4.264   4.447   5.430 -0.2551  0.1242 -0.3831
   11MOL   C262 3482   4.274   4.300   5.420  0.3912  0.1144  0.0920
   11MOL   C263 3483   4.342   4.530   5.327 -0.2210 -0.1324  0.2379
   11MOL   H264 3484   3.908   4.629   5.321  0.4806 -1.1901  0.7892
   11MOL   H265 3485   4.068   4.670   5.253  2.3742  1.5389  2.5467
   11MOL   H266 3486   4.161   4.660   5.489 -1.5940  0.7516  1.5529
   11MOL   H267 3487   4.303   4.472   5.529 -1.5011 -1.3043  0.4826
   11MOL   H268 3488   4.247   4.278   5.316  1.5140  2.2316 -0.6924
   11MOL   H269 3489   4.207   4.250   5.489 -0.0650  0.4960 -0.0766
   11MOL   H270 3490   4.374   4.258   5.431 -0.6724 -1.9821  2.1062
   11MOL   H271 3491   4.299   4.510   5.229  2.1551 -1.0623 -0.6505
   11MOL   H272 3492   4.353   4.638   5.336  1.2559  0.0401 -2.9742
   11MOL   H273 3493   4.445   4.494   5.324 -0.3895 -0.4760 -1.9241
   11MOL   C274 3494   3.974   4.596   5.571 -0.7621  0.3198  0.7128
   11MOL   C275 3495   4.011   4.508   5.688  0.2445 -0.0092  0.5343
   11MOL   O276 3496   4.093   4.575   5.781 -0.5872 -0.4004 -0.2169
   11MOL   C277 3497   4.164   4.500   5.880 -0.8151  0.2751 -0.0200
   11MOL   C278 3498   4.239   4.594   5.973 -0.0841  1.1780 -0.3219
   11MOL   C279 3499   4.252   4.397   5.820 -0.1105 -0.2100 -0.3704
   11MOL   H280 3500   3.958   4.700   5.602  0.0448  0.2789  1.2651
   11MOL   H281 3501   3.879   4.564   5.529  0.2768 -0.9863 -0.6695
   11MOL   H282 3502   4.069   4.424   5.650 -1.8886 -1.4110  0.3189
   11MOL   H283 3503   4.091   4.444   5.939  0.0581 -0.5510  0.3008
   11MOL   H284 3504   4.170   4.664   6.021 -0.3035 -0.0360  1.1662
   11MOL   H285 3505   4.281   4.544   6.060  0.5283  0.8795 -0.7803
   11MOL   H286 3506   4.320   4.646   5.921  1.9985 -2.8167 -1.2556
   11MOL   H287 3507   4.200   4.331   5.750 -1.5100  1.0549 -0.5415
   11MOL   H288 3508   4.300   4.337   5.898 -1.2120 -1.1206 -0.3840
   11MOL   H289 3509   4.326   4.448   5.758 -0.4884 -1.0859 -1.5610
   11MOL   C290 3510   3.884   4.460   5.766  0.4513 -0.1352  0.7184
   11MOL   C291 3511   3.793   4.375   5.692  0.2858  0.4558 -0.0080
   11MOL   O292 3512   3.876   4.267   5.659 -0.3825  0.1219  0.3476
   11MOL   C293 3513   3.843   4.170   5.559  0.0530 -0.0636 -0.3813
   11MOL   C294 3514   3.912   4.046   5.596  0.5541  0.0844  0.3416
   11MOL   C295 3515   3.895   4.234   5.431  0.3115  0.8799 -0.1219
   11MOL   H296 3516   3.831   4.541   5.816 -1.5313 -2.5430  2.6295
   11MOL   H297 3517   3.919   4.396   5.847  1.7817  0.2182  0.4441
   11MOL   H298 3518   3.751   4.407   5.596  2.6809  3.4456 -0.1248
   11MOL   H299 3519   3.739   4.141   5.547  0.2115 -0.4732 -0.7704
   11MOL   H300 3520   3.908   3.971   5.517  0.8503  0.8943 -0.4472
   11MOL   H301 3521   4.016   4.069   5.617  0.6480 -0.0150 -0.0140
   11MOL   H302 3522   3.864   4.021   5.691 -0.2928 -0.7922 -0.3045
   11MOL   H303 3523   3.854   4.330   5.401 -1.3704 -0.1704 -1.2301
   11MOL   H304 3524   3.999   4.258   5.455  0.8082  0.4618 -1.8183
   11MOL   H305 3525   3.902   4.167   5.345  1.2445 -0.5129  0.9956
   11MOL   C306 3526   3.678   4.312   5.779 -0.2298  0.3975 -0.2170
   11MOL   C307 3527   3.570   4.417   5.802 -0.6384  0.1507 -0.0378
   11MOL   O308 3528   3.467   4.360   5.887  0.7739 -0.3097  0.5777
   11MOL   C309 3529   3.382   4.454   5.948  0.0459 -0.1416 -0.5914
   11MOL   C310 3530   3.303   4.522   5.835 -0.7063 -0.2425 -0.3690
   11MOL   C311 3531   3.292   4.384   6.053 -0.1570 -0.1648  0.0809
   11MOL   H312 3532   3.724   4.278   5.872  0.2725 -0.3035 -0.7201
   11MOL   H313 3533   3.632   4.229   5.725  1.0372 -0.7450  0.4201
   11MOL   H314 3534   3.614   4.496   5.863 -0.6937  0.0899  0.0794
   11MOL   H315 3535   3.446   4.530   5.992 -2.3733  0.8444  1.2862
   11MOL   H316 3536   3.248   4.612   5.861  2.7810  1.9653 -0.2979
   11MOL   H317 3537   3.234   4.448   5.794  0.9362 -2.0041 -0.0337
   11MOL   H318 3538   3.367   4.572   5.762 -0.1434  0.2480  0.4555
   11MOL   H319 3539   3.230   4.466   6.091  0.9572  0.7410 -0.0406
   11MOL   H320 3540   3.358   4.334   6.124 -0.0543 -1.0979 -0.6737
   11MOL   H321 3541   3.237   4.303   6.006  1.9558 -0.5711 -1.7553
   11MOL   H322 3542   3.542   4.461   5.706  0.4659  0.2986 -0.3035
   12MOL     C1 3543   7.534   5.320   2.439 -0.2827  0.3106 -0.3209
   12MOL     C2 3544   7.536   5.351   2.588  0.0534  0.8040  0.3319
   12MOL     O3 3545   7.611   5.251   2.655  0.1547  0.5943  0.1431
   12MOL     C4 3546   7.597   5.241   2.795 -0.1924 -0.4303 -0.3104
   12MOL     C5 3547   7.725   5.158   2.845  0.4135 -0.8748  0.2242
   12MOL     C6 3548   7.469   5.162   2.842 -1.0018 -0.0324  0.2725
   12MOL     H7 3549   7.622   5.350   2.382 -0.2954  0.9467 -0.0037
   12MOL     H8 3550   7.541   5.211   2.432  1.4319  0.4116 -0.4262
   12MOL     H9 3551   7.432   5.338   2.620 -1.6279  0.6330 -4.7528
   12MOL    H10 3552   7.595   5.342   2.837 -3.5112 -0.3708 -0.4984
   12MOL    H11 3553   7.752   5.178   2.948 -0.6376  0.6296  0.2228
   12MOL    H12 3554   7.716   5.055   2.811 -1.8170 -0.3178 -1.0254
   12MOL    H13 3555   7.803   5.209   2.789 -0.0619 -1.2522 -0.8136
   12MOL    H14 3556   7.473   5.141   2.949 -0.8059  0.6014  0.3897
   12MOL    H15 3557   7.387   5.232   2.831 -0.3029  1.0283  1.6058
   12MOL    H16 3558   7.443   5.072   2.786  1.3255  0.4672 -1.6890
   12MOL    H17 3559   7.454   5.364   2.380  1.8574  2.6953 -1.5163
   12MOL    C18 3560   7.592   5.489   2.602  0.2533 -0.5016 -0.7138
   12MOL    C19 3561   7.516   5.612   2.544 -0.4667  0.3351  0.4872
   12MOL    O20 3562   7.615   5.718   2.544  0.4402  0.2963  0.0701
   12MOL    C21 3563   7.690   5.723   2.424  0.3158 -0.8214 -0.7932
   12MOL    C22 3564   0.015   5.754   2.469 -0.0020  0.7578 -0.3493
   12MOL    C23 3565   7.631   5.827   2.329  0.4574 -0.0120  0.1824
   12MOL    H24 3566   7.613   5.521   2.704  1.8497  0.3028 -1.2895
   12MOL    H25 3567   7.691   5.488   2.557  0.2376  2.9844 -0.9775
   12MOL    H26 3568   7.483   5.599   2.440  0.1639 -0.8851  0.4326
   12MOL    H27 3569   7.702   5.630   2.368  1.5220 -0.4399 -1.1892
   12MOL    H28 3570   0.028   5.848   2.523  0.8185  0.4357  0.0112
   12MOL    H29 3571   0.051   5.687   2.547 -0.3658  1.8302  0.7750
   12MOL    H30 3572   0.090   5.761   2.391  1.2668 -0.9591  0.6784
   12MOL    H31 3573   7.652   5.920   2.382  2.3493 -0.7851  0.8181
   12MOL    H32 3574   7.530   5.813   2.291 -0.9169  3.4551  2.2496
   12MOL    H33 3575   7.704   5.842   2.250 -0.2345  0.4331 -0.3718
   12MOL    C34 3576   7.395   5.646   2.628  0.3116 -0.0558  0.0690
   12MOL    C35 3577   7.292   5.750   2.577 -0.0340  0.3530 -0.2736
   12MOL    O36 3578   7.170   5.684   2.528 -0.4736 -0.0588  0.2624
   12MOL    C37 3579   7.165   5.652   2.384 -0.1923  0.1618  0.9720
   12MOL    C38 3580   7.065   5.537   2.349  0.5216  0.0831  0.0007
   12MOL    C39 3581   7.126   5.772   2.305  0.2110 -0.4167  0.2927
   12MOL    H40 3582   7.428   5.670   2.729  0.4857  1.7564 -0.4123
   12MOL    H41 3583   7.333   5.556   2.631  2.0331 -1.3227 -1.2293
   12MOL    H42 3584   7.337   5.807   2.495  3.3096 -0.4758  0.9111
   12MOL    H43 3585   7.264   5.618   2.354  0.0352  0.2994  1.5699
   12MOL    H44 3586   7.080   5.497   2.249  2.4438 -0.8502  0.6442
   12MOL    H45 3587   6.960   5.565   2.364 -0.2541 -1.8519 -1.6411
   12MOL    H46 3588   7.089   5.458   2.420 -1.9454 -0.4914  0.2547
   12MOL    H47 3589   7.217   5.831   2.298  0.8517 -1.5920 -1.9022
   12MOL    H48 3590   7.094   5.741   2.205 -0.2794  2.5166 -0.4938
   12MOL    H49 3591   7.048   5.827   2.358  0.2387 -0.0874 -0.0082
   12MOL    C50 3592   7.235   5.843   2.688 -0.9592  0.5022  0.1068
   12MOL    C51 3593   7.329   5.938   2.756  0.3538  0.2695  0.1345
   12MOL    O52 3594   7.245   6.028   2.834  0.8361  0.1604  0.1716
   12MOL    C53 3595   7.193   5.997   2.964 -0.5096 -0.1967 -0.0861
   12MOL    C54 3596   7.092   6.106   3.007  0.0876 -0.2952 -0.6227
   12MOL    C55 3597   7.297   5.999   3.075  0.3960  0.1098 -0.0003
   12MOL    H56 3598   7.146   5.891   2.646 -2.1101 -0.5552  1.2838
   12MOL    H57 3599   7.193   5.777   2.764 -1.8252 -0.4137 -1.1459
   12MOL    H58 3600   7.391   5.887   2.829 -0.3071  1.6085  1.6599
   12MOL    H59 3601   7.158   5.895   2.978  3.7283 -1.6328  0.8242
   12MOL    H60 3602   7.126   6.203   2.968  1.5440 -1.2970 -1.8991
   12MOL    H61 3603   7.062   6.114   3.111 -1.6201  1.1851 -1.1883
   12MOL    H62 3604   7.000   6.090   2.951  1.5756 -1.2070 -2.9178
   12MOL    H63 3605   7.254   6.003   3.176 -1.1067  0.2204 -0.6289
   12MOL    H64 3606   7.364   6.083   3.057  1.7201 -1.1375 -0.9774
   12MOL    H65 3607   7.361   5.912   3.063  0.9348  0.3428  1.1244
   12MOL    C66 3608   7.398   6.034   2.655 -0.2233 -0.1587 -0.8245
   12MOL    C67 3609   7.514   6.115   2.721 -0.4591  0.2515 -0.4373
   12MOL    O68 3610   7.517   6.237   2.656  0.1169 -0.0927 -0.2453
   12MOL    C69 3611   7.478   6.356   2.723 -0.0782  0.9147 -0.9919
   12MOL    C70 3612   7.503   6.465   2.617  0.2483 -0.2464  0.2321
   12MOL    C71 3613   7.335   6.366   2.766  0.0815 -0.2048 -0.8419
   12MOL    H72 3614   7.440   5.976   2.573 -0.9019 -1.5765 -0.1819
   12MOL    H73 3615   7.329   6.107   2.612  0.7057  1.8183  0.9330
   12MOL    H74 3616   7.490   6.110   2.827 -0.3376 -0.2640 -0.4321
   12MOL    H75 3617   7.551   6.366   2.804  1.4889  0.4412 -2.3061
   12MOL    H76 3618   7.430   6.452   2.538 -0.2698 -1.1391  0.8501
   12MOL    H77 3619   7.485   6.560   2.669 -2.7666 -0.4396 -0.3804
   12MOL    H78 3620   7.603   6.473   2.575  0.5187 -0.4553  0.8242
   12MOL    H79 3621   7.330   6.292   2.846 -3.0669 -0.6853 -1.4246
   12MOL    H80 3622   7.260   6.324   2.698 -0.7731 -1.1912  0.6857
   12MOL    H81 3623   7.317   6.463   2.812  1.9404 -0.9395  1.5785
   12MOL    C82 3624   7.655   6.055   2.708 -0.4051 -0.8239 -0.6176
   12MOL    C83 3625   7.764   6.127   2.790  0.2784 -0.8346  0.7668
   12MOL    O84 3626   7.730   6.113   2.926  0.1205 -0.8379  0.3415
   12MOL    C85 3627   7.783   6.194   3.032  0.7609  0.3924 -0.2611
   12MOL    C86 3628   7.770   6.118   3.168  0.3327 -0.4003 -0.6403
   12MOL    C87 3629   7.715   6.333   3.052 -0.6723 -0.2455 -0.5008
   12MOL    H88 3630   7.651   5.950   2.737 -0.7478 -0.8279 -0.6716
   12MOL    H89 3631   7.680   6.048   2.603 -2.6702  0.6005 -1.2849
   12MOL    H90 3632   7.767   6.235   2.771 -2.2187 -0.7226  0.9495
   12MOL    H91 3633   0.070   6.209   3.018  1.3242 -2.0165  1.1162
   12MOL    H92 3634   7.815   6.177   3.248 -0.4578 -0.6914  0.0281
   12MOL    H93 3635   7.664   6.095   3.179  0.4687  0.0412  1.8321
   12MOL    H94 3636   0.003   6.023   3.156  0.9824 -0.6307  3.3139
   12MOL    H95 3637   7.607   6.324   3.062 -0.5148 -3.0154 -0.8973
   12MOL    H96 3638   7.771   6.394   3.122 -0.4469 -2.5660  1.3917
   12MOL    H97 3639   7.730   6.390   2.960  0.9429  0.6659  0.3289
   12MOL    C98 3640   0.088   6.073   2.766  0.6764 -0.6036  0.3015
   12MOL    C99 3641   0.156   6.121   2.634 -0.4306  0.7357 -0.9890
   12MOL   O100 3642   0.293   6.078   2.641  0.5225 -0.0916  0.3064
   12MOL   C101 3643   0.316   5.938   2.608 -0.3289  0.1395 -0.1381
   12MOL   C102 3644   0.371   5.871   2.734  0.7193 -0.1160  1.1546
   12MOL   C103 3645   0.411   5.923   2.487 -0.2930 -0.0193 -0.2833
   12MOL   H104 3646   0.156   6.096   2.848 -0.9704  2.1752  0.9247
   12MOL   H105 3647   0.084   5.964   2.760  1.0685 -0.5385 -1.2530
   12MOL   H106 3648   0.098   6.094   2.546 -0.7797 -0.3312 -0.4426
   12MOL   H107 3649   0.221   5.888   2.590  0.8985 -2.8450  1.3822
   12MOL   H108 3650   0.393   5.766   2.711  0.9129 -0.1531  1.5044
   12MOL   H109 3651   0.299   5.874   2.815 -0.0663 -1.8037  0.5565
   12MOL   H110 3652   0.461   5.925   2.763 -0.1848  0.9844  1.9801
   12MOL   H111 3653   0.450   5.822   2.499 -1.9270 -0.2929  3.5737
   12MOL   H112 3654   0.492   5.995   2.484 -0.6505  0.3249 -2.2586
   12MOL   H113 3655   0.360   5.913   2.391 -0.6955  3.3442 -0.4559
   12MOL   C114 3656   0.162   6.275   2.628 -0.0104  0.4098  0.0182
   12MOL   C115 3657   0.244   6.331   2.512 -0.1137 -0.5020  0.7145
   12MOL   O116 3658   0.191   6.288   2.391  0.5036  0.1896  0.0195
   12MOL   C117 3659   0.278   6.225   2.294  0.0759  0.1693 -0.2365
   12MOL   C118 3660   0.336   6.330   2.203  0.0703 -0.2483 -0.0814
   12MOL   C119 3661   0.184   6.143   2.216 -0.1913  0.3212 -0.5059
   12MOL   H120 3662   0.209   6.311   2.720 -1.3988  1.3483  0.3742
   12MOL   H121 3663   0.060   6.313   2.639 -0.4680 -1.0579  0.9418
   12MOL   H122 3664   0.347   6.296   2.525  0.2903  0.2036 -0.5248
   12MOL   H123 3665   0.350   6.166   2.350 -3.1843 -1.5933  2.2531
   12MOL   H124 3666   0.385   6.412   2.255  1.0859 -1.2824  0.6226
   12MOL   H125 3667   0.264   6.368   2.130  1.0671  2.2682  0.1886
   12MOL   H126 3668   0.415   6.272   2.154  0.1937 -0.7044  0.6503
   12MOL   H127 3669   0.228   6.064   2.156 -1.5687  0.9141 -2.3280
   12MOL   H128 3670   0.133   6.202   2.140 -0.8591 -0.3263 -0.5585
   12MOL   H129 3671   0.112   6.100   2.286 -1.8761  0.2969 -2.2095
   12MOL   C130 3672   0.255   6.484   2.497  0.6775 -0.1273 -0.0819
   12MOL   C131 3673   0.279   6.563   2.623  0.8191 -1.0833  0.1267
   12MOL   O132 3674   0.243   6.699   2.583  0.2931 -0.0196  0.4504
   12MOL   C133 3675   0.103   6.734   2.553 -0.5616 -0.4563 -0.5620
   12MOL   C134 3676   0.045   6.842   2.646  0.4108  0.7223  0.3014
   12MOL   C135 3677   0.078   6.772   2.406  0.6314 -0.1584 -0.3480
   12MOL   H136 3678   0.165   6.518   2.447 -0.4634 -1.8308  0.7562
   12MOL   H137 3679   0.333   6.504   2.424 -0.0734 -1.2537 -1.1985
   12MOL   H138 3680   0.209   6.533   2.701 -0.5496  1.0469 -0.2323
   12MOL   H139 3681   0.032   6.653   2.567 -1.2691  0.1845 -0.4179
   12MOL   H140 3682   7.776   6.889   2.605 -1.1230 -0.7619  1.8622
   12MOL   H141 3683   0.121   6.920   2.648  1.7996 -0.5889 -0.5173
   12MOL   H142 3684   0.029   6.810   2.748 -2.4968  1.6027  0.1648
   12MOL   H143 3685   0.062   6.684   2.343 -0.6043  0.7366 -1.3278
   12MOL   H144 3686   7.811   6.837   2.399 -0.5224 -1.6201  0.2395
   12MOL   H145 3687   0.166   6.821   2.365  0.4912 -1.4112 -2.2137
   12MOL   C146 3688   0.426   6.550   2.666  0.3034  0.4417  0.6178
   12MOL   C147 3689   0.440   6.627   2.802  0.5357  0.2073  0.1886
   12MOL   O148 3690   0.399   6.533   2.897 -0.0120  0.9386 -0.3160
   12MOL   C149 3691   0.305   6.579   2.997 -0.3903  0.4156  0.4324
   12MOL   C150 3692   0.337   6.507   3.131  0.2194 -0.2015  0.4247
   12MOL   C151 3693   0.157   6.536   2.964  0.8690  0.2576 -0.1294
   12MOL   H152 3694   0.492   6.608   2.600 -0.2932  0.4982  0.0667
   12MOL   H153 3695   0.463   6.448   2.675  1.5281  0.8367  0.1739
   12MOL   H154 3696   0.364   6.704   2.785  3.5625  2.7780 -2.3114
   12MOL   H155 3697   0.312   6.688   3.006  1.8609  0.3142  0.0292
   12MOL   H156 3698   0.289   6.546   3.220  1.5037  1.3231  0.4768
   12MOL   H157 3699   0.446   6.502   3.141  0.6609  4.2588 -0.9046
   12MOL   H158 3700   0.308   6.403   3.119  0.2090  0.0052 -1.6580
   12MOL   H159 3701   0.129   6.591   2.874  0.5383  1.3626  0.6373
   12MOL   H160 3702   0.089   6.560   3.046  1.4249 -0.2678  0.4879
   12MOL   H161 3703   0.155   6.430   2.938  2.1936 -0.0451  0.9625
   12MOL   C162 3704   0.579   6.699   2.832  0.5458  0.9654 -0.1491
   12MOL   C163 3705   0.711   6.643   2.757 -0.3748  0.0332  0.5740
   12MOL   O164 3706   0.816   6.736   2.811 -0.8171  0.6284 -0.4299
   12MOL   C165 3707   0.819   6.847   2.727  0.4046  0.1775  0.0656
   12MOL   C166 3708   0.937   6.835   2.629  0.0966  0.1304  0.4417
   12MOL   C167 3709   0.827   6.962   2.827  0.3928 -0.2776 -0.4727
   12MOL   H168 3710   0.568   6.803   2.801 -0.8067  0.8885  0.0139
   12MOL   H169 3711   0.593   6.705   2.940 -0.5949  0.0515  0.0575
   12MOL   H170 3712   0.701   6.652   2.648 -3.8657 -1.9505  0.6424
   12MOL   H171 3713   0.731   6.866   2.666  0.7337  1.6446  0.0402
   12MOL   H172 3714   1.019   6.785   2.682 -1.4544 -1.1898  1.6626
   12MOL   H173 3715   0.972   6.929   2.587 -0.0402 -0.1467 -0.3102
   12MOL   H174 3716   0.901   6.768   2.551  2.6261  0.4183 -1.0495
   12MOL   H175 3717   0.756   6.968   2.910  0.0736 -0.7463 -0.7120
   12MOL   H176 3718   0.835   7.055   2.770  1.7511 -0.8076 -1.1574
   12MOL   H177 3719   0.930   6.962   2.863 -0.0272  1.3792  0.8251
   12MOL   C178 3720   0.752   6.504   2.814  0.4764  0.4655 -0.1143
   12MOL   C179 3721   0.820   6.413   2.709 -0.4538  0.1059  0.0589
   12MOL   O180 3722   0.734   6.393   2.599 -0.7356  0.0205  0.1267
   12MOL   C181 3723   0.707   6.260   2.558 -0.7191 -0.7729 -0.3153
   12MOL   C182 3724   0.644   6.270   2.418  0.2292  0.2453  0.2322
   12MOL   C183 3725   0.613   6.196   2.669 -0.4383  0.4462  1.1621
   12MOL   H184 3726   0.659   6.459   2.849  0.7270 -0.6940 -0.9240
   12MOL   H185 3727   0.817   6.503   2.902  0.5358 -2.6320 -0.1462
   12MOL   H186 3728   0.852   6.321   2.758 -2.7709 -0.9405 -0.3114
   12MOL   H187 3729   0.800   6.203   2.561 -0.1203  0.2399  2.9653
   12MOL   H188 3730   0.713   6.308   2.343 -0.8371  2.2102  0.2065
   12MOL   H189 3731   0.561   6.339   2.433  0.4433  0.2440  1.4539
   12MOL   H190 3732   0.594   6.179   2.384 -0.9244  1.1808 -0.6441
   12MOL   H191 3733   0.639   6.234   2.767  1.2127 -0.6812  1.1912
   12MOL   H192 3734   0.612   6.088   2.655  0.7391  0.6498 -0.7354
   12MOL   H193 3735   0.511   6.225   2.643 -1.2543 -0.8310  2.8368
   12MOL   C194 3736   0.952   6.485   2.650  0.1627 -0.2283 -0.4237
   12MOL   C195 3737   1.047   6.378   2.578 -0.7799  0.1022 -0.0151
   12MOL   O196 3738   1.134   6.326   2.678  0.8614 -0.8249  0.5570
   12MOL   C197 3739   1.144   6.185   2.676  0.0270 -0.0516  0.6743
   12MOL   C198 3740   1.279   6.135   2.611  0.2286 -0.2138 -0.5108
   12MOL   C199 3741   1.153   6.148   2.819  0.2428 -0.8786  0.3367
   12MOL   H200 3742   0.926   6.562   2.578  1.4651  1.3662  0.7755
   12MOL   H201 3743   1.004   6.544   2.725 -1.8003  2.7237 -1.3290
   12MOL   H202 3744   0.992   6.300   2.524  0.0920  0.7946 -1.9604
   12MOL   H203 3745   1.054   6.141   2.634 -0.1019 -0.2732  1.1715
   12MOL   H204 3746   1.282   6.136   2.502 -0.6244 -2.6067 -0.5791
   12MOL   H205 3747   1.368   6.181   2.653 -1.4741  2.3202  0.4928
   12MOL   H206 3748   1.293   6.029   2.632  1.5739  0.1718  0.6597
   12MOL   H207 3749   1.238   6.195   2.869  0.8896 -0.7038 -0.9179
   12MOL   H208 3750   1.071   6.187   2.879  2.1745 -1.2790  3.3600
   12MOL   H209 3751   1.162   6.040   2.834 -3.9990 -1.0772  2.2007
   12MOL   C210 3752   1.143   6.436   2.473  0.6808  0.0816  0.1748
   12MOL   C211 3753   1.095   6.535   2.357  0.6804 -0.4324  0.0701
   12MOL   O212 3754   1.197   6.567   2.261 -0.7580 -0.3506 -0.3986
   12MOL   C213 3755   1.286   6.671   2.291  0.3198  0.4913 -0.5521
   12MOL   C214 3756   1.411   6.645   2.214  0.4546 -0.1151 -0.0382
   12MOL   C215 3757   1.208   6.804   2.251 -0.3736 -0.2550  0.1832
   12MOL   H216 3758   1.203   6.359   2.425  0.6682  0.2201 -0.0636
   12MOL   H217 3759   1.224   6.493   2.519  2.2336  0.2221 -2.6602
   12MOL   H218 3760   1.078   6.629   2.408  0.3106  0.8055 -2.2723
   12MOL   H219 3761   1.315   6.688   2.394 -0.5728  1.1541 -0.4002
   12MOL   H220 3762   1.374   6.647   2.112 -1.9461 -1.4375  0.7657
   12MOL   H221 3763   1.452   6.546   2.236 -1.0844 -1.0412 -1.2511
   12MOL   H222 3764   1.494   6.713   2.232  0.7484 -0.4612 -0.0727
   12MOL   H223 3765   1.278   6.888   2.245 -0.8140  0.1703  0.8260
   12MOL   H224 3766   1.135   6.837   2.325 -1.6158  1.9944 -1.9899
   12MOL   H225 3767   1.149   6.796   2.160 -0.6012  0.4219  0.2651
   12MOL   C226 3768   0.977   6.487   2.272 -0.1560  0.3521  0.1987
   12MOL   C227 3769   0.918   6.569   2.156  0.0377 -0.1500  1.0201
   12MOL   O228 3770   0.781   6.576   2.176  0.1911 -0.2057  0.0461
   12MOL   C229 3771   0.733   6.676   2.261 -0.3419 -0.5301  0.5334
   12MOL   C230 3772   0.592   6.636   2.298  0.1779 -0.4632 -0.2886
   12MOL   C231 3773   0.740   6.818   2.197  0.1590 -0.2673  0.3120
   12MOL   H232 3774   0.899   6.463   2.345 -0.0078 -2.5081 -0.5449
   12MOL   H233 3775   0.984   6.388   2.227 -1.1080  0.1777  0.4391
   12MOL   H234 3776   0.960   6.670   2.158 -1.8162  0.6853 -0.4312
   12MOL   H235 3777   0.793   6.671   2.351  1.1379  0.7157 -0.3596
   12MOL   H236 3778   0.543   6.594   2.210  1.0113  0.3382 -1.1595
   12MOL   H237 3779   0.594   6.551   2.366 -0.1154  0.0222  0.3312
   12MOL   H238 3780   0.532   6.712   2.347  2.3193  0.0578  1.5797
   12MOL   H239 3781   0.684   6.824   2.104  0.4666  0.7387  0.1907
   12MOL   H240 3782   0.838   6.856   2.170  0.2025 -2.3261 -2.6763
   12MOL   H241 3783   0.702   6.887   2.272 -0.1332  0.5458 -0.5689
   12MOL   C242 3784   0.947   6.496   2.018 -0.6629  0.7260  0.3438
   12MOL   C243 3785   0.917   6.573   1.887  0.2075 -0.2809  0.1284
   12MOL   O244 3786   0.996   6.691   1.872  0.2310 -0.3429  0.0546
   12MOL   C245 3787   1.039   6.708   1.734  0.1693 -0.0051  0.5400
   12MOL   C246 3788   1.019   6.857   1.711 -0.2312  0.1668  0.6164
   12MOL   C247 3789   1.181   6.672   1.716 -0.5994 -0.7862  0.2290
   12MOL   H248 3790   1.051   6.466   2.012 -0.4971  1.4003 -0.2931
   12MOL   H249 3791   0.881   6.409   2.020 -0.1954  0.3914  3.5740
   12MOL   H250 3792   0.952   6.507   1.807  4.3154 -0.3424  1.8709
   12MOL   H251 3793   0.983   6.649   1.661 -0.1714  0.0742  0.7350
   12MOL   H252 3794   1.048   6.881   1.609  0.9190  2.1393  1.3798
   12MOL   H253 3795   0.912   6.876   1.723  0.5256  2.7624  3.9253
   12MOL   H254 3796   1.080   6.913   1.782 -1.2115  1.5578  0.3943
   12MOL   H255 3797   1.223   6.715   1.624 -2.1247 -3.0083 -1.5698
   12MOL   H256 3798   1.241   6.711   1.798 -1.2333  1.2321 -0.2356
   12MOL   H257 3799   1.192   6.564   1.715 -3.0276 -1.0591  0.6996
   12MOL   C258 3800   0.772   6.603   1.854 -0.0789  0.3719 -0.4461
   12MOL   C259 3801   0.700   6.492   1.770  0.0163  0.0197 -0.2199
   12MOL   O260 3802   0.607   6.546   1.677 -0.5998 -0.5468 -0.1017
   12MOL   C261 3803   0.652   6.610   1.558 -0.0712 -0.3365  1.0063
   12MOL   C262 3804   0.646   6.513   1.445 -0.6934 -0.1443  0.2095
   12MOL   C263 3805   0.585   6.752   1.538  0.5414  0.0132 -0.3831
   12MOL   H264 3806   0.715   6.635   1.941  0.5702 -0.2926  0.2310
   12MOL   H265 3807   0.766   6.688   1.786 -0.3753  0.1822 -0.6572
   12MOL   H266 3808   0.782   6.440   1.721  0.7482 -0.6854  1.6900
   12MOL   H267 3809   0.760   6.624   1.564 -0.0331 -0.8318  1.5520
   12MOL   H268 3810   0.676   6.567   1.355 -4.3633  0.8604 -0.4881
   12MOL   H269 3811   0.542   6.481   1.435 -0.6265 -0.1266 -0.6160
   12MOL   H270 3812   0.713   6.428   1.459 -2.0366 -1.4284 -0.9987
   12MOL   H271 3813   0.477   6.749   1.551  0.4436  2.0030 -0.5370
   12MOL   H272 3814   0.629   6.829   1.601  2.2525  0.0146 -1.5343
   12MOL   H273 3815   0.604   6.790   1.437 -0.7110  0.8632 -0.3090
   12MOL   C274 3816   0.621   6.395   1.864 -0.5893  0.3015  0.0584
   12MOL   C275 3817   0.573   6.257   1.805  0.1390 -0.3487 -0.6382
   12MOL   O276 3818   0.517   6.166   1.910  0.0698 -0.4646 -0.1756
   12MOL   C277 3819   0.615   6.066   1.943  0.2523  0.5051  0.3783
   12MOL   C278 3820   0.542   5.970   2.030 -0.0327 -0.2949  0.0108
   12MOL   C279 3821   0.743   6.120   2.005  0.3627  0.1607  0.2998
   12MOL   H280 3822   0.678   6.366   1.952 -3.8101 -0.6038  1.9345
   12MOL   H281 3823   0.540   6.442   1.920 -0.0333  1.9393 -0.4623
   12MOL   H282 3824   0.656   6.210   1.753 -0.1630 -1.2830 -0.2784
   12MOL   H283 3825   0.647   6.008   1.856 -2.9921  0.6976 -1.0378
   12MOL   H284 3826   0.461   5.929   1.970  1.2552 -2.2220 -0.4776
   12MOL   H285 3827   0.607   5.885   2.054 -0.7238 -1.0444 -0.7581
   12MOL   H286 3828   0.504   6.023   2.117 -1.7970  1.2218 -1.6544
   12MOL   H287 3829   0.734   6.172   2.100 -0.6377  1.1409 -0.3335
   12MOL   H288 3830   0.815   6.183   1.952  1.2372 -1.0418  0.0236
   12MOL   H289 3831   0.797   6.037   2.053 -1.2291 -0.7317  0.5696
   12MOL   C290 3832   0.453   6.270   1.705  0.4906 -0.4638 -0.0134
   12MOL   C291 3833   0.322   6.339   1.759  0.0122  0.7490  0.3987
   12MOL   O292 3834   0.230   6.375   1.660 -0.0790  0.0203  0.5327
   12MOL   C293 3835   0.258   6.501   1.594  0.4215 -0.1593 -0.6047
   12MOL   C294 3836   0.172   6.610   1.660  0.0195 -0.1585 -0.4585
   12MOL   C295 3837   0.218   6.471   1.447  0.5461 -0.1210  0.8459
   12MOL   H296 3838   0.433   6.172   1.663  3.8489 -0.0875 -2.6959
   12MOL   H297 3839   0.491   6.324   1.618 -1.5373 -1.5230 -1.6103
   12MOL   H298 3840   0.347   6.431   1.810  0.4685  1.5834 -1.2725
   12MOL   H299 3841   0.364   6.524   1.602  0.0365  1.4898  0.0023
   12MOL   H300 3842   0.216   6.653   1.750 -4.2452 -2.3688  2.8650
   12MOL   H301 3843   0.162   6.693   1.590  1.3183  1.9164  1.7404
   12MOL   H302 3844   0.072   6.581   1.692 -0.0371  0.2022 -0.2985
   12MOL   H303 3845   0.272   6.381   1.419  0.2937  0.3996 -1.4329
   12MOL   H304 3846   0.111   6.480   1.426  0.8990  2.1103 -0.0965
   12MOL   H305 3847   0.259   6.545   1.378  0.0775 -2.3540 -1.9262
   12MOL   C306 3848   0.235   6.250   1.859 -0.6627  0.3646 -0.5138
   12MOL   C307 3849   0.195   6.111   1.818  0.0022 -0.3592 -0.6892
   12MOL   O308 3850   0.085   6.074   1.905 -0.4392  0.1927  0.1254
   12MOL   C309 3851   0.035   5.942   1.874  0.6011  0.7948  0.4928
   12MOL   C310 3852   0.129   5.827   1.905 -0.2661  0.0914  0.4842
   12MOL   C311 3853   7.722   5.922   1.953  0.3215 -0.8723 -0.0569
   12MOL   H312 3854   0.147   6.308   1.886  0.3641  2.7940 -2.1765
   12MOL   H313 3855   0.304   6.243   1.943 -0.8210 -2.6640 -0.5685
   12MOL   H314 3856   0.169   6.115   1.713  1.0426  0.2804 -0.9285
   12MOL   H315 3857   0.012   5.934   1.768  1.1626  0.8366  0.3706
   12MOL   H316 3858   0.087   5.734   1.867 -1.0210  0.9515 -0.8764
   12MOL   H317 3859   0.159   5.815   2.009  2.1684 -0.0601 -0.2189
   12MOL   H318 3860   0.228   5.834   1.860  0.1654 -0.5848  1.3165
   12MOL   H319 3861   7.731   5.917   2.061 -0.2008  0.9107  0.0848
   12MOL   H320 3862   7.673   5.828   1.926  2.8531 -2.6040  1.1557
   12MOL   H321 3863   7.650   6.002   1.940 -0.1536 -1.2791  0.0352
   12MOL   H322 3864   0.290   6.061   1.838 -0.2626  0.0580  1.8067
   13MOL     C1 3865   6.986   3.958   2.587 -0.1991  0.0763  0.2038
   13MOL     C2 3866   7.096   3.858   2.606  0.1149 -0.6567  0.0322
   13MOL     O3 3867   7.047   3.761   2.702  0.5571 -0.3300  0.4054
   13MOL     C4 3868   7.119   3.740   2.814 -0.5452 -0.2711 -0.4562
   13MOL     C5 3869   7.233   3.636   2.791 -0.1161  0.2781  0.0703
   13MOL     C6 3870   7.021   3.683   2.920  0.0426  0.0371  0.3928
   13MOL     H7 3871   6.976   4.019   2.677 -0.0331  1.0243 -0.4123
   13MOL     H8 3872   7.001   4.022   2.500  0.2748 -0.8063 -0.3768
   13MOL     H9 3873   7.189   3.900   2.644 -0.9606  0.7131  1.2793
   13MOL    H10 3874   7.153   3.839   2.844 -1.3503 -0.7963  2.3124
   13MOL    H11 3875   7.288   3.618   2.884  1.9968  1.0981 -0.9982
   13MOL    H12 3876   7.205   3.544   2.741 -2.9237  0.9516  0.3432
   13MOL    H13 3877   7.310   3.685   2.732 -0.5609 -1.8790 -2.3879
   13MOL    H14 3878   6.971   3.592   2.889  2.6309 -0.3004 -3.0925
   13MOL    H15 3879   7.065   3.680   3.020  1.2699 -0.8772 -0.1672
   13MOL    H16 3880   6.939   3.753   2.937 -0.9926 -0.8013 -1.0020
   13MOL    H17 3881   6.893   3.907   2.562  0.0269  0.5240 -1.6628
   13MOL    C18 3882   7.135   3.785   2.476 -0.2224  0.0857 -0.1262
   13MOL    C19 3883   7.226   3.861   2.380 -0.0779 -0.0698  0.5484
   13MOL    O20 3884   7.226   3.776   2.267 -0.2755  0.0051 -0.5367
   13MOL    C21 3885   7.111   3.754   2.189 -0.1699  0.7245 -0.1644
   13MOL    C22 3886   7.116   3.596   2.169 -0.0334 -0.5878 -0.7548
   13MOL    C23 3887   7.115   3.824   2.055 -0.3747 -0.0711  0.1572
   13MOL    H24 3888   7.199   3.702   2.505  1.5918  1.4292 -0.2035
   13MOL    H25 3889   7.038   3.754   2.436 -0.4352  2.5846 -1.6511
   13MOL    H26 3890   7.172   3.949   2.346  0.1801 -1.6673 -4.3203
   13MOL    H27 3891   7.016   3.772   2.239  1.3140  0.2423  2.9523
   13MOL    H28 3892   7.036   3.560   2.105 -0.9101  0.7216 -0.4078
   13MOL    H29 3893   7.214   3.570   2.128  1.6876  0.6896  2.3605
   13MOL    H30 3894   7.108   3.544   2.265 -0.3827  1.9895  0.6501
   13MOL    H31 3895   7.216   3.815   2.015  0.9747  2.5580  2.8131
   13MOL    H32 3896   7.078   3.927   2.055  0.2906  0.1735 -0.9631
   13MOL    H33 3897   7.050   3.776   1.982  0.8117 -0.3270 -0.7356
   13MOL    C34 3898   7.366   3.888   2.434 -0.3276  0.1588  0.7422
   13MOL    C35 3899   7.403   4.036   2.441 -0.3172  0.0144  0.0079
   13MOL    O36 3900   7.345   4.095   2.559  0.0066  0.2839 -0.4812
   13MOL    C37 3901   7.345   4.235   2.552  0.6261  0.0105  0.1347
   13MOL    C38 3902   7.200   4.269   2.504  0.0528  0.2271  1.3059
   13MOL    C39 3903   7.376   4.285   2.696  0.0204  0.4735  0.5764
   13MOL    H40 3904   7.436   3.839   2.366  1.0993  0.9405  1.6322
   13MOL    H41 3905   7.386   3.848   2.534  2.0602  2.2292  1.1385
   13MOL    H42 3906   7.370   4.086   2.350  0.7722 -0.8389 -0.8623
   13MOL    H43 3907   7.421   4.281   2.489  0.7738  0.4860  0.6601
   13MOL    H44 3908   7.181   4.215   2.411 -0.6533 -0.5863  1.9130
   13MOL    H45 3909   7.184   4.375   2.483  0.9847  0.1072 -0.0925
   13MOL    H46 3910   7.126   4.229   2.574  0.5835 -0.4595  1.4795
   13MOL    H47 3911   7.333   4.230   2.780  0.7105 -0.4647  0.3222
   13MOL    H48 3912   7.484   4.284   2.711  0.1960 -1.6474 -0.5382
   13MOL    H49 3913   7.346   4.386   2.721  0.4702  0.3568  1.6415
   13MOL    C50 3914   7.557   4.043   2.447 -0.1330  0.6408 -0.8361
   13MOL    C51 3915   7.627   4.105   2.324  0.0148 -0.0011  0.3848
   13MOL    O52 3916   7.597   3.999   2.230  0.0663  0.2925  0.0515
   13MOL    C53 3917   7.587   4.030   2.092 -0.1973 -0.3356  0.2016
   13MOL    C54 3918   7.451   4.080   2.062  0.4514 -0.4697  0.0374
   13MOL    C55 3919   7.643   3.909   2.020  0.4250  0.5936  0.3463
   13MOL    H56 3920   7.582   4.105   2.533 -0.8231  1.4659 -1.2099
   13MOL    H57 3921   7.603   3.949   2.475 -2.5492 -0.3298  0.0438
   13MOL    H58 3922   7.581   4.201   2.299 -1.7126 -1.0155 -0.4878
   13MOL    H59 3923   7.643   4.122   2.076 -0.7864 -0.2729 -1.5891
   13MOL    H60 3924   7.378   3.999   2.061  0.8886 -0.8668  0.2117
   13MOL    H61 3925   7.443   4.120   1.961  0.8138  1.6036  0.8010
   13MOL    H62 3926   7.421   4.167   2.119  2.4943  0.2640  0.0334
   13MOL    H63 3927   7.730   3.869   2.072  1.6325  2.3396 -0.2974
   13MOL    H64 3928   7.659   3.927   1.914  1.3792 -2.2481 -0.0219
   13MOL    H65 3929   7.572   3.826   2.029  1.8475 -0.5875  0.8152
   13MOL    C66 3930   7.778   4.133   2.334 -0.2436 -0.4650  0.0163
   13MOL    C67 3931   7.819   4.258   2.416  0.0998 -0.2129  0.8376
   13MOL    O68 3932   7.787   4.371   2.335  0.3496 -0.0052 -0.4222
   13MOL    C69 3933   7.721   4.482   2.401 -0.5601 -0.4736  0.8369
   13MOL    C70 3934   0.012   4.562   2.472  0.3899  0.3501  0.1220
   13MOL    C71 3935   7.660   4.579   2.300 -0.7883  0.5000 -0.3267
   13MOL    H72 3936   0.005   4.048   2.384  0.0991 -0.4853 -0.3412
   13MOL    H73 3937   0.002   4.131   2.235  2.4693  1.0815  1.1567
   13MOL    H74 3938   7.763   4.256   2.510 -0.7349  1.7727  0.4007
   13MOL    H75 3939   7.647   4.435   2.466 -1.8134 -1.3628 -1.1933
   13MOL    H76 3940   7.797   4.660   2.504 -2.3877 -0.3102 -0.8008
   13MOL    H77 3941   0.046   4.507   2.560  0.0371 -0.0499  0.0075
   13MOL    H78 3942   0.103   4.568   2.412  1.1933 -3.8599  0.8024
   13MOL    H79 3943   7.610   4.665   2.343  0.7370  0.4464  1.6166
   13MOL    H80 3944   7.586   4.540   2.231  1.3154  0.7840 -2.8640
   13MOL    H81 3945   7.737   4.614   2.231 -1.5478  1.0513 -0.9068
   13MOL    C82 3946   0.148   4.251   2.453 -0.0645 -0.2658 -0.3135
   13MOL    C83 3947   0.174   4.198   2.595  0.2608 -0.3874 -0.2876
   13MOL    O84 3948   0.103   4.071   2.614  0.1755  0.0246 -0.2721
   13MOL    C85 3949   0.085   4.026   2.744  0.1235 -0.3379 -0.0849
   13MOL    C86 3950   0.076   3.869   2.744 -0.3705  0.7330  0.0368
   13MOL    C87 3951   7.775   4.086   2.804  0.1317  0.0079  0.4777
   13MOL    H88 3952   0.212   4.205   2.377 -1.5211 -3.3579  0.2487
   13MOL    H89 3953   0.181   4.355   2.450  2.6846 -1.1314 -1.8233
   13MOL    H90 3954   0.129   4.269   2.664 -1.8667 -1.1248 -0.8718
   13MOL    H91 3955   0.166   4.064   2.807 -0.8875  1.5918  0.0721
   13MOL    H92 3956   0.175   3.829   2.727  0.2477  2.7399 -1.2407
   13MOL    H93 3957   0.044   3.823   2.837  0.4709 -1.4538 -0.7239
   13MOL    H94 3958   0.003   3.837   2.670  1.1732  2.4436 -2.2935
   13MOL    H95 3959   7.769   4.194   2.790 -0.4330  0.4490  3.6043
   13MOL    H96 3960   7.695   4.044   2.744  0.5248  0.5767 -0.4514
   13MOL    H97 3961   7.776   4.077   2.913 -1.2281  2.0560  0.6911
   13MOL    C98 3962   0.329   4.179   2.616 -0.2066  0.2805 -0.3110
   13MOL    C99 3963   0.419   4.300   2.588  0.4479 -0.5830 -0.4994
   13MOL   O100 3964   0.547   4.252   2.612  0.2792  0.1843 -0.5676
   13MOL   C101 3965   0.619   4.173   2.515 -0.0893 -0.2042 -0.1012
   13MOL   C102 3966   0.685   4.055   2.595 -0.0507  0.0862 -0.1128
   13MOL   C103 3967   0.715   4.264   2.434 -0.2708 -1.0920  0.1509
   13MOL   H104 3968   0.361   4.140   2.712  0.8688  1.9977  0.0523
   13MOL   H105 3969   0.355   4.106   2.539  1.1954 -0.8988  1.2474
   13MOL   H106 3970   0.418   4.328   2.482 -1.2453  2.6162  0.2773
   13MOL   H107 3971   0.554   4.134   2.436  0.1968 -1.2790  0.1912
   13MOL   H108 3972   0.608   3.993   2.640 -1.3726  1.5518 -0.3267
   13MOL   H109 3973   0.752   4.099   2.668 -0.5891  1.6038 -0.5157
   13MOL   H110 3974   0.743   3.984   2.536 -0.0784 -0.4781  0.5318
   13MOL   H111 3975   0.796   4.313   2.487  0.2202 -0.1631 -1.4027
   13MOL   H112 3976   0.671   4.352   2.386 -1.4487 -3.8450 -4.1348
   13MOL   H113 3977   0.766   4.206   2.357 -1.5532 -1.5869 -0.3385
   13MOL   C114 3978   0.381   4.422   2.672 -0.0866  0.1302 -0.1611
   13MOL   C115 3979   0.377   4.561   2.605  0.2273  0.4831 -0.7720
   13MOL   O116 3980   0.357   4.655   2.706  0.3756  0.3586 -0.7486
   13MOL   C117 3981   0.227   4.687   2.745 -0.0378 -0.7103 -0.2652
   13MOL   C118 3982   0.195   4.818   2.675  0.2708  0.0942 -0.7020
   13MOL   C119 3983   0.225   4.718   2.898 -0.0389 -0.1806 -0.0316
   13MOL   H120 3984   0.439   4.411   2.764  1.5080  0.0461 -1.1529
   13MOL   H121 3985   0.278   4.407   2.705  0.7654 -0.8694  2.2267
   13MOL   H122 3986   0.297   4.578   2.533  0.3818  3.3417 -0.2980
   13MOL   H123 3987   0.162   4.601   2.729 -1.0067 -0.2338  0.9879
   13MOL   H124 3988   0.092   4.854   2.686  0.5598  0.5532  0.6269
   13MOL   H125 3989   0.212   4.801   2.569  0.0699 -0.9565 -0.5711
   13MOL   H126 3990   0.253   4.907   2.701 -0.3983  0.5025 -0.5932
   13MOL   H127 3991   0.260   4.640   2.967  0.3434 -0.7714 -0.8787
   13MOL   H128 3992   0.126   4.747   2.932 -0.7154 -1.6815 -0.6579
   13MOL   H129 3993   0.295   4.799   2.916 -1.0348  0.7897 -0.5356
   13MOL   C130 3994   0.511   4.600   2.546  0.2453 -0.0013  0.4626
   13MOL   C131 3995   0.506   4.717   2.445 -0.5632 -0.2806  0.5347
   13MOL   O132 3996   0.433   4.681   2.326 -0.0566  0.6087  0.5399
   13MOL   C133 3997   0.396   4.793   2.249 -0.0923 -1.1126  0.1693
   13MOL   C134 3998   0.429   4.768   2.101  0.9437 -0.5234 -0.6805
   13MOL   C135 3999   0.246   4.803   2.259  0.1666  0.5648  0.2481
   13MOL   H136 4000   0.553   4.514   2.493 -1.3444  0.6455 -1.9024
   13MOL   H137 4001   0.571   4.625   2.633  0.4472 -0.9704  0.6110
   13MOL   H138 4002   0.459   4.800   2.498  0.6030 -0.2837  1.6143
   13MOL   H139 4003   0.437   4.890   2.278 -0.7815 -0.5561 -0.6861
   13MOL   H140 4004   0.393   4.854   2.045  0.2857 -1.1811 -1.2880
   13MOL   H141 4005   0.382   4.678   2.061  1.3689 -1.1917  0.2901
   13MOL   H142 4006   0.538   4.760   2.094  1.0624 -0.2819  0.7990
   13MOL   H143 4007   0.201   4.871   2.186 -0.2507 -0.0327 -0.0494
   13MOL   H144 4008   0.199   4.708   2.236  1.4033 -0.0780  0.3715
   13MOL   H145 4009   0.224   4.816   2.365  1.1891 -0.7563  0.6355
   13MOL   C146 4010   0.644   4.771   2.403  0.2648 -0.4916  0.2830
   13MOL   C147 4011   0.714   4.875   2.491 -0.2399  0.1257 -0.6436
   13MOL   O148 4012   0.735   4.805   2.614  0.1566  0.1503 -0.4407
   13MOL   C149 4013   0.750   4.876   2.736  0.0530  0.2615 -0.2530
   13MOL   C150 4014   0.874   4.812   2.800  0.6733  0.3099 -0.8974
   13MOL   C151 4015   0.633   4.873   2.824 -0.0758 -0.1419 -0.1765
   13MOL   H152 4016   0.647   4.811   2.302  1.8681  1.9936  1.2614
   13MOL   H153 4017   0.705   4.682   2.391 -0.9081 -1.2753  0.0447
   13MOL   H154 4018   0.647   4.960   2.498 -0.6471 -0.1169 -1.4346
   13MOL   H155 4019   0.760   4.984   2.721 -1.4203  0.1628 -2.2041
   13MOL   H156 4020   0.870   4.704   2.791 -0.2976  0.1869  0.8828
   13MOL   H157 4021   0.890   4.847   2.902  1.9653 -0.2938 -0.8928
   13MOL   H158 4022   0.962   4.850   2.749  0.0578  2.7393 -0.2642
   13MOL   H159 4023   0.600   4.776   2.861 -1.9107  1.3010  2.1309
   13MOL   H160 4024   0.551   4.905   2.760  0.2697 -0.6348 -0.8725
   13MOL   H161 4025   0.646   4.940   2.909 -0.6096  0.0676 -0.2607
   13MOL   C162 4026   0.846   4.936   2.434  0.1598 -0.2214 -0.1413
   13MOL   C163 4027   0.833   5.038   2.323 -0.3591 -0.6217  0.2048
   13MOL   O164 4028   0.761   5.143   2.372 -0.1941 -0.5670 -0.2897
   13MOL   C165 4029   0.682   5.224   2.284 -0.0984  0.0204 -0.5644
   13MOL   C166 4030   0.671   5.360   2.364  0.4607 -0.2016 -0.5261
   13MOL   C167 4031   0.546   5.155   2.254  0.0162  0.2094  0.4521
   13MOL   H168 4032   0.898   4.979   2.520  1.9042 -2.1234 -0.1935
   13MOL   H169 4033   0.916   4.855   2.412  0.5425 -0.3018  1.3348
   13MOL   H170 4034   0.778   5.000   2.237  0.7456  0.7296 -1.1377
   13MOL   H171 4035   0.738   5.238   2.192  0.1656  1.3734 -0.2057
   13MOL   H172 4036   0.632   5.350   2.465 -1.2500  1.5828 -0.9763
   13MOL   H173 4037   0.591   5.412   2.311 -0.8529 -1.0912  0.5636
   13MOL   H174 4038   0.763   5.419   2.372  1.9212 -2.3455 -1.2340
   13MOL   H175 4039   0.562   5.061   2.201 -0.9403  0.4146 -0.2101
   13MOL   H176 4040   0.480   5.211   2.188  0.4622 -2.2072 -2.1754
   13MOL   H177 4041   0.509   5.131   2.354  0.7602  0.0805  0.6967
   13MOL   C178 4042   0.973   5.075   2.273  0.3965  0.5201  0.9624
   13MOL   C179 4043   1.032   4.979   2.171  0.0870 -0.0095 -0.0977
   13MOL   O180 4044   0.943   4.965   2.058 -0.0422 -0.2035 -0.5521
   13MOL   C181 4045   0.904   4.831   2.028  0.4716  0.5395 -0.5186
   13MOL   C182 4046   1.019   4.740   1.966  0.0466 -0.2689 -0.3608
   13MOL   C183 4047   0.781   4.832   1.930 -1.1819  0.8359 -0.0843
   13MOL   H184 4048   1.028   5.091   2.367  1.7735  3.8123 -0.3210
   13MOL   H185 4049   0.968   5.177   2.235  1.8777  1.9891  4.4475
   13MOL   H186 4050   1.044   4.887   2.228  1.5647 -0.1856 -0.6715
   13MOL   H187 4051   0.872   4.777   2.117 -1.0854  0.9755 -0.7919
   13MOL   H188 4052   1.036   4.778   1.865 -1.2407  1.5054  0.0655
   13MOL   H189 4053   0.984   4.637   1.973  0.2913 -0.2600  1.2226
   13MOL   H190 4054   1.105   4.750   2.032  0.7082  0.3127 -1.3033
   13MOL   H191 4055   0.737   4.733   1.923  1.8270 -0.5172 -0.5192
   13MOL   H192 4056   0.806   4.870   1.831  3.0859 -1.6985 -0.1128
   13MOL   H193 4057   0.702   4.897   1.969 -0.5908  1.6820 -0.2854
   13MOL   C194 4058   1.174   5.023   2.119  0.9722 -0.0466 -0.2309
   13MOL   C195 4059   1.284   4.998   2.224  0.1666 -0.3931  1.2838
   13MOL   O196 4060   1.386   5.098   2.207 -0.2786 -0.0523  0.3269
   13MOL   C197 4061   1.367   5.226   2.273  0.1820 -0.5836 -0.2815
   13MOL   C198 4062   1.450   5.225   2.407  0.4877  0.2592  0.9139
   13MOL   C199 4063   1.412   5.347   2.181 -0.1123  0.2600  0.0656
   13MOL   H200 4064   1.186   4.964   2.028 -0.7666 -0.4549 -0.2141
   13MOL   H201 4065   1.157   5.121   2.075 -0.2252 -0.6729 -1.1914
   13MOL   H202 4066   1.262   5.001   2.331  0.7169 -0.1868  1.3915
   13MOL   H203 4067   1.266   5.243   2.309  0.7016  0.2641  0.8193
   13MOL   H204 4068   1.444   5.321   2.458  0.2383  1.4168 -1.2158
   13MOL   H205 4069   1.420   5.147   2.477 -0.6785 -0.5007 -0.4016
   13MOL   H206 4070   1.554   5.212   2.380 -0.5669 -1.1514 -2.8562
   13MOL   H207 4071   1.381   5.441   2.226  1.9009  1.5529 -1.1416
   13MOL   H208 4072   1.521   5.346   2.173 -0.0787 -1.9628  0.6155
   13MOL   H209 4073   1.369   5.343   2.081  0.4300  2.8689 -0.3092
   13MOL   C210 4074   1.354   4.867   2.199  0.2050  0.3924  0.6089
   13MOL   C211 4075   1.454   4.819   2.302 -0.7962 -0.1993  0.5625
   13MOL   O212 4076   1.382   4.745   2.400  0.0296  0.4906 -0.3477
   13MOL   C213 4077   1.342   4.794   2.522  0.5834  0.0012  0.0856
   13MOL   C214 4078   1.205   4.732   2.547 -0.0840 -0.1287  0.4715
   13MOL   C215 4079   1.452   4.771   2.629  0.3618 -0.0919  0.0304
   13MOL   H216 4080   1.405   4.876   2.103  1.2910  1.1564  1.2445
   13MOL   H217 4081   1.281   4.786   2.193 -0.1277  0.6331  1.3616
   13MOL   H218 4082   1.505   4.905   2.344  0.1592 -0.4031 -0.1613
   13MOL   H219 4083   1.326   4.901   2.510 -0.0812 -0.0567  0.4089
   13MOL   H220 4084   1.214   4.624   2.558  1.9891 -0.1091 -0.8370
   13MOL   H221 4085   1.136   4.758   2.467 -0.2694 -0.1710  0.6177
   13MOL   H222 4086   1.170   4.776   2.640 -0.2776  0.1487  0.2677
   13MOL   H223 4087   1.483   4.668   2.645  1.8973  0.1989 -0.9134
   13MOL   H224 4088   1.410   4.805   2.723  0.1028  1.3021 -0.5706
   13MOL   H225 4089   1.535   4.837   2.605 -0.3696  0.4984 -0.9600
   13MOL   C226 4090   1.575   4.730   2.249  0.1602 -0.1605  0.7152
   13MOL   C227 4091   1.688   4.816   2.180 -0.7997  0.6082 -0.7189
   13MOL   O228 4092   1.770   4.720   2.113  0.0164  0.2887  0.2637
   13MOL   C229 4093   1.757   4.703   1.973 -0.4303  0.2455  0.4205
   13MOL   C230 4094   1.731   4.561   1.949 -0.3444  0.4341  0.1463
   13MOL   C231 4095   1.879   4.756   1.907  0.1753 -0.5406 -0.0119
   13MOL   H232 4096   1.527   4.660   2.181  1.7056 -1.9994  1.4441
   13MOL   H233 4097   1.611   4.667   2.331  0.9959 -2.1802 -1.1343
   13MOL   H234 4098   1.637   4.887   2.115 -1.3660  1.2170  0.3769
   13MOL   H235 4099   1.679   4.758   1.920  1.4359  3.8621  1.3011
   13MOL   H236 4100   1.690   4.543   1.849 -1.2925 -0.0074  0.6052
   13MOL   H237 4101   1.827   4.511   1.966 -0.7388 -0.1355  0.7239
   13MOL   H238 4102   1.663   4.526   2.027 -1.5487  0.8273 -0.7115
   13MOL   H239 4103   1.887   4.740   1.799  1.6377  1.8083 -0.2932
   13MOL   H240 4104   1.972   4.712   1.944  0.3413  0.2180  0.4895
   13MOL   H241 4105   1.867   4.862   1.928 -3.3731 -0.9791  0.5078
   13MOL   C242 4106   1.777   4.896   2.270  0.5130 -0.5211  0.0141
   13MOL   C243 4107   1.881   4.990   2.198 -0.1308  0.3770 -0.3264
   13MOL   O244 4108   1.959   5.051   2.297  0.6652 -0.1161  0.1650
   13MOL   C245 4109   2.074   4.973   2.318  0.9923  0.7156  0.3623
   13MOL   C246 4110   2.195   5.007   2.226  0.3466  0.6771 -0.3061
   13MOL   C247 4111   2.125   4.992   2.455 -0.5407 -0.7613  0.3112
   13MOL   H248 4112   1.724   4.956   2.344  1.4573  0.2190  0.1179
   13MOL   H249 4113   1.830   4.825   2.333  0.7646  0.6021  1.0989
   13MOL   H250 4114   1.935   4.940   2.118  1.5377  1.1946  0.2656
   13MOL   H251 4115   2.063   4.864   2.311  1.4003  0.7600 -1.2693
   13MOL   H252 4116   2.179   4.978   2.122  0.7384  0.7582 -0.3888
   13MOL   H253 4117   2.239   5.106   2.236 -1.7216  1.5606  0.3352
   13MOL   H254 4118   2.281   4.944   2.248  0.4097  0.3615 -1.4438
   13MOL   H255 4119   2.205   4.920   2.474 -1.0264 -1.5964 -0.7676
   13MOL   H256 4120   2.178   5.085   2.476  0.0338 -1.3891  1.6870
   13MOL   H257 4121   2.046   4.979   2.528  0.4234 -2.0177  1.1540
   13MOL   C258 4122   1.809   5.111   2.128  0.8374  0.3048  0.2186
   13MOL   C259 4123   1.902   5.210   2.046  0.4432 -0.1919 -0.4034
   13MOL   O260 4124   1.826   5.329   2.007 -0.5053  0.2296  0.0227
   13MOL   C261 4125   1.849   5.447   2.079 -0.0019 -0.3869 -0.4934
   13MOL   C262 4126   1.752   5.544   2.006 -0.6589 -0.1018 -0.5147
   13MOL   C263 4127   1.801   5.429   2.222  0.2803  0.3534  0.4632
   13MOL   H264 4128   1.737   5.088   2.050 -0.0710  0.2619  1.0518
   13MOL   H265 4129   1.740   5.150   2.203 -0.3505  0.4516 -0.9373
   13MOL   H266 4130   1.985   5.241   2.111 -1.1757  1.3325  0.9891
   13MOL   H267 4131   1.950   5.489   2.075 -0.0091 -0.1707  1.0759
   13MOL   H268 4132   1.776   5.563   1.902  0.5552 -0.4378 -0.3001
   13MOL   H269 4133   1.737   5.634   2.065  0.0177 -0.5061  0.2823
   13MOL   H270 4134   1.653   5.499   2.001 -1.3687  1.1958  1.1109
   13MOL   H271 4135   1.695   5.404   2.222 -0.2890  2.5981  0.3884
   13MOL   H272 4136   1.860   5.353   2.273  0.5611 -0.7490 -1.4320
   13MOL   H273 4137   1.816   5.520   2.279  2.0537 -0.0477  0.6489
   13MOL   C274 4138   1.968   5.156   1.920 -1.0943  0.3602  0.3404
   13MOL   C275 4139   2.087   5.235   1.858 -0.2532  0.1674 -0.0794
   13MOL   O276 4140   2.198   5.231   1.951 -0.5374  0.1963 -0.3496
   13MOL   C277 4141   2.275   5.354   1.959  0.8499 -0.3887 -0.4230
   13MOL   C278 4142   2.369   5.377   1.845 -0.7984  0.1194  0.0157
   13MOL   C279 4143   2.360   5.345   2.093 -0.3366  0.5754  0.3671
   13MOL   H280 4144   1.994   5.053   1.945  0.7648  0.2823 -1.7268
   13MOL   H281 4145   1.888   5.140   1.847 -0.7624 -0.5265  0.1601
   13MOL   H282 4146   2.063   5.338   1.833 -2.2375 -0.6952 -1.9645
   13MOL   H283 4147   2.214   5.443   1.973 -0.7332 -1.4221 -0.5871
   13MOL   H284 4148   2.326   5.387   1.746  1.4844 -1.2471 -1.1605
   13MOL   H285 4149   2.429   5.467   1.861  1.5685 -1.1502 -1.5045
   13MOL   H286 4150   2.431   5.290   1.827  0.7472  1.5897 -1.9051
   13MOL   H287 4151   2.433   5.265   2.080  0.6305  1.6112 -0.7025
   13MOL   H288 4152   2.302   5.329   2.184 -0.8118 -0.9985 -0.1939
   13MOL   H289 4153   2.412   5.437   2.120  1.1103  0.1168 -0.8457
   13MOL   C290 4154   2.139   5.172   1.724 -1.0114  0.4113  0.2660
   13MOL   C291 4155   2.061   5.218   1.596 -1.0068 -0.0608 -0.0103
   13MOL   O292 4156   2.110   5.348   1.579 -0.1514  0.1086 -1.0696
   13MOL   C293 4157   2.026   5.439   1.511  0.3246 -0.3179 -0.1564
   13MOL   C294 4158   2.125   5.544   1.456  0.2622 -0.0005  0.6198
   13MOL   C295 4159   1.915   5.501   1.593  0.3305 -0.3204 -0.9304
   13MOL   H296 4160   2.146   5.063   1.731  3.3640  0.5157 -1.0832
   13MOL   H297 4161   2.246   5.183   1.710 -1.1993  4.8942  1.5190
   13MOL   H298 4162   1.955   5.209   1.619 -1.2193  0.6864 -0.6657
   13MOL   H299 4163   1.975   5.400   1.423  0.4771 -0.1153 -0.3339
   13MOL   H300 4164   2.172   5.598   1.539  1.6229  0.3165 -0.3419
   13MOL   H301 4165   2.202   5.505   1.390  0.1831 -1.7079  1.5232
   13MOL   H302 4166   2.080   5.627   1.402 -1.3034 -1.5051 -0.4177
   13MOL   H303 4167   1.847   5.419   1.615 -3.5320  3.0498  0.2032
   13MOL   H304 4168   1.937   5.547   1.688 -1.2499 -0.9991 -0.2187
   13MOL   H305 4169   1.862   5.577   1.535 -2.1081 -0.2184  1.3353
   13MOL   C306 4170   2.092   5.140   1.471  0.2434  0.3263  0.7467
   13MOL   C307 4171   2.240   5.130   1.432  0.5036 -0.4001  0.5331
   13MOL   O308 4172   2.232   5.068   1.306  0.0708 -0.5613 -0.5727
   13MOL   C309 4173   2.359   5.042   1.248 -0.1446 -0.2733  0.3381
   13MOL   C310 4174   2.435   4.940   1.321 -0.2243  0.3135  0.4252
   13MOL   C311 4175   2.315   4.985   1.117  0.0207 -0.1477 -0.1698
   13MOL   H312 4176   2.031   5.167   1.385 -2.5657  0.0985  2.5863
   13MOL   H313 4177   2.049   5.039   1.478  0.0143  0.2050 -1.9184
   13MOL   H314 4178   2.287   5.228   1.424  0.0187 -0.2063 -0.0206
   13MOL   H315 4179   2.402   5.141   1.231  1.7685 -0.8937  1.4615
   13MOL   H316 4180   2.385   4.843   1.322  1.7074 -0.6903  2.9221
   13MOL   H317 4181   2.466   4.976   1.419 -1.7324  1.5133  0.4891
   13MOL   H318 4182   2.526   4.933   1.262  0.3015 -2.3826  1.4857
   13MOL   H319 4183   2.251   5.060   1.071  0.3584 -0.2884 -0.8709
   13MOL   H320 4184   2.254   4.896   1.130  0.7398 -0.7614 -0.9453
   13MOL   H321 4185   2.400   4.960   1.053 -1.0617 -0.6093 -1.4493
   13MOL   H322 4186   2.294   5.071   1.504  0.6160 -0.3041  0.5274
   14MOL     C1 4187   1.333   1.311   4.673  0.0234  0.0462  0.2643
   14MOL     C2 4188   1.404   1.447   4.672  0.5469  0.6894  0.0912
   14MOL     O3 4189   1.458   1.468   4.799 -0.9074  0.6177  0.4217
   14MOL     C4 4190   1.500   1.598   4.829  0.4346 -0.1107  0.2044
   14MOL     C5 4191   1.646   1.596   4.866 -0.0092 -0.2487  0.3192
   14MOL     C6 4192   1.413   1.650   4.941  0.3767  0.3174 -0.3126
   14MOL     H7 4193   1.279   1.274   4.586 -2.1570 -0.2750  1.7041
   14MOL     H8 4194   1.398   1.225   4.689  0.5840  0.6374  1.1809
   14MOL     H9 4195   1.339   1.530   4.645 -0.7272 -0.4572 -0.4029
   14MOL    H10 4196   1.488   1.654   4.737 -1.8019 -2.0511 -0.7425
   14MOL    H11 4197   1.670   1.692   4.912 -2.2353  0.9443 -0.9135
   14MOL    H12 4198   1.652   1.518   4.942  0.1628 -0.7580 -0.2089
   14MOL    H13 4199   1.716   1.581   4.784 -0.7485 -1.4193 -0.1232
   14MOL    H14 4200   1.438   1.750   4.978 -0.8783  0.9633 -1.1636
   14MOL    H15 4201   1.309   1.656   4.911  0.3964  1.2228 -0.2316
   14MOL    H16 4202   1.416   1.586   5.029 -2.1644 -0.0458 -0.4644
   14MOL    H17 4203   1.261   1.314   4.755 -0.7272 -0.1810 -0.3774
   14MOL    C18 4204   1.518   1.437   4.564 -0.0052 -0.0378  0.0849
   14MOL    C19 4205   1.474   1.473   4.423 -0.0931 -0.0992 -0.1684
   14MOL    O20 4206   1.579   1.445   4.326  0.0038  0.2837 -0.1368
   14MOL    C21 4207   1.632   1.307   4.325 -0.2969  0.7484 -0.3415
   14MOL    C22 4208   1.739   1.319   4.220  0.5211  0.1536 -0.2248
   14MOL    C23 4209   1.520   1.205   4.288  0.2707  0.0328  0.6657
   14MOL    H24 4210   1.606   1.499   4.579 -0.0392  0.2614 -0.8814
   14MOL    H25 4211   1.559   1.337   4.573 -0.3504  0.0310  2.6453
   14MOL    H26 4212   1.379   1.423   4.410 -0.8865  0.5961  2.6450
   14MOL    H27 4213   1.661   1.274   4.425 -2.8964 -0.1578  0.1333
   14MOL    H28 4214   1.700   1.364   4.129 -1.7718  1.3210  1.2982
   14MOL    H29 4215   1.826   1.375   4.255  0.7627 -0.1242 -0.3774
   14MOL    H30 4216   1.784   1.221   4.207 -0.0513 -0.6168  3.0165
   14MOL    H31 4217   1.572   1.109   4.286 -0.0292 -0.1653  1.9473
   14MOL    H32 4218   1.488   1.230   4.187 -0.2293  0.5263  0.9465
   14MOL    H33 4219   1.437   1.197   4.358  1.0717  0.4493  1.6772
   14MOL    C34 4220   1.458   1.625   4.417  0.2353 -0.3485  0.0099
   14MOL    C35 4221   1.410   1.687   4.276  0.1012 -0.5328 -0.0310
   14MOL    O36 4222   1.294   1.620   4.236  0.3620 -0.8628  0.3217
   14MOL    C37 4223   1.270   1.577   4.100 -0.5940  0.4524 -0.2118
   14MOL    C38 4224   1.352   1.456   4.061 -0.8664  0.0833  0.2891
   14MOL    C39 4225   1.121   1.553   4.095  0.0636 -0.6331 -0.5883
   14MOL    H40 4226   1.548   1.672   4.458 -1.3290  0.5877  2.4491
   14MOL    H41 4227   1.386   1.662   4.490  1.8292  2.1967  0.3413
   14MOL    H42 4228   1.493   1.677   4.206  0.6386 -0.2005  0.5445
   14MOL    H43 4229   1.300   1.659   4.035  1.1357  1.9461  2.3884
   14MOL    H44 4230   1.309   1.365   4.103  0.3073 -0.8736 -0.5705
   14MOL    H45 4231   1.457   1.465   4.089 -0.6273 -0.2705 -0.4878
   14MOL    H46 4232   1.340   1.455   3.953 -1.2279  0.9836  0.3124
   14MOL    H47 4233   1.062   1.642   4.117 -0.3717 -0.8607 -0.8317
   14MOL    H48 4234   1.098   1.535   3.990  0.3133  1.2497 -0.9754
   14MOL    H49 4235   1.081   1.473   4.158 -0.4390  1.0099  1.2154
   14MOL    C50 4236   1.374   1.841   4.295 -0.2275  0.0973 -0.0839
   14MOL    C51 4237   1.398   1.926   4.170  0.8242  0.1849 -0.8374
   14MOL    O52 4238   1.538   1.907   4.146  0.3600 -0.3257 -0.3901
   14MOL    C53 4239   1.581   1.934   4.011  0.0967  0.3158 -0.7578
   14MOL    C54 4240   1.632   1.799   3.947  0.7828 -0.1916  0.2015
   14MOL    C55 4241   1.689   2.045   4.010  0.6891  0.5514 -0.2131
   14MOL    H56 4242   1.272   1.850   4.331  0.6563  0.4636  2.4595
   14MOL    H57 4243   1.445   1.870   4.372 -2.4270  1.2485  1.5592
   14MOL    H58 4244   1.329   1.892   4.092 -1.8393  0.2050  1.4523
   14MOL    H59 4245   1.498   1.968   3.949  0.9345  1.2356 -1.3782
   14MOL    H60 4246   1.556   1.722   3.958  0.3757 -0.0221 -1.3165
   14MOL    H61 4247   1.715   1.757   4.003  0.1492 -2.1933 -0.3199
   14MOL    H62 4248   1.665   1.808   3.844  0.0763 -2.1470 -0.2151
   14MOL    H63 4249   1.661   2.143   4.049  0.9872  0.3018  0.6419
   14MOL    H64 4250   1.723   2.069   3.909 -0.0532  0.2711 -0.5354
   14MOL    H65 4251   1.771   2.007   4.071  0.7024 -0.1195 -0.6514
   14MOL    C66 4252   1.383   2.082   4.201  0.1515  0.9784  0.1773
   14MOL    C67 4253   1.240   2.134   4.190  0.9888 -0.3985 -0.3023
   14MOL    O68 4254   1.198   2.085   4.068 -0.3391  0.1334 -0.2006
   14MOL    C69 4255   1.058   2.075   4.044  0.3894 -0.3795  0.1148
   14MOL    C70 4256   1.028   2.106   3.897 -0.3070  0.0855  0.7345
   14MOL    C71 4257   1.023   1.929   4.086  0.2134  0.2697  0.0086
   14MOL    H72 4258   1.428   2.100   4.298  0.9285 -2.3889  0.5082
   14MOL    H73 4259   1.436   2.141   4.127 -2.0723  1.0336 -1.4557
   14MOL    H74 4260   1.180   2.084   4.265 -1.4040 -0.2287 -2.0253
   14MOL    H75 4261   1.007   2.143   4.111  0.9476  0.6530 -0.5038
   14MOL    H76 4262   1.094   2.048   3.832 -0.5349  1.4631 -0.7449
   14MOL    H77 4263   0.923   2.094   3.872  0.1109  0.5105 -1.3021
   14MOL    H78 4264   1.050   2.211   3.877 -0.3512  0.6356  3.4607
   14MOL    H79 4265   0.916   1.915   4.071  0.0771  0.6648  0.5771
   14MOL    H80 4266   1.053   1.927   4.191 -0.7714  1.6473  0.3363
   14MOL    H81 4267   1.069   1.852   4.025  0.2753  2.0310 -2.2059
   14MOL    C82 4268   1.236   2.290   4.190  0.1946 -0.8474 -0.1812
   14MOL    C83 4269   1.319   2.349   4.305  0.7038  0.0810 -0.5461
   14MOL    O84 4270   1.320   2.486   4.290 -0.0746  0.0169 -0.2677
   14MOL    C85 4271   1.363   2.551   4.166 -0.2756 -0.6037  0.7545
   14MOL    C86 4272   1.515   2.524   4.144 -0.0819  1.0582 -0.2082
   14MOL    C87 4273   1.339   2.700   4.185  0.3082  0.0306  0.0185
   14MOL    H88 4274   1.261   2.317   4.087 -0.3104 -0.0526 -0.1010
   14MOL    H89 4275   1.130   2.316   4.196  0.1844 -0.8115 -0.4875
   14MOL    H90 4276   1.419   2.306   4.307  0.5259 -0.2875  0.7535
   14MOL    H91 4277   1.294   2.524   4.087  0.7006  0.2285 -0.3988
   14MOL    H92 4278   1.552   2.590   4.066  1.5330  1.7847  1.1475
   14MOL    H93 4279   1.569   2.548   4.235 -1.6253 -0.9699  1.2779
   14MOL    H94 4280   1.534   2.419   4.125 -2.4398  0.9363 -2.0976
   14MOL    H95 4281   1.373   2.766   4.105 -0.7476  0.0726 -0.4049
   14MOL    H96 4282   1.234   2.729   4.176  0.1457 -0.9997 -1.5953
   14MOL    H97 4283   1.385   2.736   4.277 -0.7280  0.9509  0.1844
   14MOL    C98 4284   1.245   2.330   4.445 -0.0284  0.5010  0.1779
   14MOL    C99 4285   1.354   2.342   4.554  0.9245 -0.5010  0.1393
   14MOL   O100 4286   1.439   2.218   4.536 -0.1404  0.0153  0.1576
   14MOL   C101 4287   1.572   2.225   4.588 -0.7424 -0.4093  0.0150
   14MOL   C102 4288   1.689   2.243   4.488 -0.0129 -0.4747 -0.5290
   14MOL   C103 4289   1.595   2.113   4.682  0.2855  0.1465 -0.8013
   14MOL   H104 4290   1.157   2.394   4.451 -0.0700  0.3021  1.6755
   14MOL   H105 4291   1.194   2.233   4.445 -1.8388  1.4268  1.7866
   14MOL   H106 4292   1.419   2.428   4.538  1.7813 -1.0688  0.5304
   14MOL   H107 4293   1.582   2.315   4.649  0.5144 -0.3376 -0.2903
   14MOL   H108 4294   1.694   2.152   4.428  1.0068 -0.1379 -0.9653
   14MOL   H109 4295   1.787   2.254   4.534  0.1999 -0.9973 -0.8487
   14MOL   H110 4296   1.675   2.324   4.416 -0.2299 -0.8160 -0.8770
   14MOL   H111 4297   1.542   2.128   4.776 -0.8662 -1.0638 -1.2365
   14MOL   H112 4298   1.699   2.110   4.714  0.9050  0.6018 -2.7046
   14MOL   H113 4299   1.585   2.016   4.632  1.5266  0.3033 -1.3539
   14MOL   C114 4300   1.298   2.351   4.693 -0.9771 -0.7784  0.2422
   14MOL   C115 4301   1.218   2.481   4.734 -0.6085 -0.1879 -0.5191
   14MOL   O116 4302   1.128   2.466   4.846 -0.1020  0.4923  0.2196
   14MOL   C117 4303   0.986   2.438   4.814 -0.0376  0.0756 -0.1568
   14MOL   C118 4304   0.914   2.437   4.950  0.3467 -0.8023  0.8021
   14MOL   C119 4305   0.958   2.301   4.739  0.1388  0.2649 -0.3169
   14MOL   H120 4306   1.378   2.331   4.764  0.6647  0.8155 -1.1240
   14MOL   H121 4307   1.223   2.275   4.716 -0.8069 -1.2483 -0.7602
   14MOL   H122 4308   1.161   2.498   4.642  1.6886  0.8186 -1.8112
   14MOL   H123 4309   0.951   2.521   4.752  1.3622 -1.8223 -3.5880
   14MOL   H124 4310   0.815   2.393   4.943  0.6337 -1.2846 -0.4044
   14MOL   H125 4311   0.904   2.527   5.011  0.0219 -0.9088  0.9078
   14MOL   H126 4312   0.968   2.370   5.017  1.4677 -1.7620 -0.9900
   14MOL   H127 4313   1.004   2.223   4.799 -3.3986 -0.9551  0.9260
   14MOL   H128 4314   1.012   2.298   4.645 -1.6057 -1.2156 -1.3040
   14MOL   H129 4315   0.850   2.288   4.741  0.3457 -1.4552 -0.0023
   14MOL   C130 4316   1.321   2.604   4.752  0.8329 -0.4195 -0.5335
   14MOL   C131 4317   1.262   2.742   4.762 -1.6845 -0.2119 -0.4451
   14MOL   O132 4318   1.237   2.791   4.630  0.0957  0.0399 -0.1702
   14MOL   C133 4319   1.103   2.763   4.586 -0.2721 -0.7953 -0.4087
   14MOL   C134 4320   1.016   2.892   4.593 -0.0410  0.3470 -0.3439
   14MOL   C135 4321   1.112   2.724   4.435 -0.5310  0.1047  0.3141
   14MOL   H136 4322   1.395   2.611   4.672  0.2395  0.5682 -1.0055
   14MOL   H137 4323   1.371   2.577   4.845 -0.0433 -1.2220 -0.2856
   14MOL   H138 4324   1.175   2.759   4.827  1.5974  0.8105  3.9290
   14MOL   H139 4325   1.058   2.683   4.646  0.7741 -0.7761  0.4188
   14MOL   H140 4326   0.912   2.866   4.571  0.3477  0.4445 -2.4352
   14MOL   H141 4327   1.039   2.963   4.514  0.7432  1.4195  0.8350
   14MOL   H142 4328   1.021   2.940   4.690  0.0777 -0.5711  0.1106
   14MOL   H143 4329   1.021   2.702   4.378 -0.5419 -1.7131  0.9744
   14MOL   H144 4330   1.158   2.796   4.367 -1.2118 -0.4034 -0.7091
   14MOL   H145 4331   1.171   2.632   4.444  0.1580  0.1445 -3.0787
   14MOL   C146 4332   1.375   2.839   4.810  0.0765  0.2921  0.2160
   14MOL   C147 4333   1.319   2.969   4.861  0.3183 -1.0686 -0.1968
   14MOL   O148 4334   1.276   2.934   4.990  0.2320 -0.7408 -0.1736
   14MOL   C149 4335   1.166   3.006   5.050  0.3777  0.3965  0.7268
   14MOL   C150 4336   1.202   3.026   5.198  0.1136 -0.1705 -0.2202
   14MOL   C151 4337   1.036   2.932   5.022  0.2052 -0.5017 -0.2330
   14MOL   H152 4338   1.449   2.862   4.733  0.9688  3.2223  1.8686
   14MOL   H153 4339   1.426   2.794   4.895  0.3679 -1.6218 -0.9435
   14MOL   H154 4340   1.230   3.004   4.809 -0.1468 -1.1597  0.5278
   14MOL   H155 4341   1.166   3.104   5.003  0.0094  0.1885  0.2943
   14MOL   H156 4342   1.187   2.933   5.253  2.5431 -0.2519  0.3422
   14MOL   H157 4343   1.136   3.106   5.231 -0.7760 -1.3330  0.8919
   14MOL   H158 4344   1.307   3.053   5.201 -0.1253  0.7446  0.1477
   14MOL   H159 4345   1.015   2.917   4.916 -1.5054 -1.9968  0.2932
   14MOL   H160 4346   0.962   2.998   5.067  1.2295  0.1316  0.5572
   14MOL   H161 4347   1.037   2.839   5.079  0.3221 -1.0267 -1.0803
   14MOL   C162 4348   1.416   3.088   4.862  0.7534 -0.2541 -0.0594
   14MOL   C163 4349   1.455   3.138   4.719 -0.3454 -0.1000 -0.0173
   14MOL   O164 4350   1.376   3.242   4.669  0.0436 -0.1711  0.0605
   14MOL   C165 4351   1.376   3.257   4.525  0.0323  0.1908 -0.0841
   14MOL   C166 4352   1.387   3.404   4.497 -0.7220  0.2830  0.4296
   14MOL   C167 4353   1.263   3.180   4.458 -0.0558  0.3318 -0.0663
   14MOL   H168 4354   1.376   3.172   4.919  0.5744  1.1377 -2.1707
   14MOL   H169 4355   1.498   3.063   4.929  1.7736 -0.7493 -1.4777
   14MOL   H170 4356   1.454   3.058   4.645  0.7475 -0.2887  0.1555
   14MOL   H171 4357   1.466   3.216   4.479  0.5425  1.9564 -0.6893
   14MOL   H172 4358   1.358   3.411   4.393 -0.5611 -0.5485  0.3283
   14MOL   H173 4359   1.480   3.453   4.526 -0.0262  0.7794 -2.4943
   14MOL   H174 4360   1.310   3.465   4.544 -1.2326  0.3740 -0.5152
   14MOL   H175 4361   1.163   3.199   4.499  0.3765 -1.5143  1.9587
   14MOL   H176 4362   1.289   3.076   4.480 -1.7717 -0.2101 -0.4777
   14MOL   H177 4363   1.261   3.189   4.350  0.0296 -0.0825 -0.1013
   14MOL   C178 4364   1.603   3.182   4.726 -0.3943 -0.2650  0.2192
   14MOL   C179 4365   1.706   3.077   4.668  0.4286 -0.0255 -0.8140
   14MOL   O180 4366   1.823   3.144   4.606  0.0273  0.4381 -0.5461
   14MOL   C181 4367   1.792   3.225   4.488 -0.3486 -0.3869 -0.1930
   14MOL   C182 4368   1.769   3.149   4.359  0.1540  0.5638 -0.2886
   14MOL   C183 4369   1.912   3.308   4.463 -0.2471 -0.4930  0.0807
   14MOL   H184 4370   1.625   3.205   4.830 -1.4766 -1.6468  0.7578
   14MOL   H185 4371   1.606   3.281   4.679  3.0621  0.3290  1.5288
   14MOL   H186 4372   1.652   3.027   4.588 -0.9230  1.5897 -0.9473
   14MOL   H187 4373   1.706   3.292   4.493  0.3880  0.4054  2.4826
   14MOL   H188 4374   1.845   3.072   4.352 -0.8100 -0.4517  0.2157
   14MOL   H189 4375   1.782   3.213   4.272  0.8230 -1.9097 -2.0309
   14MOL   H190 4376   1.669   3.104   4.354  0.2460  0.5408 -2.5495
   14MOL   H191 4377   2.003   3.256   4.432 -0.0343 -0.6454  0.9560
   14MOL   H192 4378   1.932   3.357   4.559 -3.9875  1.2010  0.0646
   14MOL   H193 4379   1.904   3.384   4.385  0.1001 -0.7330 -0.1872
   14MOL   C194 4380   1.759   2.976   4.775  0.2900  0.4756  0.4828
   14MOL   C195 4381   1.839   2.857   4.718 -0.0458  0.6053  0.0917
   14MOL   O196 4382   1.734   2.766   4.661  0.2214 -0.5003 -0.2870
   14MOL   C197 4383   1.744   2.766   4.517  0.2074 -0.4399 -0.1164
   14MOL   C198 4384   1.867   2.683   4.469 -0.2470 -0.3773  0.1691
   14MOL   C199 4385   1.619   2.717   4.453 -0.1427 -0.4652 -0.0674
   14MOL   H200 4386   1.819   3.028   4.850 -0.3143  0.0255  1.2877
   14MOL   H201 4387   1.672   2.944   4.833  1.2284  0.1443  1.7474
   14MOL   H202 4388   1.914   2.892   4.647  2.0405 -0.2841  1.7880
   14MOL   H203 4389   1.759   2.870   4.488  0.2560 -0.6362 -0.8021
   14MOL   H204 4390   1.854   2.653   4.365 -1.8811 -0.2146  0.3150
   14MOL   H205 4391   1.963   2.733   4.479 -0.2269 -0.3098 -0.3501
   14MOL   H206 4392   1.868   2.591   4.529 -0.6978 -1.3242 -1.2388
   14MOL   H207 4393   1.587   2.616   4.476 -0.0633 -0.5554 -0.3553
   14MOL   H208 4394   1.525   2.772   4.465 -0.3895 -0.8052 -0.4194
   14MOL   H209 4395   1.629   2.721   4.345  0.4698 -1.2054 -0.0425
   14MOL   C210 4396   1.896   2.789   4.837 -0.2873 -0.4618 -0.4815
   14MOL   C211 4397   2.019   2.705   4.795 -0.1995  0.2078  0.4674
   14MOL   O212 4398   2.127   2.770   4.735  0.3300 -0.4773 -0.5880
   14MOL   C213 4399   2.173   2.891   4.786 -0.2211 -0.3151 -0.0739
   14MOL   C214 4400   2.298   2.858   4.869 -0.3321 -0.6106  1.3612
   14MOL   C215 4401   2.193   2.992   4.670 -0.3721 -0.1025  0.4270
   14MOL   H216 4402   1.814   2.728   4.873 -0.9286 -0.2736 -1.6040
   14MOL   H217 4403   1.923   2.851   4.922 -1.4598  0.7601 -1.0023
   14MOL   H218 4404   1.974   2.644   4.717 -1.1603 -0.6457  1.6564
   14MOL   H219 4405   2.101   2.941   4.850  0.1025 -0.4605  0.4124
   14MOL   H220 4406   2.352   2.946   4.902 -1.3233  0.3985  0.3236
   14MOL   H221 4407   2.371   2.804   4.807 -0.6903 -1.6894  1.8634
   14MOL   H222 4408   2.279   2.795   4.956  0.1885  2.0129  3.4407
   14MOL   H223 4409   2.096   3.026   4.636 -0.7359 -1.6167 -0.0917
   14MOL   H224 4410   2.262   2.953   4.594  1.9002  0.7218  2.0084
   14MOL   H225 4411   2.228   3.089   4.704  0.1385 -0.3653  0.6553
   14MOL   C226 4412   2.059   2.608   4.908 -0.0155 -0.4907  0.2094
   14MOL   C227 4413   1.977   2.473   4.923  0.0766  0.3326 -0.0713
   14MOL   O228 4414   1.879   2.506   5.021  0.2881 -0.1646 -0.6065
   14MOL   C229 4415   1.775   2.408   5.035 -0.1009 -0.1903  0.6213
   14MOL   C230 4416   1.682   2.396   4.910 -0.0831 -0.6462  0.2105
   14MOL   C231 4417   1.702   2.456   5.162  0.2672 -0.2418 -0.4526
   14MOL   H232 4418   2.073   2.645   5.009 -0.7368 -1.2965  0.6127
   14MOL   H233 4419   2.164   2.582   4.896 -0.2998 -1.4535 -0.2555
   14MOL   H234 4420   1.940   2.452   4.823 -1.0981  0.1481  0.4022
   14MOL   H235 4421   1.816   2.311   5.061  0.4668 -0.2938 -0.6525
   14MOL   H236 4422   1.728   2.341   4.829  1.8341  0.7579  0.3234
   14MOL   H237 4423   1.598   2.335   4.945  0.1002 -0.0409  1.7861
   14MOL   H238 4424   1.651   2.496   4.879  0.4432 -0.0531  1.5314
   14MOL   H239 4425   1.759   2.460   5.255  0.6436 -1.5011 -0.6194
   14MOL   H240 4426   1.611   2.398   5.180 -1.1891  2.0040 -0.4164
   14MOL   H241 4427   1.678   2.561   5.149  2.6769  0.0950 -2.3419
   14MOL   C242 4428   2.072   2.360   4.968  0.3533  0.1360  0.9089
   14MOL   C243 4429   2.176   2.298   4.867  0.3194 -0.6391 -0.0505
   14MOL   O244 4430   2.095   2.250   4.762 -0.3406  0.2293 -0.5493
   14MOL   C245 4431   2.152   2.275   4.636 -0.1352  0.1168  0.6007
   14MOL   C246 4432   2.089   2.181   4.526  0.4864 -0.7500 -0.3729
   14MOL   C247 4433   2.131   2.419   4.592  0.7286  0.5731 -0.3840
   14MOL   H248 4434   2.127   2.389   5.057  2.1484 -0.0115 -0.1385
   14MOL   H249 4435   2.020   2.271   5.003 -1.6152  0.1952 -1.6927
   14MOL   H250 4436   2.259   2.363   4.841  0.5786 -0.4320  1.2364
   14MOL   H251 4437   2.260   2.262   4.625 -0.3953 -0.1917 -1.7980
   14MOL   H252 4438   1.990   2.211   4.493  0.8745 -0.6829 -1.5027
   14MOL   H253 4439   2.156   2.163   4.442  0.2491 -0.6107 -0.5890
   14MOL   H254 4440   2.085   2.081   4.571  0.5424 -0.3917  0.4467
   14MOL   H255 4441   2.027   2.449   4.576  0.5306 -0.2916 -0.7365
   14MOL   H256 4442   2.158   2.485   4.674 -1.0288 -1.5722  1.9660
   14MOL   H257 4443   2.187   2.444   4.501  0.0402  0.8181 -0.7519
   14MOL   C258 4444   2.248   2.169   4.927 -0.1739 -0.0945  1.3287
   14MOL   C259 4445   2.342   2.196   5.048  0.3434  0.0118 -0.0329
   14MOL   O260 4446   2.432   2.291   4.997 -0.0839 -0.5180  0.1525
   14MOL   C261 4447   2.492   2.379   5.096  0.6512  0.5055  0.1384
   14MOL   C262 4448   2.614   2.434   5.037  0.1463  0.3624 -0.0217
   14MOL   C263 4449   2.389   2.490   5.133 -0.0949 -0.5039 -0.4845
   14MOL   H264 4450   2.177   2.094   4.961 -0.4267 -0.0655  0.8708
   14MOL   H265 4451   2.303   2.115   4.850 -0.3096  1.8715 -0.1840
   14MOL   H266 4452   2.284   2.241   5.129  0.4129 -2.3088  1.3492
   14MOL   H267 4453   2.513   2.321   5.186 -0.7948  0.1258  0.2493
   14MOL   H268 4454   2.645   2.527   5.086 -1.7102  1.1028 -0.2115
   14MOL   H269 4455   2.599   2.447   4.930 -1.5915  1.1161  0.2962
   14MOL   H270 4456   2.686   2.355   5.059  0.8558  1.3411  1.2533
   14MOL   H271 4457   2.337   2.530   5.045 -0.2792  0.0099 -0.1431
   14MOL   H272 4458   2.308   2.457   5.197  1.7099 -1.6655  1.2332
   14MOL   H273 4459   2.449   2.569   5.179 -1.4503  2.1583 -3.1100
   14MOL   C274 4460   2.421   2.071   5.101 -0.4181  0.2383  0.0979
   14MOL   C275 4461   2.333   1.971   5.187 -0.1361  0.1759  0.7536
   14MOL   O276 4462   2.416   1.865   5.236 -0.3512 -0.3843  0.3380
   14MOL   C277 4463   2.389   1.731   5.184  0.7355 -0.4973 -0.4360
   14MOL   C278 4464   2.455   1.633   5.278 -0.6055  0.1817  0.1332
   14MOL   C279 4465   2.446   1.718   5.039 -0.3571  0.2165  0.3368
   14MOL   H280 4466   2.462   2.021   5.014 -0.7429  0.4675 -0.1850
   14MOL   H281 4467   2.509   2.112   5.152 -0.8549  1.1350  0.1535
   14MOL   H282 4468   2.264   1.918   5.121 -3.3262  4.3085  0.5942
   14MOL   H283 4469   2.285   1.698   5.188  0.8371 -0.5884  1.7576
   14MOL   H284 4470   2.420   1.644   5.380  3.1809 -1.7419  1.7227
   14MOL   H285 4471   2.440   1.531   5.243 -1.0909  0.5299 -0.7080
   14MOL   H286 4472   2.562   1.654   5.273 -0.1775 -1.4626  2.1539
   14MOL   H287 4473   2.387   1.770   4.964 -2.0077 -0.8634  0.8523
   14MOL   H288 4474   2.460   1.612   5.016 -1.0891  0.8276 -3.0500
   14MOL   H289 4475   2.546   1.761   5.040  0.1489 -0.9345  0.7009
   14MOL   C290 4476   2.263   2.047   5.305 -0.4069 -0.2545  0.1516
   14MOL   C291 4477   2.352   2.114   5.417  0.5803  0.3499 -0.1054
   14MOL   O292 4478   2.279   2.208   5.494  0.1986 -0.4375 -0.7318
   14MOL   C293 4479   2.337   2.261   5.611  0.3519 -0.3019  0.0606
   14MOL   C294 4480   2.217   2.338   5.671  0.5592  0.0975 -0.2813
   14MOL   C295 4481   2.457   2.348   5.588  0.0086  0.0600  0.0269
   14MOL   H296 4482   2.188   1.974   5.336 -1.6499  0.9109 -0.0999
   14MOL   H297 4483   2.202   2.130   5.269 -1.0405 -0.5808  0.4611
   14MOL   H298 4484   2.436   2.163   5.367  3.7270 -2.8680  1.7306
   14MOL   H299 4485   2.360   2.182   5.683 -1.9424 -1.7316 -0.7255
   14MOL   H300 4486   2.207   2.431   5.615  0.6470 -0.2148 -0.8196
   14MOL   H301 4487   2.128   2.279   5.650  0.5051 -0.2228  0.7870
   14MOL   H302 4488   2.241   2.346   5.777 -0.7644  3.7313 -0.1828
   14MOL   H303 4489   2.491   2.403   5.676  1.2504 -1.9487  0.8297
   14MOL   H304 4490   2.543   2.286   5.563 -0.7649 -0.8555 -0.4438
   14MOL   H305 4491   2.453   2.421   5.508 -0.0222 -1.9588 -1.8688
   14MOL   C306 4492   2.410   1.998   5.502 -0.7056 -0.0760  0.4686
   14MOL   C307 4493   2.321   1.886   5.569 -0.0622  0.2230 -0.2616
   14MOL   O308 4494   2.408   1.796   5.634  0.0848 -0.1477 -0.5533
   14MOL   C309 4495   2.361   1.761   5.766  0.4688  0.1058  0.2763
   14MOL   C310 4496   2.253   1.648   5.760 -0.1990  0.4551 -0.3648
   14MOL   C311 4497   2.492   1.721   5.844 -0.1074  0.4149  0.1003
   14MOL   H312 4498   2.483   2.042   5.570  0.2757 -2.4145  1.0009
   14MOL   H313 4499   2.483   1.952   5.436 -0.9787  0.6956 -0.3649
   14MOL   H314 4500   2.259   1.939   5.641 -0.9911 -0.7564 -0.3250
   14MOL   H315 4501   2.326   1.848   5.820  0.7794  1.0582 -1.0336
   14MOL   H316 4502   2.300   1.564   5.708  1.9159  0.8291  0.8511
   14MOL   H317 4503   2.171   1.694   5.705 -0.6535  0.3572  0.2344
   14MOL   H318 4504   2.217   1.615   5.857 -0.9648  1.1764 -0.3930
   14MOL   H319 4505   2.483   1.712   5.952 -0.0311  0.2211  0.0915
   14MOL   H320 4506   2.579   1.784   5.824  0.0404  0.3003  0.3829
   14MOL   H321 4507   2.516   1.620   5.812 -0.7143  0.9931 -2.2740
   14MOL   H322 4508   2.246   1.842   5.503 -0.4504 -0.4482  0.6282
   15MOL     C1 4509   4.818   3.425   7.637  0.3166 -0.0936 -0.5685
   15MOL     C2 4510   4.798   3.569   7.696  0.4459  0.0128 -0.8901
   15MOL     O3 4511   4.855   3.668   7.603 -0.2913  0.0994  0.0829
   15MOL     C4 4512   4.778   3.691   7.485  0.5024 -0.0238  0.3374
   15MOL     C5 4513   4.862   3.633   7.370  0.5764  0.1138 -0.3898
   15MOL     C6 4514   4.760   3.842   7.456  0.1477  0.0399 -0.3884
   15MOL     H7 4515   4.752   3.408   7.552 -2.0718  1.0428  1.0071
   15MOL     H8 4516   4.916   3.388   7.606 -0.2334 -1.3578 -0.7990
   15MOL     H9 4517   4.869   3.574   7.779 -0.9257 -1.2628  0.3657
   15MOL    H10 4518   4.682   3.640   7.491 -0.0722  1.1793  1.5909
   15MOL    H11 4519   4.949   3.696   7.354 -0.1205  0.8559 -1.3500
   15MOL    H12 4520   4.889   3.532   7.401  0.3971  0.1571 -0.0866
   15MOL    H13 4521   4.810   3.619   7.274 -0.1175  1.4774 -0.2314
   15MOL    H14 4522   4.717   3.866   7.359 -1.1337 -1.7908 -0.2839
   15MOL    H15 4523   4.691   3.878   7.532 -1.4160 -0.6567 -1.4532
   15MOL    H16 4524   4.856   3.894   7.470 -0.6646  0.7647  2.8007
   15MOL    H17 4525   4.772   3.357   7.708 -2.5426 -0.6609 -2.8719
   15MOL    C18 4526   4.652   3.584   7.731 -0.4234 -0.9116 -0.6660
   15MOL    C19 4527   4.608   3.724   7.788 -0.3318 -0.1204  0.3249
   15MOL    O20 4528   4.669   3.741   0.090 -0.5361 -0.3510  0.3088
   15MOL    C21 4529   4.770   3.839   0.087 -0.6836  0.2724 -0.1468
   15MOL    C22 4530   4.848   3.799   0.210 -0.2228 -0.0041 -0.6172
   15MOL    C23 4531   4.707   3.975   0.114  0.5089  0.0405  0.3972
   15MOL    H24 4532   4.594   3.557   7.643 -2.9863  0.1055  0.6751
   15MOL    H25 4533   4.630   3.505   7.803 -0.6253 -0.5389 -0.3145
   15MOL    H26 4534   4.615   3.809   7.720 -1.5727 -1.2453 -1.2376
   15MOL    H27 4535   4.842   3.848   0.005  1.1848 -0.8496  1.3107
   15MOL    H28 4536   4.940   3.856   0.224  0.5840 -0.8572 -2.3512
   15MOL    H29 4537   4.787   3.786   0.300 -1.2990  0.0694 -1.3205
   15MOL    H30 4538   4.892   3.700   0.200  1.2768  0.2932  2.4078
   15MOL    H31 4539   4.650   4.018   0.032  3.2769 -0.7472 -2.0372
   15MOL    H32 4540   4.789   4.044   0.137 -0.1106  0.6181  0.8960
   15MOL    H33 4541   4.640   3.969   0.200 -0.0705  1.8015  0.0906
   15MOL    C34 4542   4.457   3.719   0.010  0.3785 -0.2149  0.4752
   15MOL    C35 4543   4.361   3.694   7.718 -1.0290 -0.3326  0.5985
   15MOL    O36 4544   4.257   3.644   7.797  0.2028 -1.1119  0.1009
   15MOL    C37 4545   4.182   3.535   7.744  0.2948 -0.1482  0.6663
   15MOL    C38 4546   4.260   3.401   7.765 -0.1976  0.1584  0.2348
   15MOL    C39 4547   4.045   3.538   7.818 -0.4970 -0.4783 -0.1096
   15MOL    H40 4548   4.431   3.813   0.059  0.7739  1.8250 -3.0592
   15MOL    H41 4549   4.450   3.641   0.085 -0.3232 -1.9052 -1.3097
   15MOL    H42 4550   4.400   3.620   7.648 -1.1973 -1.8982  2.1287
   15MOL    H43 4551   4.165   3.552   7.638 -0.6051  0.2625  0.8730
   15MOL    H44 4552   4.199   3.316   7.735 -1.7025  0.8223  1.3322
   15MOL    H45 4553   4.281   3.403   0.052  0.3359  1.0021  0.1177
   15MOL    H46 4554   4.360   3.384   7.724  1.4507  3.9617  2.3767
   15MOL    H47 4555   3.995   3.633   7.800 -0.0366  0.4024  2.9457
   15MOL    H48 4556   3.989   3.458   7.770  0.8719 -1.7153  0.2978
   15MOL    H49 4557   4.045   3.511   0.104 -0.9972 -2.2346 -0.5333
   15MOL    C50 4558   4.320   3.826   7.644 -0.3431  0.4111  0.0597
   15MOL    C51 4559   4.252   3.810   7.504 -0.4876 -0.5438  0.2099
   15MOL    O52 4560   4.355   3.774   7.419  0.2864  0.1866  0.3876
   15MOL    C53 4561   4.321   3.704   7.307  0.0542  0.4391  0.1169
   15MOL    C54 4562   4.288   3.561   7.342 -0.6671  0.0940  0.5324
   15MOL    C55 4563   4.443   3.717   7.218 -0.7909 -1.5489 -0.1483
   15MOL    H56 4564   4.248   3.877   7.709 -0.4380  0.0649  0.2298
   15MOL    H57 4565   4.401   3.897   7.628 -0.4334  0.8099  1.2936
   15MOL    H58 4566   4.180   3.728   7.504  0.2756 -1.2157  1.2654
   15MOL    H59 4567   4.242   3.751   7.248 -0.0461  0.3302  0.1633
   15MOL    H60 4568   4.378   3.512   7.378 -1.5852 -0.5500  2.0311
   15MOL    H61 4569   4.266   3.517   7.245 -2.8159  1.0400  0.5435
   15MOL    H62 4570   4.215   3.530   7.417 -1.1076  0.7718  0.3868
   15MOL    H63 4571   4.439   3.818   7.176 -0.9532 -1.7208 -0.5500
   15MOL    H64 4572   4.444   3.661   7.125  1.1978  0.0480 -1.1087
   15MOL    H65 4573   4.536   3.718   7.274 -1.0063 -1.5653  0.2142
   15MOL    C66 4574   4.196   3.941   7.457  0.5062  0.3047  0.2088
   15MOL    C67 4575   4.055   3.977   7.511  0.6194  0.3127 -0.1980
   15MOL    O68 4576   3.957   3.883   7.454 -0.0530  0.1880 -0.4396
   15MOL    C69 4577   3.881   3.807   7.541 -0.1042 -0.5585 -0.0205
   15MOL    C70 4578   3.759   3.885   7.585  1.0468  0.2021 -0.4838
   15MOL    C71 4579   3.853   3.675   7.456 -0.2882 -0.0153  0.2283
   15MOL    H72 4580   4.272   4.019   7.464  1.2716 -0.4954  0.8842
   15MOL    H73 4581   4.184   3.924   7.349  1.6709  1.0403 -0.0450
   15MOL    H74 4582   4.057   3.979   7.620  0.5990  0.8388 -0.2075
   15MOL    H75 4583   3.942   3.778   7.626  0.6973 -0.2622 -0.4817
   15MOL    H76 4584   3.794   3.985   7.612  0.4817  0.7449 -1.6849
   15MOL    H77 4585   3.680   3.892   7.510 -0.0819 -0.9483  0.5756
   15MOL    H78 4586   3.712   3.830   7.666  1.6492  1.3061  0.6295
   15MOL    H79 4587   3.782   3.693   7.375 -0.1084  1.2590  0.3326
   15MOL    H80 4588   3.818   3.599   7.525  0.5212  0.9263  1.7259
   15MOL    H81 4589   3.949   3.645   7.414 -0.6737 -0.5308 -0.2892
   15MOL    C82 4590   4.016   4.114   7.455 -0.0007 -0.2547 -0.1364
   15MOL    C83 4591   4.051   4.236   7.545 -0.8510 -0.2039 -0.4289
   15MOL    O84 4592   4.195   4.240   7.561 -0.4756 -0.5888 -0.1419
   15MOL    C85 4593   4.246   4.287   7.686 -1.2263  0.8743  0.4488
   15MOL    C86 4594   4.388   4.310   7.661  0.3572 -0.1011  0.0638
   15MOL    C87 4595   4.219   4.190   7.799 -0.1501  0.5640  0.5425
   15MOL    H88 4596   4.058   4.133   7.356 -0.3808  1.1928 -0.0285
   15MOL    H89 4597   3.909   4.107   7.437 -0.2522  2.1827  0.2921
   15MOL    H90 4598   3.998   4.223   7.639  1.9299  0.9803  1.3593
   15MOL    H91 4599   4.195   4.381   7.708  0.6503  1.6273  1.8260
   15MOL    H92 4600   4.453   4.227   7.636 -0.8153 -0.6169 -1.3728
   15MOL    H93 4601   4.380   4.389   7.585  0.4665 -2.1869 -2.1779
   15MOL    H94 4602   4.419   4.356   7.754 -1.7964 -0.6403  1.0802
   15MOL    H95 4603   4.257   4.093   7.768 -1.3457  0.5490 -0.9112
   15MOL    H96 4604   4.269   4.221   0.071  0.7198 -0.7405  0.5347
   15MOL    H97 4605   4.111   4.190   7.815 -0.3271  1.5363 -0.5868
   15MOL    C98 4606   4.003   4.372   7.489  0.2640  0.1338  0.4603
   15MOL    C99 4607   3.848   4.383   7.470  0.0337 -0.2302  0.0454
   15MOL   O100 4608   3.763   4.335   7.569 -0.0260  0.3509 -0.3531
   15MOL   C101 4609   3.768   4.401   7.695  0.2560  0.2879  0.2309
   15MOL   C102 4610   3.681   4.311   7.783  0.4645  0.0411 -0.0426
   15MOL   C103 4611   3.722   4.547   7.677 -0.1031 -0.5253  0.2793
   15MOL   H104 4612   4.042   4.446   7.560  1.9541 -2.0057  1.8180
   15MOL   H105 4613   4.059   4.395   7.398  1.8218  0.2675  1.4293
   15MOL   H106 4614   3.825   4.488   7.449 -1.4578 -0.0086  2.4950
   15MOL   H107 4615   3.868   4.387   7.737 -0.1590 -1.6977  0.6485
   15MOL   H108 4616   3.713   4.209   7.765  2.7471  1.3434 -4.0199
   15MOL   H109 4617   3.574   4.319   7.769  0.4811  1.0596  0.3519
   15MOL   H110 4618   3.691   4.322   0.071  2.9638  0.5163 -0.2867
   15MOL   H111 4619   3.780   4.607   7.607 -0.7957  0.2572  0.3598
   15MOL   H112 4620   3.708   4.604   7.769 -0.4208  1.3915 -0.9150
   15MOL   H113 4621   3.619   4.546   7.641 -0.6520 -0.4536  1.7760
   15MOL   C114 4622   3.801   4.325   7.335  0.8775 -0.7419  0.3099
   15MOL   C115 4623   3.686   4.400   7.275 -0.0054 -0.9435 -0.4204
   15MOL   O116 4624   3.739   4.496   7.184  0.3073 -0.3801  0.5804
   15MOL   C117 4625   3.724   4.639   7.211  0.1297 -0.8069 -0.3008
   15MOL   C118 4626   3.614   4.706   7.120 -0.2400  0.0061  0.1652
   15MOL   C119 4627   3.859   4.702   7.191 -0.4184 -0.2946  0.0932
   15MOL   H120 4628   3.777   4.220   7.350  1.0386 -0.7457  0.5635
   15MOL   H121 4629   3.882   4.326   7.261 -0.5675 -1.1150 -1.3103
   15MOL   H122 4630   3.621   4.442   7.351  0.1945 -0.2411 -0.6342
   15MOL   H123 4631   3.707   4.661   7.316  0.6432 -0.6469 -0.2495
   15MOL   H124 4632   3.642   4.704   7.015 -1.6848  1.0378 -0.2534
   15MOL   H125 4633   3.616   4.810   7.151  0.9714  0.2513 -0.6725
   15MOL   H126 4634   3.512   4.669   7.128  0.0652 -1.0322 -0.5391
   15MOL   H127 4635   3.933   4.645   7.247  0.8800 -0.1535 -1.4321
   15MOL   H128 4636   3.863   4.805   7.226 -1.0132 -1.1966  2.9248
   15MOL   H129 4637   3.889   4.706   7.086 -1.6038 -0.1246 -0.2523
   15MOL   C130 4638   3.606   4.311   7.181 -0.3355 -0.0927 -0.0355
   15MOL   C131 4639   3.502   4.215   7.251 -0.6556  0.0918  0.6746
   15MOL   O132 4640   3.490   4.103   7.164  0.7792  0.0947 -0.0714
   15MOL   C133 4641   3.583   3.996   7.178 -0.0874  0.3274 -0.0550
   15MOL   C134 4642   3.530   3.907   7.283  0.1734  0.1254 -0.5461
   15MOL   C135 4643   3.606   3.913   7.056 -1.0028 -0.4569 -0.7066
   15MOL   H136 4644   3.676   4.255   7.119  0.0135  2.9098 -2.4783
   15MOL   H137 4645   3.554   4.372   7.107 -1.8521  0.4871  1.4638
   15MOL   H138 4646   3.539   4.184   7.349  0.9779  2.1715  0.7625
   15MOL   H139 4647   3.675   4.048   7.204 -0.2969 -0.3272  2.0592
   15MOL   H140 4648   3.496   3.953   7.376 -2.3828 -3.0012  0.1799
   15MOL   H141 4649   3.604   3.835   7.318  0.2233  0.8481  0.8846
   15MOL   H142 4650   3.445   3.846   7.251  1.0579 -1.4889  0.1284
   15MOL   H143 4651   3.651   3.819   7.089  1.3497  0.2092 -1.9554
   15MOL   H144 4652   3.514   3.898   6.998 -3.1803  1.4006  2.1122
   15MOL   H145 4653   3.673   3.959   6.984 -1.2184  0.3622 -0.3920
   15MOL   C146 4654   3.365   4.285   7.250  0.0798  0.4757 -0.6663
   15MOL   C147 4655   3.262   4.218   7.347 -0.4081 -0.8024 -0.4328
   15MOL   O148 4656   3.285   4.271   7.476  0.8070 -0.0979  0.2883
   15MOL   C149 4657   3.225   4.195   7.580  1.0233 -0.4461 -0.1275
   15MOL   C150 4658   3.199   4.294   7.689  0.2408  0.0899 -0.1069
   15MOL   C151 4659   3.318   4.074   7.610 -0.1341  0.2602 -0.8179
   15MOL   H152 4660   3.325   4.274   7.149 -0.9504  0.3930 -0.2562
   15MOL   H153 4661   3.371   4.392   7.267 -1.4480  0.6674 -1.2282
   15MOL   H154 4662   3.282   4.111   7.350  0.3389 -0.6977 -1.5042
   15MOL   H155 4663   3.128   4.149   7.562  0.3378  0.6037  0.8609
   15MOL   H156 4664   3.134   4.241   7.759  2.2943 -0.5516  1.3578
   15MOL   H157 4665   3.154   4.387   7.655 -0.3268 -0.3266 -0.5079
   15MOL   H158 4666   3.290   4.313   7.745  1.1307 -0.9168 -1.1782
   15MOL   H159 4667   3.421   4.110   7.616  0.1226 -0.6762  0.6665
   15MOL   H160 4668   3.318   4.011   7.521  1.2047  0.7079 -1.1457
   15MOL   H161 4669   3.292   4.014   7.697 -0.0195  0.9503 -0.3070
   15MOL   C162 4670   3.115   4.237   7.302 -0.3513  0.2112  0.0024
   15MOL   C163 4671   3.065   4.149   7.179 -0.0489  0.5584 -0.0137
   15MOL   O164 4672   3.061   4.011   7.223 -0.1499  0.8485 -0.2180
   15MOL   C165 4673   3.163   3.920   7.177  0.0240 -0.4183 -0.1508
   15MOL   C166 4674   3.144   3.866   7.030 -0.3178 -0.3730 -0.5297
   15MOL   C167 4675   3.158   3.807   7.285 -0.5559 -0.0050  0.3671
   15MOL   H168 4676   3.053   4.208   7.387  0.0000 -4.8992 -1.3466
   15MOL   H169 4677   3.087   4.341   7.288 -0.4117 -0.0472 -1.9267
   15MOL   H170 4678   3.130   4.166   7.094 -0.5981  0.2891 -0.4883
   15MOL   H171 4679   3.258   3.965   7.204 -0.9635 -0.0001  2.8700
   15MOL   H172 4680   3.119   3.957   6.976 -3.9699 -1.1483 -0.2317
   15MOL   H173 4681   3.053   3.807   7.024  1.2632 -2.9355 -0.3295
   15MOL   H174 4682   3.224   3.809   6.984  1.5108  1.3398  0.4388
   15MOL   H175 4683   3.056   3.768   7.278 -0.5638  0.0477  0.1865
   15MOL   H176 4684   3.183   3.844   7.384  1.8208  1.1498 -0.6150
   15MOL   H177 4685   3.225   3.721   7.277 -0.7046  0.1033 -2.5805
   15MOL   C178 4686   2.916   4.160   7.147  0.0020  0.6740  0.1264
   15MOL   C179 4687   2.881   4.286   7.066 -0.7759  0.3279  0.4237
   15MOL   O180 4688   2.953   4.406   7.100  0.3563 -0.0662  0.0612
   15MOL   C181 4689   2.876   4.510   7.152  0.0759 -0.3155 -0.3067
   15MOL   C182 4690   2.961   4.641   7.150 -0.8200 -0.3567 -0.1547
   15MOL   C183 4691   2.838   4.481   7.297 -0.4547  0.3532  0.2308
   15MOL   H184 4692   2.846   4.152   7.229 -1.5992  0.9967 -1.1922
   15MOL   H185 4693   2.898   4.066   7.095 -0.8567  0.8878  0.0357
   15MOL   H186 4694   2.775   4.310   7.068 -0.2026  3.2184 -0.7669
   15MOL   H187 4695   2.790   4.518   7.086 -0.4992  3.6402  0.7598
   15MOL   H188 4696   2.909   4.723   7.199 -2.2542 -1.7737  0.7555
   15MOL   H189 4697   2.970   4.664   7.044  1.2429  1.4115  0.3946
   15MOL   H190 4698   3.058   4.613   7.191 -1.0718 -0.3784  0.4460
   15MOL   H191 4699   2.802   4.381   7.321 -1.9039  0.2344 -2.3049
   15MOL   H192 4700   2.758   4.545   7.335 -1.4732 -0.5022 -0.4533
   15MOL   H193 4701   2.922   4.497   7.364 -1.5059  2.3805  1.1031
   15MOL   C194 4702   2.883   4.255   6.917  0.1657 -0.1519 -0.1199
   15MOL   C195 4703   2.783   4.142   6.873 -0.3438  0.0930 -0.4236
   15MOL   O196 4704   2.822   4.138   6.739 -0.0844 -0.6363  0.1139
   15MOL   C197 4705   2.798   4.008   6.673  0.1237  0.4178  0.2159
   15MOL   C198 4706   2.779   4.030   6.526 -0.4526 -0.8995  0.2036
   15MOL   C199 4707   2.921   3.917   6.718  0.8283 -0.3692 -0.1178
   15MOL   H200 4708   2.859   4.345   6.861  1.1248 -0.2927 -0.7750
   15MOL   H201 4709   2.988   4.230   6.900  0.4717  1.2185 -0.3287
   15MOL   H202 4710   2.816   4.046   6.914  1.1013  1.0301  0.6933
   15MOL   H203 4711   2.704   3.977   6.718  0.8148  0.7393  1.9498
   15MOL   H204 4712   2.758   3.929   6.491  2.4348 -0.9705 -1.4607
   15MOL   H205 4713   2.688   4.085   6.502  0.2582 -0.1113 -0.7478
   15MOL   H206 4714   2.870   4.062   6.476  0.9697  0.3208  3.4504
   15MOL   H207 4715   2.931   3.832   6.650 -0.0674  0.2801 -1.0663
   15MOL   H208 4716   3.015   3.970   6.703  0.8155 -0.4609 -0.5194
   15MOL   H209 4717   2.914   3.883   6.822 -0.1317  3.0336  0.9882
   15MOL   C210 4718   2.636   4.178   6.887 -0.3920  0.2667 -0.0237
   15MOL   C211 4719   2.569   4.107   7.007  0.0039  0.1052  0.1718
   15MOL   O212 4720   2.456   4.181   7.044  0.0616  0.1286  0.4858
   15MOL   C213 4721   2.471   4.270   7.156  0.3406 -0.3918  0.0587
   15MOL   C214 4722   2.381   4.398   7.130 -0.2808  0.1595 -0.1289
   15MOL   C215 4723   2.422   4.179   7.275  0.3931 -1.0410 -0.5997
   15MOL   H216 4724   2.588   4.151   6.793 -1.3107  0.6076  0.3531
   15MOL   H217 4725   2.620   4.285   6.883  3.5605  0.9225 -1.1325
   15MOL   H218 4726   2.646   4.103   7.084 -2.9752 -1.0550  3.2600
   15MOL   H219 4727   2.572   4.309   7.161 -0.5550  1.8837  0.9650
   15MOL   H220 4728   2.412   4.439   7.034 -0.7058 -2.6001 -1.5104
   15MOL   H221 4729   2.394   4.467   7.213  2.2722  0.5429 -0.7978
   15MOL   H222 4730   2.279   4.362   7.118 -0.2613 -0.0965  0.4256
   15MOL   H223 4731   2.490   4.098   7.303  0.9327 -0.5089 -0.3406
   15MOL   H224 4732   2.323   4.140   7.252 -0.9200  1.1253  1.2077
   15MOL   H225 4733   2.409   4.251   7.356  0.2426 -1.1463 -0.5321
   15MOL   C226 4734   2.531   3.965   6.967  0.7947 -0.1914 -0.1524
   15MOL   C227 4735   2.498   3.884   7.086 -0.4205  0.0303  0.0863
   15MOL   O228 4736   2.623   3.889   7.151 -0.2853  0.5660 -0.1943
   15MOL   C229 4737   2.639   3.819   7.275  0.1821 -0.2163 -0.6276
   15MOL   C230 4738   2.724   3.908   7.361 -1.1086 -0.4191 -0.2259
   15MOL   C231 4739   2.723   3.691   7.254  0.1491 -0.0211 -0.2621
   15MOL   H232 4740   2.613   3.913   6.917 -1.0667 -1.9234 -1.4318
   15MOL   H233 4741   2.454   3.975   6.891  1.4662  2.0084 -0.6067
   15MOL   H234 4742   2.422   3.928   7.150 -1.0218 -0.0998 -0.5307
   15MOL   H235 4743   2.546   3.786   7.323  2.0647 -1.8875  2.0037
   15MOL   H236 4744   2.675   3.999   7.396  0.3585  1.3219 -2.5181
   15MOL   H237 4745   2.765   3.869   7.454 -1.8319 -0.9623 -0.1344
   15MOL   H238 4746   2.812   3.936   7.303 -0.5565 -1.0612  0.2908
   15MOL   H239 4747   2.819   3.708   7.206  1.6821  0.2024  2.7306
   15MOL   H240 4748   2.664   3.630   7.186 -0.4594  1.7356 -1.3604
   15MOL   H241 4749   2.733   3.644   7.352  0.4119 -3.1455 -1.7312
   15MOL   C242 4750   2.463   3.735   7.045  0.5907  0.5208  0.3469
   15MOL   C243 4751   2.323   3.715   6.982 -0.3521  1.1060  0.2488
   15MOL   O244 4752   2.226   3.744   7.077  0.6223 -0.1165 -0.6173
   15MOL   C245 4753   2.166   3.872   7.078 -0.2407 -0.0033 -0.0634
   15MOL   C246 4754   2.042   3.861   6.992 -0.2910  0.3469 -0.0899
   15MOL   C247 4755   2.143   3.901   7.222  0.0825  0.0441  0.1685
   15MOL   H248 4756   2.538   3.687   6.983 -0.4677 -2.3818  1.2572
   15MOL   H249 4757   2.465   3.678   7.137  0.2460 -1.9766 -1.1599
   15MOL   H250 4758   2.317   3.779   6.893 -1.4651  1.1771  0.3699
   15MOL   H251 4759   2.238   3.942   7.035 -1.3518  1.5990  0.6297
   15MOL   H252 4760   2.062   3.823   6.892  0.9433  0.1494  0.2171
   15MOL   H253 4761   1.967   3.797   7.038 -1.6355  0.9190 -1.4375
   15MOL   H254 4762   1.986   3.953   6.977 -2.3537 -0.5495  1.8916
   15MOL   H255 4763   2.056   3.843   7.254 -1.1870  1.4778 -0.6470
   15MOL   H256 4764   2.233   3.871   7.276 -1.2214 -0.7986  1.9233
   15MOL   H257 4765   2.119   4.005   7.241 -3.2229 -0.3555 -1.5289
   15MOL   C258 4766   2.290   3.571   6.951  0.0416  0.1362 -0.3854
   15MOL   C259 4767   2.378   3.501   6.841 -0.7043 -0.6772 -0.0562
   15MOL   O260 4768   2.400   3.592   6.741  0.5834  0.6865  0.2460
   15MOL   C261 4769   2.504   3.572   6.642 -0.2620  0.4805 -0.2083
   15MOL   C262 4770   2.418   3.544   6.519  0.1995  0.8361  0.2076
   15MOL   C263 4771   2.585   3.702   6.638  0.1227  0.3100 -0.0356
   15MOL   H264 4772   2.281   3.507   7.039 -0.1957  0.1157 -0.4226
   15MOL   H265 4773   2.185   3.577   6.921 -0.0814  2.4222  0.4140
   15MOL   H266 4774   2.475   3.473   6.881 -0.2384  0.9408 -0.0300
   15MOL   H267 4775   2.561   3.479   6.654 -2.3816 -0.9922 -1.2030
   15MOL   H268 4776   2.350   3.460   6.514  1.3027 -0.0850  0.3919
   15MOL   H269 4777   2.469   3.554   6.423 -0.2124  1.5219  0.0569
   15MOL   H270 4778   2.353   3.631   6.509 -0.6706  0.5643  3.1638
   15MOL   H271 4779   2.680   3.698   6.585  1.4761 -0.0850  2.3590
   15MOL   H272 4780   2.536   3.784   6.586  0.0382  1.4231  1.7746
   15MOL   H273 4781   2.596   3.750   6.735  1.7616  0.0927 -0.0910
   15MOL   C274 4782   2.303   3.377   6.781  0.1017 -0.9938  0.2110
   15MOL   C275 4783   2.262   3.270   6.876 -0.2121 -0.1803  0.0960
   15MOL   O276 4784   2.222   3.167   6.789 -0.5911  0.0476 -0.1490
   15MOL   C277 4785   2.098   3.106   6.815 -0.0141 -0.4197  0.1156
   15MOL   C278 4786   2.088   2.961   6.773  0.1351  0.4366  1.1857
   15MOL   C279 4787   2.001   3.198   6.749 -0.4661  0.0966 -0.0732
   15MOL   H280 4788   2.217   3.420   6.729  0.1822 -1.9262 -0.7100
   15MOL   H281 4789   2.371   3.330   6.710  0.1674  0.7769 -0.9285
   15MOL   H282 4790   2.173   3.309   6.925 -0.8043 -2.5466  0.9905
   15MOL   H283 4791   2.077   3.113   6.922  0.8745 -2.9594  0.4907
   15MOL   H284 4792   2.119   2.961   6.668  2.1206 -3.0777  1.6989
   15MOL   H285 4793   2.160   2.903   6.831 -0.8594  0.3033  2.3095
   15MOL   H286 4794   1.994   2.909   6.790  0.4266 -0.2278  0.8075
   15MOL   H287 4795   1.903   3.152   6.737 -1.7433  2.2176  1.8577
   15MOL   H288 4796   2.036   3.220   6.648 -1.6475 -0.2525 -0.5713
   15MOL   H289 4797   1.987   3.298   6.790  1.7585  0.5740 -0.3902
   15MOL   C290 4798   2.374   3.227   6.976 -0.7357  0.4774 -0.1487
   15MOL   C291 4799   2.346   3.105   7.058 -1.0471  0.3122 -0.0376
   15MOL   O292 4800   2.465   3.065   7.117 -0.1533  0.2540 -0.0938
   15MOL   C293 4801   2.493   2.923   7.108  0.2807 -0.3185 -0.2291
   15MOL   C294 4802   2.573   2.876   7.232 -0.6888 -0.0593 -0.0645
   15MOL   C295 4803   2.568   2.883   6.981 -0.4946 -0.0818 -0.0589
   15MOL   H296 4804   2.403   3.310   7.040  2.6604 -1.9739  1.6078
   15MOL   H297 4805   2.463   3.215   6.915 -0.3161 -1.1244  0.7539
   15MOL   H298 4806   2.315   3.027   6.988  0.5702  1.1086 -1.6623
   15MOL   H299 4807   2.399   2.867   7.102  1.1642 -1.8895  0.5344
   15MOL   H300 4808   2.672   2.920   7.249  0.9423 -3.4907 -0.3106
   15MOL   H301 4809   2.509   2.883   7.320  0.6655  0.2240  0.9177
   15MOL   H302 4810   2.604   2.772   7.243 -0.6095  0.0628  0.9749
   15MOL   H303 4811   2.664   2.933   6.978 -0.1767 -0.5277  1.8415
   15MOL   H304 4812   2.600   2.779   6.974  1.7157  0.6941 -2.1117
   15MOL   H305 4813   2.509   2.904   6.892  0.1674  1.3008 -0.1729
   15MOL   C306 4814   2.243   3.116   7.174  0.0483 -0.1998  0.0308
   15MOL   C307 4815   2.261   3.196   7.308 -0.5058  0.2028 -0.0797
   15MOL   O308 4816   2.264   3.336   7.271 -0.6691  0.7348 -1.4198
   15MOL   C309 4817   2.298   3.425   7.373  0.6439  0.2680 -0.3090
   15MOL   C310 4818   2.452   3.430   7.394 -0.4156  0.7888 -0.0657
   15MOL   C311 4819   2.243   3.563   7.333 -0.1109 -0.1037 -0.2433
   15MOL   H312 4820   2.219   3.014   7.202  0.3681 -0.2284  0.1971
   15MOL   H313 4821   2.143   3.139   7.138 -0.9918 -2.0194  1.6626
   15MOL   H314 4822   2.170   3.171   7.361  0.9767 -1.7548  1.6114
   15MOL   H315 4823   2.248   3.407   7.468 -0.9817 -1.3207 -1.4303
   15MOL   H316 4824   2.505   3.339   7.364 -2.0613 -0.2074 -0.0122
   15MOL   H317 4825   2.491   3.431   7.496  1.8208  0.4993 -0.8978
   15MOL   H318 4826   2.505   3.505   7.335 -0.1605 -0.9275 -2.0814
   15MOL   H319 4827   2.148   3.558   7.280  0.6150 -1.4956 -1.4454
   15MOL   H320 4828   2.307   3.625   7.270  1.4775  1.6434  2.9379
   15MOL   H321 4829   2.223   3.615   7.427 -0.5375  1.6874 -1.2963
   15MOL   H322 4830   2.346   3.157   7.364 -0.3195  2.5852  1.3506
   16MOL     C1 4831   7.340   2.675   3.622  0.4430  0.0386 -0.1213
   16MOL     C2 4832   7.216   2.760   3.639 -0.2645 -0.3543  0.5877
   16MOL     O3 4833   7.111   2.662   3.652 -0.1856 -0.8567  0.2349
   16MOL     C4 4834   6.989   2.699   3.591 -0.0674 -0.9819  0.3384
   16MOL     C5 4835   6.890   2.611   3.661 -0.1565 -0.7882  0.1978
   16MOL     C6 4836   6.989   2.668   3.437  0.4392 -0.6671 -0.3673
   16MOL     H7 4837   7.334   2.622   3.527  1.0520 -0.6863  0.2409
   16MOL     H8 4838   7.424   2.744   3.610  1.4539 -1.1606 -0.0104
   16MOL     H9 4839   7.207   2.819   3.547  0.2570 -1.3187 -0.0879
   16MOL    H10 4840   6.968   2.804   3.614  1.5024 -0.4883 -0.4255
   16MOL    H11 4841   6.911   2.619   3.767 -1.1113  0.5277  0.2888
   16MOL    H12 4842   6.783   2.628   3.646 -0.1953 -2.2022 -1.4066
   16MOL    H13 4843   6.906   2.510   3.621 -1.3816 -0.9444  0.0644
   16MOL    H14 4844   7.013   2.564   3.418  4.0083 -0.0615  0.4767
   16MOL    H15 4845   6.894   2.696   3.393  0.3402 -1.2277 -0.5065
   16MOL    H16 4846   7.066   2.723   3.384  0.1150 -1.1352 -1.3343
   16MOL    H17 4847   7.350   2.607   3.706  0.4472  0.7350  0.4418
   16MOL    C18 4848   7.201   2.856   3.754 -0.3269  0.1107 -0.1012
   16MOL    C19 4849   7.309   2.969   3.756 -0.2698 -0.2041  0.7759
   16MOL    O20 4850   7.280   3.061   3.863  0.2398 -0.1112 -0.4034
   16MOL    C21 4851   7.264   3.010   3.994 -0.1432 -0.8013  0.6897
   16MOL    C22 4852   7.255   3.139   4.069  0.2618 -0.3368 -0.0503
   16MOL    C23 4853   7.389   2.928   4.037  0.3212 -0.1599 -0.3191
   16MOL    H24 4854   7.099   2.896   3.753 -0.6842 -0.7642  0.7587
   16MOL    H25 4855   7.209   2.794   3.843 -0.5883 -0.7517 -0.6654
   16MOL    H26 4856   7.410   2.929   3.762 -0.4181 -0.6205  0.5147
   16MOL    H27 4857   7.180   2.941   3.998  1.0042 -2.5405 -2.7702
   16MOL    H28 4858   7.164   3.195   4.046 -1.0031 -2.8829 -1.5707
   16MOL    H29 4859   7.253   3.123   4.177 -1.9593 -0.4671 -0.0761
   16MOL    H30 4860   7.341   3.202   4.048  0.5025 -0.6358  0.0386
   16MOL    H31 4861   7.402   2.918   4.145  0.5371  1.1659 -0.2054
   16MOL    H32 4862   7.482   2.979   4.011  0.6336  0.4897  1.9823
   16MOL    H33 4863   7.401   2.836   3.981  1.9369 -0.2200  0.1124
   16MOL    C34 4864   7.303   3.065   3.629 -0.1720 -0.5224 -0.8184
   16MOL    C35 4865   7.426   3.157   3.616  0.4349 -0.1119  0.1355
   16MOL    O36 4866   7.535   3.062   3.593 -0.3303 -0.0082  0.1411
   16MOL    C37 4867   7.666   3.099   3.652  0.7193  1.1096 -0.4500
   16MOL    C38 4868   7.664   3.007   3.775 -0.2773  0.1499  0.2608
   16MOL    C39 4869   7.789   3.060   3.566  0.4680  0.2042 -0.1572
   16MOL    H40 4870   7.213   3.126   3.636 -0.9552 -1.2517 -3.7134
   16MOL    H41 4871   7.290   2.997   3.545 -0.5595  0.3975 -1.5101
   16MOL    H42 4872   7.443   3.205   3.713  0.7030  0.0348  0.0181
   16MOL    H43 4873   7.672   3.203   3.684 -2.4448  1.0206  0.6548
   16MOL    H44 4874   7.622   2.907   3.759 -2.0201  1.0800 -1.1204
   16MOL    H45 4875   7.592   3.054   3.842  0.5700  2.4906 -0.4526
   16MOL    H46 4876   7.765   3.010   3.816  0.5841 -0.7609 -1.7117
   16MOL    H47 4877   7.819   3.147   3.507 -2.2245 -0.5006 -2.6499
   16MOL    H48 4878   0.055   3.016   3.617  0.0580 -1.5037 -0.9134
   16MOL    H49 4879   7.760   2.986   3.492 -0.6215  0.0357  0.4350
   16MOL    C50 4880   7.424   3.258   3.495 -0.0631 -0.5609  0.7499
   16MOL    C51 4881   7.309   3.371   3.504 -0.2099  0.0413 -0.3892
   16MOL    O52 4882   7.307   3.441   3.382  0.0170 -0.1222 -0.4047
   16MOL    C53 4883   7.220   3.392   3.279  0.0948  0.0454 -0.7979
   16MOL    C54 4884   7.258   3.473   3.153  0.2089  0.0478 -0.0714
   16MOL    C55 4885   7.070   3.382   3.305 -0.0853 -0.3994 -0.1056
   16MOL    H56 4886   7.521   3.308   3.485  1.1455 -2.7868  1.0191
   16MOL    H57 4887   7.410   3.194   3.408 -1.4432 -1.6874  1.7908
   16MOL    H58 4888   7.211   3.326   3.521 -0.5890  1.6433  1.8695
   16MOL    H59 4889   7.250   3.288   3.262 -3.7456 -0.9630 -1.7415
   16MOL    H60 4890   7.363   3.483   3.126  0.4003 -2.8098 -0.6035
   16MOL    H61 4891   7.224   3.575   3.168  0.2587  0.4941 -2.7627
   16MOL    H62 4892   7.212   3.429   3.065  0.2340  1.0392 -0.5876
   16MOL    H63 4893   7.061   3.319   3.393  0.7320  0.4826  0.6201
   16MOL    H64 4894   7.028   3.359   3.207 -1.7595  3.2730 -0.3168
   16MOL    H65 4895   7.021   3.475   3.334  2.1846  0.2109  1.9094
   16MOL    C66 4896   7.322   3.487   3.603  0.7005  0.5541 -0.1084
   16MOL    C67 4897   7.253   3.467   3.740 -0.5771 -0.4687  0.2226
   16MOL    O68 4898   7.113   3.481   3.723 -0.4736  0.1615 -0.1030
   16MOL    C69 4899   7.032   3.395   3.803  0.8166 -0.5116  0.2123
   16MOL    C70 4900   6.905   3.475   3.853  0.4637 -0.3384  0.0608
   16MOL    C71 4901   6.985   3.284   3.715  0.8056 -0.0975  0.2871
   16MOL    H72 4902   7.430   3.499   3.616  0.7886 -1.4256  1.2641
   16MOL    H73 4903   7.293   3.586   3.570  3.0724  2.3096  2.7095
   16MOL    H74 4904   7.271   3.366   3.775  3.2328  0.7357  1.9636
   16MOL    H75 4905   7.092   3.366   3.889  3.2216 -0.6318 -1.4718
   16MOL    H76 4906   6.856   3.412   3.927  0.1143  0.3601  0.4375
   16MOL    H77 4907   6.929   3.571   3.899  2.1398 -1.0742  0.7715
   16MOL    H78 4908   6.836   3.508   3.776  1.4221  1.1526 -0.1875
   16MOL    H79 4909   6.952   3.197   3.772  3.5465 -0.4365  1.4503
   16MOL    H80 4910   7.062   3.247   3.648  0.9354  0.8649 -0.1001
   16MOL    H81 4911   6.906   3.323   3.650  0.7906  2.3102  1.6685
   16MOL    C82 4912   7.289   3.582   3.841 -0.4565 -0.4715 -0.7068
   16MOL    C83 4913   7.440   3.600   3.883 -0.0506  0.1780  0.3856
   16MOL    O84 4914   7.461   3.701   3.985 -1.0681  0.2553  0.0109
   16MOL    C85 4915   7.486   3.832   3.932 -0.4479  0.5459 -0.4763
   16MOL    C86 4916   7.640   3.853   3.909 -0.0217 -0.5156  0.3589
   16MOL    C87 4917   7.447   3.934   4.048  0.0365 -0.3621 -0.0510
   16MOL    H88 4918   7.255   3.672   3.791 -1.7158 -0.3504  0.3416
   16MOL    H89 4919   7.231   3.584   3.933  1.3833  1.1423  0.4619
   16MOL    H90 4920   7.487   3.621   3.787 -1.0721  0.8614  0.0325
   16MOL    H91 4921   7.430   3.851   3.841  1.0226 -1.2222 -1.7640
   16MOL    H92 4922   7.687   3.786   3.837  1.6211  2.0823 -1.0614
   16MOL    H93 4923   7.651   3.957   3.876 -0.0645  0.0128  1.9881
   16MOL    H94 4924   7.697   3.839   4.000 -2.9277 -1.2482  2.1270
   16MOL    H95 4925   7.339   3.944   4.050 -0.0419 -0.8016 -1.8548
   16MOL    H96 4926   7.488   3.891   4.140 -0.1036 -0.6607 -0.1276
   16MOL    H97 4927   7.497   4.028   4.028 -1.4655  0.7603  1.3190
   16MOL    C98 4928   7.498   3.469   3.936 -0.2318  0.3750 -0.2158
   16MOL    C99 4929   7.645   3.449   3.906 -0.4592 -0.9247  0.0754
   16MOL   O100 4930   7.658   3.440   3.766 -0.2175 -0.2882 -0.2606
   16MOL   C101 4931   7.778   3.502   3.702 -0.0404  0.3556  0.0504
   16MOL   C102 4932   7.742   3.492   3.557 -0.0719 -0.1832 -0.3867
   16MOL   C103 4933   0.079   3.417   3.740  0.2037  0.5063 -0.3544
   16MOL   H104 4934   7.488   3.467   4.044  2.4666 -0.0748  0.0516
   16MOL   H105 4935   7.439   3.388   3.891 -2.6548  2.4364 -0.8347
   16MOL   H106 4936   7.694   3.541   3.938 -1.3715  0.4760 -2.4711
   16MOL   H107 4937   7.798   3.604   3.733  2.6404  0.1468 -0.8861
   16MOL   H108 4938   7.816   3.543   3.496  1.1062 -0.0618  1.1307
   16MOL   H109 4939   7.648   3.544   3.534 -0.4937  0.2791  2.2251
   16MOL   H110 4940   7.736   3.384   3.543  3.1799 -0.6049  1.1528
   16MOL   H111 4941   0.062   3.309   3.740 -1.9392  0.8352  0.1037
   16MOL   H112 4942   0.104   3.443   3.843 -0.9358  0.7088 -0.1269
   16MOL   H113 4943   0.168   3.433   3.678 -1.1576 -0.5152 -2.6100
   16MOL   C114 4944   7.706   3.329   3.983 -0.1656  0.6395  0.1938
   16MOL   C115 4945   7.715   3.341   4.138  0.3011  0.0621 -0.1244
   16MOL   O116 4946   7.748   3.216   4.190  0.0460  0.1018 -0.0170
   16MOL   C117 4947   7.643   3.130   4.228  0.4801 -0.5009 -1.0167
   16MOL   C118 4948   7.596   3.148   4.375 -0.1113 -0.0148  0.5343
   16MOL   C119 4949   7.697   2.985   4.210  0.0434 -0.4975  0.3710
   16MOL   H120 4950   7.804   3.295   3.949  0.4638 -0.0971  2.6273
   16MOL   H121 4951   7.657   3.239   3.947 -0.2493 -0.5923  3.2434
   16MOL   H122 4952   7.619   3.371   4.181  1.4639  0.0658  2.5286
   16MOL   H123 4953   7.558   3.138   4.159 -1.6619 -0.9582  1.4881
   16MOL   H124 4954   7.691   3.131   4.426 -0.4624 -1.7861  0.6086
   16MOL   H125 4955   7.516   3.079   4.400 -0.3487  1.0209  2.7452
   16MOL   H126 4956   7.559   3.247   4.402 -1.2938 -0.6527  1.2964
   16MOL   H127 4957   7.630   2.906   4.244 -0.0520 -1.2418 -1.4706
   16MOL   H128 4958   7.796   2.975   4.254 -1.2189  2.6172  4.1650
   16MOL   H129 4959   7.715   2.972   4.103 -0.1333  0.2475  0.2494
   16MOL   C130 4960   0.008   3.435   4.186  0.7079  0.2630  0.4631
   16MOL   C131 4961   0.031   3.431   4.335 -0.2234  0.3037  0.2695
   16MOL   O132 4962   7.782   3.541   4.387 -0.3306  0.3218 -0.6571
   16MOL   C133 4963   7.664   3.523   4.455 -0.0087  0.4137  0.5930
   16MOL   C134 4964   7.687   3.460   4.594 -0.2135  0.4429 -0.2839
   16MOL   C135 4965   7.590   3.654   4.447 -0.2108 -0.1747 -0.1878
   16MOL   H136 4966   0.008   3.538   4.152  2.9533  0.2584  0.3582
   16MOL   H137 4967   0.100   3.405   4.136  1.0389 -0.6856  1.6233
   16MOL   H138 4968   7.816   3.342   4.386  0.8398  0.4101  1.2123
   16MOL   H139 4969   7.610   3.456   4.387  0.5507  1.3874 -0.8432
   16MOL   H140 4970   7.753   3.521   4.655 -0.6790 -1.4153  2.1854
   16MOL   H141 4971   7.730   3.360   4.593  0.4480  0.7083  1.2356
   16MOL   H142 4972   7.586   3.448   4.636  0.4855 -3.3013  0.5149
   16MOL   H143 4973   7.510   3.660   4.522  1.2022 -0.8815  1.4109
   16MOL   H144 4974   7.665   3.731   4.466 -0.5126 -0.3366  1.8057
   16MOL   H145 4975   7.545   3.678   4.351 -0.5905 -0.1500 -0.0051
   16MOL   C146 4976   0.176   3.455   4.376 -0.2415  0.0862  0.2818
   16MOL   C147 4977   0.270   3.342   4.333  0.0163 -0.7391  0.1325
   16MOL   O148 4978   0.401   3.388   4.376  0.1090  0.0260  0.4450
   16MOL   C149 4979   0.475   3.467   4.282 -0.3330 -0.2793  0.8974
   16MOL   C150 4980   0.537   3.366   4.173  0.2378 -0.3353  0.3328
   16MOL   C151 4981   0.589   3.536   4.362  1.3017 -0.0347  0.3057
   16MOL   H152 4982   0.177   3.471   4.484  2.6107 -0.0210  0.3084
   16MOL   H153 4983   0.207   3.554   4.342 -1.4160  0.8331  1.3632
   16MOL   H154 4984   0.271   3.298   4.233  1.4758  1.2547 -0.7659
   16MOL   H155 4985   0.414   3.540   4.230  1.5760  1.4584  1.0269
   16MOL   H156 4986   0.463   3.311   4.115  0.8849  0.6238 -1.4324
   16MOL   H157 4987   0.606   3.295   4.219 -0.5008 -2.1271 -1.2424
   16MOL   H158 4988   0.593   3.434   4.109 -0.5294 -0.3420 -0.3452
   16MOL   H159 4989   0.638   3.618   4.309  0.6026 -0.4653 -1.0312
   16MOL   H160 4990   0.669   3.469   4.392  1.1308 -1.2107 -1.7981
   16MOL   H161 4991   0.549   3.578   4.454 -0.3451 -1.4366  0.2531
   16MOL   C162 4992   0.244   3.211   4.420  0.8292 -0.9644 -1.4870
   16MOL   C163 4993   0.337   3.097   4.380  0.0050  0.0482 -0.2742
   16MOL   O164 4994   0.322   3.011   4.487  0.2806  0.8106 -0.6460
   16MOL   C165 4995   0.444   2.984   4.562 -0.2299  0.6424  0.4757
   16MOL   C166 4996   0.427   2.852   4.641 -0.5323 -0.2894 -0.0096
   16MOL   C167 4997   0.469   3.101   4.660 -0.4061  0.7962 -0.4449
   16MOL   H168 4998   0.252   3.227   4.527 -0.6896 -1.0063 -1.3642
   16MOL   H169 4999   0.145   3.173   4.394  0.4457 -1.2892  0.3840
   16MOL   H170 5000   0.441   3.128   4.378  0.0427  0.2388  2.2689
   16MOL   H171 5001   0.522   2.967   4.489 -0.6985  0.5001  0.0074
   16MOL   H172 5002   0.518   2.808   4.679 -0.9830 -1.6103 -0.4318
   16MOL   H173 5003   0.385   2.786   4.565  0.3307 -1.3861  0.4588
   16MOL   H174 5004   0.367   2.871   4.730  0.7996  2.1937  0.3863
   16MOL   H175 5005   0.382   3.120   4.722 -0.8042  1.0202 -1.0599
   16MOL   H176 5006   0.491   3.193   4.604 -2.3163  0.4077 -1.8840
   16MOL   H177 5007   0.561   3.072   4.710 -0.0044  1.2188 -0.9201
   16MOL   C178 5008   0.290   3.011   4.262 -0.3821 -0.5630 -0.2952
   16MOL   C179 5009   0.394   2.915   4.215 -0.2899 -0.4086  0.6874
   16MOL   O180 5010   0.333   2.833   4.118  0.0331 -0.0423  0.2213
   16MOL   C181 5011   0.257   2.719   4.159 -0.1896 -0.0075  0.2030
   16MOL   C182 5012   0.352   2.603   4.163  0.4295 -0.0223  0.0487
   16MOL   C183 5013   0.140   2.710   4.061  0.3590  0.0107  0.2291
   16MOL   H184 5014   0.253   3.070   4.179  0.9431  2.2826  1.0643
   16MOL   H185 5015   0.207   2.949   4.295 -1.4335  1.5862  1.1750
   16MOL   H186 5016   0.423   2.842   4.292  1.1016 -1.0814 -0.4468
   16MOL   H187 5017   0.225   2.723   4.263  2.2928 -2.2737  1.1201
   16MOL   H188 5018   0.449   2.627   4.206  0.0389  0.4018  0.6995
   16MOL   H189 5019   0.373   2.570   4.061  1.2040 -0.9601  0.5064
   16MOL   H190 5020   0.303   2.520   4.215  0.0575  1.9627  2.9592
   16MOL   H191 5021   0.066   2.790   4.059 -0.3401 -0.6623 -1.5202
   16MOL   H192 5022   0.088   2.616   4.083 -0.7487  0.5969  0.1487
   16MOL   H193 5023   0.174   2.698   3.958 -0.2414  1.1144 -0.1106
   16MOL   C194 5024   0.515   2.986   4.147 -0.5124  0.1925  0.0643
   16MOL   C195 5025   0.643   2.900   4.182 -0.9170 -0.6298 -0.1523
   16MOL   O196 5026   0.761   2.981   4.165 -0.7637 -0.6391 -0.3736
   16MOL   C197 5027   0.859   3.001   4.268 -0.2748  0.4915  0.3080
   16MOL   C198 5028   1.006   3.029   4.223 -0.4722 -0.0306  0.5373
   16MOL   C199 5029   0.793   3.102   4.361 -0.4410 -0.2732 -0.5580
   16MOL   H200 5030   0.501   2.997   4.040  0.7519 -1.3937 -0.2700
   16MOL   H201 5031   0.548   3.079   4.194  1.1560 -0.1151 -0.4840
   16MOL   H202 5032   0.641   2.864   4.284 -1.1899  0.8631  0.3908
   16MOL   H203 5033   0.860   2.907   4.323  1.6229 -0.3272 -1.0739
   16MOL   H204 5034   1.020   2.981   4.127 -2.3611 -1.4813  0.9584
   16MOL   H205 5035   1.018   3.137   4.216  4.2564 -0.4481  0.8648
   16MOL   H206 5036   1.083   3.008   4.298  0.7644  1.4882 -0.2829
   16MOL   H207 5037   0.782   3.201   4.317  2.5269  0.4196  0.1133
   16MOL   H208 5038   0.695   3.061   4.384 -1.0955  1.1430 -0.7947
   16MOL   H209 5039   0.852   3.118   4.451 -3.1420 -2.4590  1.6431
   16MOL   C210 5040   0.662   2.787   4.080  0.2025 -0.0422  1.8386
   16MOL   C211 5041   0.755   2.666   4.123  0.5848  0.1500  0.0458
   16MOL   O212 5042   0.697   2.601   4.235 -0.3101  0.7828 -0.3215
   16MOL   C213 5043   0.771   2.595   4.355 -0.4577  0.0342 -0.5502
   16MOL   C214 5044   0.655   2.577   4.452  0.1292  0.2934 -0.1772
   16MOL   C215 5045   0.868   2.483   4.351  0.4289 -0.5532  0.2312
   16MOL   H216 5046   0.700   2.835   3.990 -1.9724  3.0356  2.4698
   16MOL   H217 5047   0.563   2.750   4.054 -0.0912 -0.0174  2.8865
   16MOL   H218 5048   0.850   2.707   4.157 -0.5049 -0.0409  3.5211
   16MOL   H219 5049   0.816   2.692   4.380  1.4485 -1.1228  0.6848
   16MOL   H220 5050   0.698   2.562   4.551 -1.2033 -1.0151  0.2220
   16MOL   H221 5051   0.591   2.492   4.431 -1.0263  1.2366 -0.5612
   16MOL   H222 5052   0.588   2.663   4.457 -1.8655 -1.2554  0.1437
   16MOL   H223 5053   0.941   2.497   4.271  1.0738 -0.3664  0.8496
   16MOL   H224 5054   0.813   2.390   4.344  0.2625 -0.4081 -0.3757
   16MOL   H225 5055   0.919   2.477   4.447 -2.2732  3.2480  2.0430
   16MOL   C226 5056   0.777   2.557   4.013  0.0600 -0.4326  0.6255
   16MOL   C227 5057   0.862   2.601   3.886 -0.8515  0.2576 -1.0068
   16MOL   O228 5058   0.866   2.483   3.809  0.3040  0.4611  0.1060
   16MOL   C229 5059   0.808   2.478   3.679  0.1763  0.6105  0.1781
   16MOL   C230 5060   0.666   2.416   3.687  0.3838  0.3199 -0.0541
   16MOL   C231 5061   0.897   2.384   3.594 -0.3589  0.1142 -0.2598
   16MOL   H232 5062   0.681   2.519   3.977  0.0354  0.4414 -0.2445
   16MOL   H233 5063   0.817   2.469   4.062 -0.7866 -0.8358  0.6127
   16MOL   H234 5064   0.817   2.693   3.847 -1.9268  0.0232 -0.3515
   16MOL   H235 5065   0.807   2.580   3.640 -0.6125  0.5788  0.1035
   16MOL   H236 5066   0.627   2.403   3.585 -0.1095  1.2251  0.0122
   16MOL   H237 5067   0.677   2.312   3.716  1.9478  0.9412  1.6487
   16MOL   H238 5068   0.591   2.459   3.754  0.6990  1.5584 -0.4750
   16MOL   H239 5069   0.995   2.431   3.588  0.1155 -0.5155  2.0708
   16MOL   H240 5070   0.847   2.366   3.499 -0.1715 -1.5310 -0.0550
   16MOL   H241 5071   0.903   2.294   3.655  0.9300  1.7481  2.0828
   16MOL   C242 5072   1.003   2.648   3.917  0.3219 -0.2899 -0.2959
   16MOL   C243 5073   1.102   2.670   3.803  0.4347 -0.6384 -0.5391
   16MOL   O244 5074   1.225   2.713   3.852  0.4329  0.0868  0.3797
   16MOL   C245 5075   1.329   2.669   3.762  0.1810 -0.3986 -0.2044
   16MOL   C246 5076   1.454   2.766   3.793 -0.0537  0.5429  0.5720
   16MOL   C247 5077   1.371   2.526   3.779 -0.3355 -0.0466  0.1669
   16MOL   H248 5078   0.994   2.743   3.970 -3.5037  0.5119 -2.2574
   16MOL   H249 5079   1.051   2.584   3.992 -0.6404  0.8577  1.3328
   16MOL   H250 5080   1.108   2.573   3.754 -0.9502 -1.1918  0.3600
   16MOL   H251 5081   1.307   2.691   3.658 -0.1106  0.3204  0.0064
   16MOL   H252 5082   1.491   2.758   3.895  3.0973  0.6733 -0.4871
   16MOL   H253 5083   1.543   2.751   3.731  0.2616  2.0099  0.6328
   16MOL   H254 5084   1.427   2.871   3.778  0.4247  0.9002  2.1541
   16MOL   H255 5085   1.384   2.509   3.886 -1.1022  0.9966  0.4331
   16MOL   H256 5086   1.318   2.442   3.734  0.1296  0.4778 -1.3990
   16MOL   H257 5087   1.468   2.513   3.731 -0.2303  0.9457  0.0865
   16MOL   C258 5088   1.045   2.780   3.708  0.1849  0.0327  0.2020
   16MOL   C259 5089   1.019   2.929   3.758  0.4501 -0.3701 -0.1540
   16MOL   O260 5090   0.939   3.001   3.660  0.1210  0.2620  0.6989
   16MOL   C261 5091   0.801   2.973   3.665  0.0775 -0.0527  0.6608
   16MOL   C262 5092   0.747   3.056   3.777 -0.1353 -0.8899 -0.3455
   16MOL   C263 5093   0.752   3.038   3.531 -0.6736  0.2496 -0.2382
   16MOL   H264 5094   1.125   2.795   3.635 -1.1054  0.8753 -1.0642
   16MOL   H265 5095   0.964   2.736   3.650  1.1407 -1.6750  0.1534
   16MOL   H266 5096   0.960   2.923   3.849  2.4529 -3.5894  0.9974
   16MOL   H267 5097   0.770   2.869   3.672 -2.0685  0.4796 -0.5494
   16MOL   H268 5098   0.639   3.053   3.762  0.0883 -2.1876 -1.6992
   16MOL   H269 5099   0.778   3.159   3.759  0.7055 -0.9239  0.8709
   16MOL   H270 5100   0.768   3.024   3.879 -0.8926  0.0607  0.1179
   16MOL   H271 5101   0.746   3.146   3.528  0.4637  0.2889 -1.6241
   16MOL   H272 5102   0.826   3.005   3.458 -0.7129  0.6123 -0.4373
   16MOL   H273 5103   0.660   2.991   3.497  0.0286 -1.6590  0.4228
   16MOL   C274 5104   1.161   3.012   3.768  0.6039 -0.0642 -0.3807
   16MOL   C275 5105   1.148   3.145   3.840 -0.4186  0.7812  0.1534
   16MOL   O276 5106   1.288   3.179   3.866 -0.3354  0.0577 -0.4571
   16MOL   C277 5107   1.320   3.208   4.006  0.5718  0.7526  0.4800
   16MOL   C278 5108   1.422   3.320   4.011 -0.1479 -0.4365 -0.6041
   16MOL   C279 5109   1.364   3.075   4.065  0.1167  0.0548 -0.1643
   16MOL   H280 5110   1.239   2.951   3.813 -0.2446  0.1696  1.4819
   16MOL   H281 5111   1.204   3.021   3.669  2.9596 -2.8591  0.3285
   16MOL   H282 5112   1.098   3.133   3.936  1.9612  0.4860  1.3780
   16MOL   H283 5113   1.233   3.239   4.064 -0.8092 -0.7143 -0.7487
   16MOL   H284 5114   1.464   3.334   4.111 -2.2535 -1.0921  0.4026
   16MOL   H285 5115   1.503   3.306   3.940  0.2529  0.3383 -0.3116
   16MOL   H286 5116   1.364   3.412   3.997  0.1761 -0.1161  0.1339
   16MOL   H287 5117   1.446   3.042   4.001 -0.3237 -0.3858 -0.5027
   16MOL   H288 5118   1.287   2.999   4.076 -0.8736  0.9200 -0.9254
   16MOL   H289 5119   1.407   3.083   4.165 -1.1981  1.7156  0.2936
   16MOL   C290 5120   1.087   3.250   3.744  0.3721  0.6640  0.8002
   16MOL   C291 5121   1.058   3.380   3.815 -0.1052 -0.3840  0.4465
   16MOL   O292 5122   1.021   3.486   3.725 -0.1162  0.3940  0.2833
   16MOL   C293 5123   1.113   3.593   3.693  0.4772  0.9346  0.0342
   16MOL   C294 5124   1.043   3.687   3.604 -0.2278 -0.0273  0.4392
   16MOL   C295 5125   1.232   3.520   3.622 -0.8591 -0.2532  0.1805
   16MOL   H296 5126   0.995   3.204   3.707  1.0592 -0.8088  0.9295
   16MOL   H297 5127   1.147   3.258   3.653  0.4404 -0.7502  0.7250
   16MOL   H298 5128   1.151   3.407   3.865 -0.4739  1.6991  0.0516
   16MOL   H299 5129   1.150   3.646   3.781  0.1695 -0.3959  0.9808
   16MOL   H300 5130   1.011   3.632   3.516 -0.3812  1.7181 -0.6144
   16MOL   H301 5131   0.968   3.745   3.659  1.2041  0.0627  2.3658
   16MOL   H302 5132   1.112   3.770   3.586  0.5783 -0.4840  1.3449
   16MOL   H303 5133   1.203   3.452   3.541  0.2927 -1.4154  0.7075
   16MOL   H304 5134   1.301   3.596   3.587  0.1627 -1.0641  0.4029
   16MOL   H305 5135   1.278   3.450   3.692  0.4059 -0.5042 -0.8894
   16MOL   C306 5136   0.956   3.369   3.930  0.1537 -0.1945  0.2017
   16MOL   C307 5137   0.973   3.486   4.032  0.2661 -0.4860  0.0323
   16MOL   O308 5138   1.103   3.491   4.085  0.6333  0.3952 -0.1251
   16MOL   C309 5139   1.116   3.579   4.193  0.6522 -0.7354 -0.3586
   16MOL   C310 5140   1.058   3.503   4.312  0.7714 -0.0153  0.4874
   16MOL   C311 5141   1.254   3.640   4.205  0.2222 -0.1739 -0.0937
   16MOL   H312 5142   0.963   3.272   3.980  0.6695 -0.6646 -0.7686
   16MOL   H313 5143   0.855   3.385   3.894  1.2870 -0.7613 -3.3994
   16MOL   H314 5144   0.956   3.578   3.976 -0.6817 -0.6795 -0.0074
   16MOL   H315 5145   1.051   3.665   4.181  1.1312 -0.2725  0.3893
   16MOL   H316 5146   1.111   3.408   4.311 -1.1513 -1.1119 -0.9271
   16MOL   H317 5147   0.950   3.486   4.304  0.6025  1.1153  0.3110
   16MOL   H318 5148   1.079   3.553   4.407 -2.4354  1.2829  0.5781
   16MOL   H319 5149   1.261   3.722   4.277  0.6605  1.1788 -1.6452
   16MOL   H320 5150   1.291   3.678   4.110 -2.2723 -0.9336 -1.4087
   16MOL   H321 5151   1.324   3.566   4.244 -1.7619 -0.9856  2.0186
   16MOL   H322 5152   0.897   3.475   4.110 -0.1045 -1.4313 -0.4550
   17MOL     C1 5153   0.507   3.458   2.548 -0.2366 -0.0164  0.9121
   17MOL     C2 5154   0.415   3.345   2.500  0.0042  0.0457  0.0718
   17MOL     O3 5155   0.284   3.368   2.542  0.0415 -0.2088 -0.4427
   17MOL     C4 5156   0.255   3.336   2.675  0.0675 -0.2709  0.1172
   17MOL     C5 5157   0.200   3.192   2.687  0.6457 -0.5164  0.3632
   17MOL     C6 5158   0.160   3.437   2.735 -0.5402  0.1204 -0.4145
   17MOL     H7 5159   0.610   3.451   2.515 -0.3300 -0.2713  0.6696
   17MOL     H8 5160   0.474   3.559   2.522  2.5456  0.1295 -2.3526
   17MOL     H9 5161   0.443   3.250   2.545  0.5809  0.0358 -0.3126
   17MOL    H10 5162   0.344   3.338   2.738  0.0647 -2.4725  0.2358
   17MOL    H11 5163   0.120   3.191   2.613  1.2199  0.3146 -0.2772
   17MOL    H12 5164   0.274   3.115   2.665  2.0450  1.1651 -0.9556
   17MOL    H13 5165   0.153   3.170   2.782 -2.2805 -1.1822 -1.1665
   17MOL    H14 5166   0.078   3.461   2.668  0.8841  0.1542 -2.1906
   17MOL    H15 5167   0.117   3.406   2.830  0.5183  0.6108  0.2359
   17MOL    H16 5168   0.205   3.535   2.755  0.8624 -0.8188  1.1259
   17MOL    H17 5169   0.505   3.454   2.657  1.1316 -0.9523  0.9181
   17MOL    C18 5170   0.406   3.341   2.349  0.9537 -0.3358  0.5192
   17MOL    C19 5171   0.312   3.235   2.282  0.3862  1.6162  0.4546
   17MOL    O20 5172   0.381   3.112   2.278 -0.1682  0.2044  0.2080
   17MOL    C21 5173   0.326   2.999   2.347  0.1900  0.1764 -0.0871
   17MOL    C22 5174   0.429   2.879   2.355  0.2534 -0.1370  0.4582
   17MOL    C23 5175   0.201   2.958   2.270  0.3764 -0.6767  0.1054
   17MOL    H24 5176   0.359   3.439   2.337  0.3475 -0.7221 -0.2726
   17MOL    H25 5177   0.502   3.342   2.298 -0.7672 -0.3382 -2.8402
   17MOL    H26 5178   0.221   3.232   2.341  0.0727 -2.2333 -0.1003
   17MOL    H27 5179   0.319   3.043   2.447  1.6131 -1.9284  0.9642
   17MOL    H28 5180   0.517   2.911   2.412  0.4603  1.9587 -0.9724
   17MOL    H29 5181   0.381   2.798   2.409 -0.3727 -0.1879 -0.1673
   17MOL    H30 5182   0.461   2.865   2.252 -1.5231  1.8372 -0.3880
   17MOL    H31 5183   0.122   3.032   2.269  0.8195 -0.2126 -1.0626
   17MOL    H32 5184   0.173   2.869   2.327  0.5676 -0.9434 -0.2113
   17MOL    H33 5185   0.233   2.930   2.170 -0.5176 -0.6761 -0.1854
   17MOL    C34 5186   0.295   3.276   2.129 -0.0428 -0.4457 -0.6397
   17MOL    C35 5187   0.182   3.377   2.112 -0.9312 -0.3874  0.4764
   17MOL    O36 5188   0.181   3.438   1.985  0.7397 -0.3524 -0.6818
   17MOL    C37 5189   0.270   3.551   1.980  0.4669 -0.4350 -0.3808
   17MOL    C38 5190   0.401   3.525   1.908  0.0320  0.5032 -0.3793
   17MOL    C39 5191   0.189   3.664   1.907 -0.2177 -0.0013  0.4613
   17MOL    H40 5192   0.266   3.187   2.074 -0.0584 -1.4872  0.9899
   17MOL    H41 5193   0.393   3.304   2.090 -0.2288  1.4010  0.1868
   17MOL    H42 5194   0.202   3.449   2.191  0.9715 -0.7790  0.3769
   17MOL    H43 5195   0.290   3.586   2.081 -1.7786 -2.3814  0.7665
   17MOL    H44 5196   0.476   3.467   1.961  0.1226  0.0877 -0.9559
   17MOL    H45 5197   0.444   3.621   1.883 -1.4360  1.5090  0.8191
   17MOL    H46 5198   0.378   3.469   1.818 -1.6986  0.3297  0.1403
   17MOL    H47 5199   0.102   3.688   1.968 -0.4001  0.8293 -0.1137
   17MOL    H48 5200   0.241   3.760   1.900  0.7488 -0.5397  0.1311
   17MOL    H49 5201   0.153   3.644   1.806  1.0961  1.4215 -0.3119
   17MOL    C50 5202   0.043   3.323   2.124 -0.5092  0.5738 -0.1196
   17MOL    C51 5203   7.758   3.430   2.161  0.1737 -0.3677  0.0176
   17MOL    O52 5204   7.802   3.488   2.283 -0.0656 -0.6134  0.3258
   17MOL    C53 5205   0.007   3.629   2.286 -0.1671 -0.2269  0.3838
   17MOL    C54 5206   0.084   3.664   2.412  0.1194  0.9322 -0.6078
   17MOL    C55 5207   7.699   3.709   2.279  0.1137  0.6490 -0.2868
   17MOL    H56 5208   0.021   3.258   2.039  0.1271  1.1977 -0.7625
   17MOL    H57 5209   0.048   3.258   2.211 -0.5265 -1.7002 -1.7659
   17MOL    H58 5210   7.756   3.507   2.084 -0.1913 -0.1441  0.2509
   17MOL    H59 5211   0.075   3.647   2.202 -2.0506 -1.2590 -1.4254
   17MOL    H60 5212   0.045   3.602   2.493 -1.1592  0.3270 -1.6595
   17MOL    H61 5213   0.088   3.771   2.432  2.4935  0.6003  0.9789
   17MOL    H62 5214   0.189   3.633   2.408 -0.6444 -1.8535 -0.6519
   17MOL    H63 5215   7.629   3.685   2.358  0.1985  0.8697 -0.1455
   17MOL    H64 5216   7.649   3.685   2.185 -0.1533  1.3116 -0.3154
   17MOL    H65 5217   7.711   3.817   2.286  0.3478  0.6613 -0.8375
   17MOL    C66 5218   7.620   3.371   2.183  0.3341  0.0012 -0.7170
   17MOL    C67 5219   7.535   3.350   2.051 -0.2646  0.7088 -0.0916
   17MOL    O68 5220   7.503   3.484   2.012 -0.3146 -0.0923 -0.0550
   17MOL    C69 5221   7.503   3.500   1.873 -1.2792  0.1941 -0.0149
   17MOL    C70 5222   7.412   3.616   1.840  0.2021  0.1407 -0.0380
   17MOL    C71 5223   7.644   3.526   1.816  0.2682 -0.4350  0.2507
   17MOL    H72 5224   7.632   3.277   2.238  0.2839  0.2647 -0.2586
   17MOL    H73 5225   7.565   3.445   2.240 -0.5548  1.5871 -3.5283
   17MOL    H74 5226   7.595   3.300   1.975 -2.7425 -0.6847 -1.1621
   17MOL    H75 5227   7.464   3.410   1.826 -0.4782 -0.2683  0.1925
   17MOL    H76 5228   7.448   3.702   1.896  0.3542  0.0294  0.0359
   17MOL    H77 5229   7.411   3.640   1.734  0.0580  0.8122  0.1156
   17MOL    H78 5230   7.317   3.592   1.886  1.0641  0.1574  1.8021
   17MOL    H79 5231   7.635   3.542   1.709 -0.3164 -0.4024  0.3025
   17MOL    H80 5232   7.721   3.450   1.827  1.0156  0.1361 -0.8451
   17MOL    H81 5233   7.692   3.619   1.847  0.1226  0.0137 -0.8328
   17MOL    C82 5234   7.402   3.275   2.080  0.1206 -0.6638 -0.2059
   17MOL    C83 5235   7.399   3.121   2.099  0.4402  0.6926 -0.1162
   17MOL    O84 5236   7.479   3.083   2.209  0.1508  0.3651 -0.4185
   17MOL    C85 5237   7.556   2.959   2.192  0.0273  0.5029 -0.3108
   17MOL    C86 5238   7.605   2.919   2.330 -0.8836  0.5473  0.4522
   17MOL    C87 5239   7.678   3.002   2.112  0.2546 -0.3978  0.4454
   17MOL    H88 5240   7.358   3.318   2.170 -3.0834 -2.2735 -0.9418
   17MOL    H89 5241   7.341   3.290   1.991 -0.9121  2.1099  0.9046
   17MOL    H90 5242   7.437   3.082   2.005  1.2978 -3.7996  1.9311
   17MOL    H91 5243   7.494   2.885   2.141 -0.3990  0.3585  0.4166
   17MOL    H92 5244   7.528   2.889   2.401 -1.3395  0.5113 -0.0581
   17MOL    H93 5245   7.668   2.830   2.321 -2.2886 -0.4730  0.4953
   17MOL    H94 5246   7.663   2.999   2.376  1.1714  0.3187 -1.6587
   17MOL    H95 5247   7.662   3.034   2.010  2.2244 -1.1534 -0.1314
   17MOL    H96 5248   7.744   3.078   2.153  0.6453  1.6583 -3.7790
   17MOL    H97 5249   7.735   2.910   2.095  0.0204 -0.0845 -2.1644
   17MOL    C98 5250   7.257   3.050   2.123  0.3740 -0.4305 -0.6675
   17MOL    C99 5251   7.146   3.075   2.012 -0.5276  0.0164  0.6179
   17MOL   O100 5252   7.015   3.041   2.061 -0.0731  0.1536  0.2507
   17MOL   C101 5253   6.969   3.146   2.157 -0.1085  0.0412 -0.3902
   17MOL   C102 5254   6.886   3.081   2.270 -0.5587 -0.1066 -0.4741
   17MOL   C103 5255   6.889   3.266   2.099 -0.3763 -0.7852  0.3879
   17MOL   H104 5256   7.269   2.943   2.141  0.8772 -0.5085 -1.4760
   17MOL   H105 5257   7.217   3.076   2.221  0.9974 -1.0140 -0.2557
   17MOL   H106 5258   7.148   3.182   1.991  0.9568 -0.7956 -3.7410
   17MOL   H107 5259   7.050   3.184   2.219 -1.0968  1.0131  0.3213
   17MOL   H108 5260   6.853   3.158   2.340  0.7634  0.4817 -0.4787
   17MOL   H109 5261   6.956   3.015   2.321  0.5053  0.4594 -1.1858
   17MOL   H110 5262   6.800   3.025   2.233 -1.0897 -0.6444  1.5334
   17MOL   H111 5263   6.859   3.337   2.176 -2.4563 -0.9810 -0.2042
   17MOL   H112 5264   6.797   3.218   2.065  0.1164 -1.0188 -0.6302
   17MOL   H113 5265   6.918   3.312   2.004 -0.1034  0.6807  1.1749
   17MOL   C114 5266   7.175   2.996   1.876 -0.2443  0.6066  0.1589
   17MOL   C115 5267   7.081   3.023   1.759  0.0703 -0.3968  0.3918
   17MOL   O116 5268   7.136   3.137   1.693  0.3430  0.2930  0.0881
   17MOL   C117 5269   7.053   3.237   1.652 -0.9300  0.1143  0.1830
   17MOL   C118 5270   6.989   3.201   1.515  0.9734  0.6962 -0.4178
   17MOL   C119 5271   7.125   3.370   1.655  0.0038 -0.3622  0.1015
   17MOL   H120 5272   7.172   2.889   1.895 -2.0116  0.3830 -1.2459
   17MOL   H121 5273   7.277   3.007   1.838  0.4968 -0.3920  1.8033
   17MOL   H122 5274   6.983   3.045   1.802 -0.7167 -0.2850 -1.4153
   17MOL   H123 5275   6.980   3.249   1.732 -0.3822  0.6493  0.6054
   17MOL   H124 5276   6.897   3.147   1.536  1.1901  0.9774  1.2682
   17MOL   H125 5277   7.052   3.131   1.459  3.7093  2.0639  0.8560
   17MOL   H126 5278   6.972   3.290   1.455 -1.0774 -0.1883 -1.2030
   17MOL   H127 5279   7.055   3.441   1.610 -1.1070  0.2240  2.6774
   17MOL   H128 5280   7.212   3.361   1.590  0.1417  3.2390 -0.3358
   17MOL   H129 5281   7.129   3.415   1.755 -0.5482  1.0267 -0.4871
   17MOL   C130 5282   7.066   2.907   1.649  0.9153 -0.6913 -0.8298
   17MOL   C131 5283   7.026   2.771   1.699  0.6450  0.1674 -0.1260
   17MOL   O132 5284   7.010   2.690   1.582 -0.5692 -0.0438 -0.7643
   17MOL   C133 5285   7.134   2.651   1.523 -0.7346  0.0809 -0.2555
   17MOL   C134 5286   7.134   2.497   1.531 -0.4983  0.0317 -0.3297
   17MOL   C135 5287   7.124   2.706   1.386  0.1222 -0.1834 -0.3932
   17MOL   H136 5288   7.165   2.907   1.604  2.0902 -0.8502  1.6802
   17MOL   H137 5289   6.987   2.930   1.578  1.5475 -0.6133 -1.5099
   17MOL   H138 5290   7.106   2.743   1.768  0.1880 -0.6726  0.0751
   17MOL   H139 5291   7.227   2.688   1.566  0.3957  1.6649 -3.9061
   17MOL   H140 5292   7.137   2.458   1.633  0.6631  0.9023 -0.0153
   17MOL   H141 5293   7.226   2.466   1.480 -1.6368 -1.5619 -1.4558
   17MOL   H142 5294   7.054   2.445   1.477  0.6169  0.3170 -2.3188
   17MOL   H143 5295   7.218   2.711   1.333 -1.5254  1.6605 -3.2588
   17MOL   H144 5296   7.056   2.643   1.327  0.6771 -1.7770  0.6235
   17MOL   H145 5297   7.087   2.808   1.385  2.7199  0.7768 -2.0950
   17MOL   C146 5298   6.896   2.748   1.781 -0.2289  1.2915 -0.5163
   17MOL   C147 5299   6.900   2.617   1.860  0.2437 -0.5142 -0.0423
   17MOL   O148 5300   6.930   2.643   1.994  0.2145 -0.1963 -0.4870
   17MOL   C149 5301   7.051   2.594   2.044 -0.6350 -0.4802  0.3525
   17MOL   C150 5302   7.032   2.440   2.075  0.7505  0.0185 -0.3758
   17MOL   C151 5303   7.053   2.663   2.177  0.0587  0.5186 -0.0937
   17MOL   H152 5304   6.811   2.753   1.714 -0.8077  0.5021  0.1553
   17MOL   H153 5305   6.879   2.828   1.853  2.0853  1.1647  0.2130
   17MOL   H154 5306   6.976   2.551   1.817  1.2137  0.3078  0.3991
   17MOL   H155 5307   7.134   2.606   1.975 -1.0519 -0.2332 -0.1025
   17MOL   H156 5308   7.116   2.406   2.136  2.9331 -0.4289 -3.5165
   17MOL   H157 5309   7.035   2.374   1.989 -2.9630 -0.5805 -0.0992
   17MOL   H158 5310   6.940   2.426   2.131  0.1831 -2.0883 -1.7881
   17MOL   H159 5311   6.962   2.636   2.232  0.6494 -1.5361 -0.1224
   17MOL   H160 5312   7.055   2.771   2.161  0.3266  0.4254 -0.6830
   17MOL   H161 5313   7.143   2.639   2.233 -0.1687 -0.3139 -0.0830
   17MOL   C162 5314   6.768   2.544   1.853  0.4849  0.7907 -0.5061
   17MOL   C163 5315   6.754   2.437   1.742 -0.3521  0.2342  0.6482
   17MOL   O164 5316   6.650   2.343   1.775  0.1848 -0.2298  0.7038
   17MOL   C165 5317   6.687   2.215   1.822 -0.0652 -0.9844 -0.7735
   17MOL   C166 5318   6.560   2.131   1.802  0.4165 -0.3948  0.7862
   17MOL   C167 5319   6.722   2.218   1.969 -0.1027 -0.3305 -1.2019
   17MOL   H168 5320   6.752   2.508   1.955 -0.4229  1.6381 -0.3387
   17MOL   H169 5321   6.685   2.615   1.844 -0.9308 -0.9683 -1.6965
   17MOL   H170 5322   6.854   2.399   1.722  0.2592  1.1091  2.0282
   17MOL   H171 5323   6.765   2.177   1.757 -0.5567  1.7898 -3.0679
   17MOL   H172 5324   6.518   2.141   1.702 -0.6382 -0.2255  1.2437
   17MOL   H173 5325   6.480   2.164   1.869  0.4055 -1.2462  1.2028
   17MOL   H174 5326   6.596   2.028   1.800 -1.2498 -0.9788 -2.0070
   17MOL   H175 5327   6.749   2.119   2.006 -1.1364 -0.4478 -0.7465
   17MOL   H176 5328   6.638   2.259   2.024  1.9741  1.2570  0.9171
   17MOL   H177 5329   6.802   2.288   1.996  0.6293 -2.0100  1.1481
   17MOL   C178 5330   6.709   2.497   1.609  0.3285  0.5139 -0.6646
   17MOL   C179 5331   6.668   2.384   1.503  0.3236 -0.6443 -0.2458
   17MOL   O180 5332   6.632   2.447   1.383  0.5520  0.3444  0.8411
   17MOL   C181 5333   6.504   2.508   1.378  0.1157  0.1308 -0.3980
   17MOL   C182 5334   6.407   2.440   1.287 -0.0257  0.1958  0.9803
   17MOL   C183 5335   6.526   2.648   1.318 -0.2267 -0.2901  0.1900
   17MOL   H184 5336   6.780   2.571   1.573 -0.0226  0.4550 -1.4932
   17MOL   H185 5337   6.620   2.557   1.625 -0.3883 -0.4573 -0.9122
   17MOL   H186 5338   6.587   2.317   1.531 -2.5994  2.5759 -0.5853
   17MOL   H187 5339   6.471   2.538   1.478 -0.0885 -0.6395 -0.2353
   17MOL   H188 5340   6.400   2.333   1.306  0.6283 -0.0059  0.1212
   17MOL   H189 5341   6.429   2.459   1.182  2.8865 -0.8759  1.3471
   17MOL   H190 5342   6.306   2.480   1.292 -0.1545 -0.0102 -0.0090
   17MOL   H191 5343   6.549   2.636   1.212 -0.1936  1.2681  0.0076
   17MOL   H192 5344   6.607   2.707   1.362  0.4231 -1.5320  0.6853
   17MOL   H193 5345   6.431   2.701   1.321  1.6496  3.2056  0.8015
   17MOL   C194 5346   6.780   2.289   1.462  0.5014  0.5379  0.5027
   17MOL   C195 5347   6.741   2.179   1.359  0.4082 -0.3171  0.7974
   17MOL   O196 5348   6.680   2.078   1.441  0.1091 -0.8335  0.9083
   17MOL   C197 5349   6.610   1.982   1.364 -0.1484 -0.0015  0.4674
   17MOL   C198 5350   6.671   1.840   1.405  0.0941  0.0101 -0.1755
   17MOL   C199 5351   6.468   2.003   1.410  0.6463  0.2968  0.0852
   17MOL   H200 5352   6.854   2.351   1.410 -0.2006  1.6525  0.8423
   17MOL   H201 5353   6.835   2.237   1.540 -2.7225 -1.7156  1.3830
   17MOL   H202 5354   6.674   2.216   1.282 -1.5512 -0.3700  2.4349
   17MOL   H203 5355   6.612   1.997   1.256  0.2431  1.5101  0.6773
   17MOL   H204 5356   6.714   1.839   1.505  0.3277 -1.9669 -0.2800
   17MOL   H205 5357   6.601   1.758   1.394  1.7148 -1.7921  2.5144
   17MOL   H206 5358   6.754   1.807   1.342  1.0544  0.7781  0.6626
   17MOL   H207 5359   6.438   1.989   1.513 -2.2321 -0.3906 -0.8066
   17MOL   H208 5360   6.419   2.094   1.377 -2.2283 -1.8001 -1.7108
   17MOL   H209 5361   6.403   1.924   1.371 -0.7612  2.0169 -1.1401
   17MOL   C210 5362   6.860   2.118   1.286  0.2689 -0.2610 -0.3829
   17MOL   C211 5363   6.898   2.183   1.154  0.4266 -0.1755 -0.7797
   17MOL   O212 5364   6.909   2.323   1.178  0.0741  0.4776  0.3914
   17MOL   C213 5365   6.833   2.408   1.091  0.6283  0.5005 -0.2560
   17MOL   C214 5366   6.844   2.555   1.141  0.3757  0.4648 -0.0494
   17MOL   C215 5367   6.887   2.392   0.945  0.2780  0.5919  0.0774
   17MOL   H216 5368   6.843   2.011   1.286  0.8675 -0.3549 -0.4453
   17MOL   H217 5369   6.945   2.124   1.353  0.1843  0.9205 -0.3655
   17MOL   H218 5370   6.812   2.163   1.090 -1.5503  0.1150  1.7130
   17MOL   H219 5371   6.729   2.375   1.092  0.0240  2.2380  3.1638
   17MOL   H220 5372   6.805   2.629   1.071  0.2504  2.0405  1.6534
   17MOL   H221 5373   6.948   2.577   1.167  0.2778 -0.2673  1.0010
   17MOL   H222 5374   6.802   2.563   1.242 -0.6340 -0.6154 -0.3637
   17MOL   H223 5375   6.861   2.292   0.910 -3.4084  1.2773  0.6223
   17MOL   H224 5376   6.995   2.404   0.937  0.4426 -1.3584 -1.0308
   17MOL   H225 5377   6.839   2.452   0.868 -0.2580 -1.6313 -1.3862
   17MOL   C226 5378   7.039   2.143   1.097  0.1660 -0.2805 -0.0332
   17MOL   C227 5379   7.087   2.000   1.123 -0.4773  0.0417  0.8173
   17MOL   O228 5380   7.219   1.969   1.075  0.3011  0.1578 -0.0660
   17MOL   C229 5381   7.330   2.025   1.146  0.5459 -0.5176  0.5229
   17MOL   C230 5382   7.408   2.117   1.044 -0.1374 -0.1489 -0.5307
   17MOL   C231 5383   7.406   1.916   1.215 -1.1693  0.0962 -0.0560
   17MOL   H232 5384   7.115   2.213   1.132  0.1978 -0.9261  1.2038
   17MOL   H233 5385   7.017   2.158   0.991 -1.7828 -0.6394  0.3112
   17MOL   H234 5386   7.102   1.993   1.231 -3.5565 -1.0183  1.2149
   17MOL   H235 5387   7.289   2.096   1.217  0.7401 -0.3014  0.4209
   17MOL   H236 5388   7.414   2.059   0.953 -1.8706 -2.2201  0.6474
   17MOL   H237 5389   7.353   2.208   1.019  0.9706  0.8441  0.5178
   17MOL   H238 5390   7.508   2.149   1.076 -0.0953  0.1727 -0.9769
   17MOL   H239 5391   7.354   1.887   1.307 -0.2124  2.2887  1.2091
   17MOL   H240 5392   7.495   1.947   1.268 -0.0611 -1.8998 -0.6812
   17MOL   H241 5393   7.417   1.839   1.138 -0.9890  0.3576 -0.2904
   17MOL   C242 5394   6.989   1.896   1.069  0.2031 -0.6669  0.6320
   17MOL   C243 5395   7.023   1.745   1.089  0.0497  0.1151  0.5118
   17MOL   O244 5396   6.918   1.658   1.030  0.1427 -0.2239 -0.2802
   17MOL   C245 5397   6.940   1.615   0.898  0.1168  0.0368 -0.3613
   17MOL   C246 5398   7.035   1.496   0.892  0.3701 -0.6229  0.1280
   17MOL   C247 5399   6.799   1.595   0.851  0.5860 -0.2027 -0.6592
   17MOL   H248 5400   6.890   1.900   1.113  0.4103 -0.4245  1.0821
   17MOL   H249 5401   6.977   1.917   0.962 -0.7814 -0.1320  0.8483
   17MOL   H250 5402   7.113   1.722   1.031 -0.5283  0.1290 -0.3988
   17MOL   H251 5403   6.986   1.696   0.841 -1.6399  0.8053 -0.7222
   17MOL   H252 5404   7.067   1.481   0.789  0.5221  0.2577  0.0431
   17MOL   H253 5405   7.113   1.503   0.968  0.4458  1.2494 -0.1051
   17MOL   H254 5406   6.967   1.413   0.913 -1.7832  0.3434 -2.7851
   17MOL   H255 5407   6.770   1.504   0.903  0.2815  0.6044  0.5882
   17MOL   H256 5408   6.730   1.674   0.878 -0.7725 -1.6554  0.1768
   17MOL   H257 5409   6.786   1.566   0.747  0.3354  1.7169 -1.1825
   17MOL   C258 5410   7.047   1.721   1.235  0.1703 -0.5088 -0.4372
   17MOL   C259 5411   7.077   1.574   1.278 -0.0558 -0.2984 -0.3490
   17MOL   O260 5412   6.948   1.528   1.341  0.6811  0.1704 -0.5571
   17MOL   C261 5413   6.865   1.448   1.263 -0.3092  0.0853  0.4702
   17MOL   C262 5414   6.855   1.307   1.321  0.1049 -0.1637 -0.5261
   17MOL   C263 5415   6.725   1.510   1.262  0.4261 -0.8014  0.5613
   17MOL   H264 5416   7.142   1.774   1.245 -0.7324  0.5705  3.4531
   17MOL   H265 5417   6.979   1.770   1.304 -0.6747 -2.3875  0.0969
   17MOL   H266 5418   7.081   1.518   1.185  1.1702 -1.0292  0.1247
   17MOL   H267 5419   6.888   1.444   1.157  0.1811 -0.7227  0.5974
   17MOL   H268 5420   6.929   1.235   1.285  0.1654  0.2087 -1.1589
   17MOL   H269 5421   6.764   1.249   1.306  1.2994 -1.7702 -1.7146
   17MOL   H270 5422   6.867   1.309   1.429  0.1621  0.7922 -0.5462
   17MOL   H271 5423   6.733   1.599   1.200 -2.3302  0.3843  1.8178
   17MOL   H272 5424   6.647   1.449   1.214  0.3939  0.4842 -1.0525
   17MOL   H273 5425   6.686   1.524   1.363 -0.1966  1.1187  0.0738
   17MOL   C274 5426   7.186   1.548   1.379 -0.3114 -0.2797  0.2872
   17MOL   C275 5427   7.229   1.400   1.360  0.7057 -0.3024  0.0353
   17MOL   O276 5428   7.364   1.401   1.344  0.3450  1.0017  0.1543
   17MOL   C277 5429   7.422   1.426   1.212  0.6002  1.2128 -0.4319
   17MOL   C278 5430   7.557   1.339   1.227  0.2182 -0.1533  0.0865
   17MOL   C279 5431   7.426   1.564   1.181  0.1636 -0.1984  0.3555
   17MOL   H280 5432   7.265   1.623   1.369 -0.5556  0.0176  0.5511
   17MOL   H281 5433   7.146   1.556   1.480  1.0792 -0.6270  0.8659
   17MOL   H282 5434   7.182   1.357   1.272  2.9931 -1.5532 -0.6335
   17MOL   H283 5435   7.358   1.379   1.138  0.5256  0.9708 -0.2121
   17MOL   H284 5436   7.548   1.243   1.277 -0.1869 -0.1118  0.0930
   17MOL   H285 5437   7.594   1.317   1.127 -1.2663  0.7113 -0.6660
   17MOL   H286 5438   7.623   1.397   1.293  1.2279  0.1129 -1.1415
   17MOL   H287 5439   7.330   1.611   1.159  1.0532  1.2357 -0.5773
   17MOL   H288 5440   7.490   1.588   1.096  0.8888 -2.5487  0.2109
   17MOL   H289 5441   7.458   1.626   1.265  1.6096  1.3435 -1.2863
   17MOL   C290 5442   7.207   1.318   1.486 -0.1260  0.9133 -0.1090
   17MOL   C291 5443   7.244   1.171   1.484  0.6462  0.3794  0.1829
   17MOL   O292 5444   7.262   1.125   1.617 -0.0609  0.1460  0.5040
   17MOL   C293 5445   7.387   1.052   1.634 -0.4588 -0.3985 -0.3490
   17MOL   C294 5446   7.358   0.964   1.757  0.3707 -0.6960 -0.0267
   17MOL   C295 5447   7.497   1.150   1.654  0.4981 -0.3271  0.2469
   17MOL   H296 5448   7.100   1.333   1.504 -0.2359  0.4666 -0.3802
   17MOL   H297 5449   7.260   1.368   1.567 -0.9172  0.1639  0.8831
   17MOL   H298 5450   7.336   1.157   1.428  1.4476  1.3188  1.2396
   17MOL   H299 5451   7.413   0.980   1.556 -2.4819 -0.2034 -1.2417
   17MOL   H300 5452   7.449   0.916   1.794  0.3174 -2.0903 -1.6266
   17MOL   H301 5453   7.326   1.029   1.837  0.1539 -0.5536 -0.2282
   17MOL   H302 5454   7.298   0.873   1.747  0.9401 -0.9500 -1.2605
   17MOL   H303 5455   7.520   1.211   1.567 -1.8055  1.9039  1.1151
   17MOL   H304 5456   7.469   1.219   1.735 -2.3504 -0.6466 -0.3987
   17MOL   H305 5457   7.590   1.107   1.690  1.4236  1.0679 -0.4448
   17MOL   C306 5458   7.135   1.085   1.413 -0.4641  0.0785  0.3141
   17MOL   C307 5459   7.147   0.929   1.449  0.0827  0.2123 -1.3124
   17MOL   O308 5460   7.055   0.836   1.395  0.2338  0.3761  0.2772
   17MOL   C309 5461   7.056   0.821   1.249 -0.0155 -0.1597 -0.0131
   17MOL   C310 5462   7.192   0.766   1.202 -0.1362  0.0936  0.1834
   17MOL   C311 5463   6.942   0.722   1.232  0.1833  0.2731 -0.2703
   17MOL   H312 5464   7.134   1.092   1.304  0.9949 -1.4243  0.1876
   17MOL   H313 5465   7.033   1.113   1.439 -1.7036 -0.6824 -3.4076
   17MOL   H314 5466   7.244   0.882   1.431  0.0896 -0.0616 -0.5901
   17MOL   H315 5467   7.014   0.905   1.193 -0.4494 -0.0306  0.5044
   17MOL   H316 5468   7.180   0.752   1.094 -2.9775  1.9070  0.2168
   17MOL   H317 5469   7.218   0.670   1.246  0.7229  0.3972  0.3476
   17MOL   H318 5470   7.273   0.833   1.231 -1.1691  2.5389 -2.3214
   17MOL   H319 5471   6.954   0.628   1.287  0.2159  0.8753  0.7531
   17MOL   H320 5472   6.913   0.700   1.129  0.8450  1.1887 -0.6595
   17MOL   H321 5473   6.853   0.771   1.271 -1.3812 -3.0031  0.4900
   17MOL   H322 5474   7.145   0.910   1.556 -1.1921 -2.5553 -1.7785
   18MOL     C1 5475   0.237   5.802   7.544 -0.2797  0.4634  0.4454
   18MOL     C2 5476   0.241   5.703   7.656  0.2036 -0.1672 -0.4159
   18MOL     O3 5477   0.116   5.637   7.662 -0.6485 -0.3370  0.2669
   18MOL     C4 5478   0.075   5.551   7.557 -0.5237 -0.4112 -0.4966
   18MOL     C5 5479   7.787   5.609   7.468 -0.0920  0.2521  0.0134
   18MOL     C6 5480   0.028   5.421   7.620  0.1343 -0.2746 -0.1196
   18MOL     H7 5481   0.136   5.843   7.556 -0.9651 -1.2865  0.8623
   18MOL     H8 5482   0.303   5.886   7.562 -1.8053  2.3361 -2.4067
   18MOL     H9 5483   0.261   5.761   7.746 -2.2700  4.1409 -2.4524
   18MOL    H10 5484   0.161   5.518   7.499  0.6796  1.2875  0.2704
   18MOL    H11 5485   7.704   5.636   7.532 -1.7397 -1.9181 -1.1470
   18MOL    H12 5486   0.014   5.700   7.430  0.5610 -0.1678 -0.1897
   18MOL    H13 5487   7.754   5.543   7.388  0.5357  0.5437 -0.4942
   18MOL    H14 5488   7.805   5.362   7.540 -0.0265  0.6868 -0.7527
   18MOL    H15 5489   0.123   5.380   7.655  0.2479  1.2187  1.3739
   18MOL    H16 5490   7.787   5.435   7.709 -1.6923 -0.3745 -1.3353
   18MOL    H17 5491   0.254   5.754   7.448  2.2068 -1.4225  1.7934
   18MOL    C18 5492   0.369   5.608   7.664 -0.4372  0.4773  0.0381
   18MOL    C19 5493   0.500   5.684   7.677 -0.4397  0.3482 -0.5243
   18MOL    O20 5494   0.609   5.598   7.641 -0.2234  0.5393  0.0392
   18MOL    C21 5495   0.677   5.625   7.519  0.2485 -0.0189  0.3586
   18MOL    C22 5496   0.596   5.563   7.405 -0.3915  0.2652  0.0202
   18MOL    C23 5497   0.813   5.561   7.542 -0.2591  0.7334 -0.1245
   18MOL    H24 5498   0.358   5.543   7.751 -1.3334 -2.4516 -2.1872
   18MOL    H25 5499   0.360   5.541   7.578  0.5826  0.9601 -0.4450
   18MOL    H26 5500   0.502   5.776   7.619  1.2940  0.3416 -0.4793
   18MOL    H27 5501   0.690   5.733   7.518 -0.1960  0.0367 -1.2424
   18MOL    H28 5502   0.557   5.466   7.438  0.9402 -0.4499 -0.4385
   18MOL    H29 5503   0.510   5.623   7.376 -1.6661 -1.3371  0.4003
   18MOL    H30 5504   0.656   5.550   7.315  1.0187  0.7278  0.8774
   18MOL    H31 5505   0.797   5.466   7.593 -0.5797 -0.2430 -1.9802
   18MOL    H32 5506   0.868   5.617   7.617  2.1492 -1.2342 -0.3506
   18MOL    H33 5507   0.872   5.558   7.450  0.1665  0.3671  0.1560
   18MOL    C34 5508   0.533   5.724   7.818  0.1321  0.0490 -0.5497
   18MOL    C35 5509   0.613   5.859   0.021 -1.0937 -0.0948 -0.0513
   18MOL    O36 5510   0.604   5.888   0.160  0.9514 -0.1282 -0.1801
   18MOL    C37 5511   0.476   5.927   0.215  0.0241  0.3477  0.7095
   18MOL    C38 5512   0.502   5.922   0.367 -0.0594 -0.8145 -0.3031
   18MOL    C39 5513   0.417   6.061   0.167 -1.2193  0.5885  0.1674
   18MOL    H40 5514   0.581   5.642   0.052  1.4767  0.8795 -0.4577
   18MOL    H41 5515   0.436   5.735   0.046 -0.1597 -0.7923 -0.9401
   18MOL    H42 5516   0.556   5.940   7.796 -0.2156  0.9067  0.5963
   18MOL    H43 5517   0.401   5.848   0.204  1.7270 -1.0258 -1.7770
   18MOL    H44 5518   0.518   5.824   0.410 -0.0064 -0.5904  0.1862
   18MOL    H45 5519   0.412   5.957   0.417  0.5572 -1.8674  1.5820
   18MOL    H46 5520   0.586   5.989   0.385 -0.8165 -0.2482  1.1986
   18MOL    H47 5521   0.508   6.114   0.140 -0.9692  0.3515  0.5319
   18MOL    H48 5522   0.367   6.049   0.071  3.2688 -0.5474 -2.1636
   18MOL    H49 5523   0.363   6.118   0.243 -0.7612  0.0866  0.8825
   18MOL    C50 5524   0.765   5.861   7.816 -0.0799  1.5721 -0.3031
   18MOL    C51 5525   0.837   5.998   0.003 -0.3441  0.1581  0.4788
   18MOL    O52 5526   0.954   5.998   7.740 -0.1829  0.1237 -0.4324
   18MOL    C53 5527   0.962   6.084   7.625 -0.4392 -0.3398  0.5206
   18MOL    C54 5528   0.920   6.009   7.500  0.5141 -0.6365 -0.1788
   18MOL    C55 5529   1.106   6.127   7.620 -0.6833  0.5509  0.2808
   18MOL    H56 5530   0.824   5.795   0.060 -0.0378  1.2304 -0.6884
   18MOL    H57 5531   0.774   5.832   7.712 -3.6368  2.1373 -0.8049
   18MOL    H58 5532   0.774   6.069   7.770 -1.2634 -0.3278  0.9017
   18MOL    H59 5533   0.904   6.175   7.643  0.6809  0.6393 -0.7040
   18MOL    H60 5534   0.814   6.023   7.479  0.6625  0.4496 -0.2182
   18MOL    H61 5535   0.960   5.908   7.508  3.1473  0.3293 -0.7914
   18MOL    H62 5536   0.974   6.045   7.413 -1.3164 -0.0968 -1.1275
   18MOL    H63 5537   1.172   6.042   7.603  0.8722  2.0290 -1.2426
   18MOL    H64 5538   1.136   6.180   7.710 -1.8870 -1.0132  1.6207
   18MOL    H65 5539   1.122   6.196   7.537  0.2838  0.5088  0.4301
   18MOL    C66 5540   0.887   6.050   0.139  0.3231  0.0195  0.3578
   18MOL    C67 5541   0.912   6.199   0.139 -0.1347  0.0428 -0.5924
   18MOL    O68 5542   0.999   6.231   0.252  0.2682 -0.1921  0.3900
   18MOL    C69 5543   1.139   6.246   0.237 -0.2415  0.0833  0.6263
   18MOL    C70 5544   1.168   6.393   0.263  0.0575  1.1129 -0.0474
   18MOL    C71 5545   1.209   6.146   0.336  0.0450 -0.1374 -0.3899
   18MOL    H72 5546   0.824   6.017   0.221 -1.2636 -0.3778 -0.9834
   18MOL    H73 5547   0.982   6.001   0.161  0.3219 -0.6797 -1.1159
   18MOL    H74 5548   0.962   6.232   0.048 -1.4576  1.4994 -0.7979
   18MOL    H75 5549   1.167   6.226   0.134 -0.8138  3.6565 -0.3153
   18MOL    H76 5550   1.140   6.452   0.177  0.7182  0.5777 -0.6387
   18MOL    H77 5551   1.097   6.428   0.338  0.3251 -0.7208  1.1109
   18MOL    H78 5552   1.270   6.416   0.297  0.2364  0.9868 -0.5018
   18MOL    H79 5553   1.191   6.177   0.439 -0.3757 -0.4410 -0.3678
   18MOL    H80 5554   1.314   6.157   0.309 -0.0509 -2.3543 -1.8085
   18MOL    H81 5555   1.180   6.041   0.335  2.8343 -0.9464 -0.1593
   18MOL    C82 5556   0.785   6.283   0.162 -0.2902  0.1430  0.3528
   18MOL    C83 5557   0.792   6.429   0.119 -0.6459  0.1510  0.7888
   18MOL    O84 5558   0.753   6.432   7.800 -0.8363 -0.3770 -0.0329
   18MOL    C85 5559   0.786   6.540   7.719 -1.1488 -0.0034 -0.2773
   18MOL    C86 5560   0.774   6.487   7.577  0.1185  0.4869  0.5210
   18MOL    C87 5561   0.920   6.607   7.750  0.1783  0.6908 -0.2114
   18MOL    H88 5562   0.695   6.242   0.117  0.7545 -0.2338 -1.4478
   18MOL    H89 5563   0.763   6.271   0.268  1.4342  1.8701  0.9397
   18MOL    H90 5564   0.897   6.452   0.133 -0.5156  0.5572 -0.7919
   18MOL    H91 5565   0.702   6.606   7.738 -1.6254 -0.3456 -1.1580
   18MOL    H92 5566   0.852   6.412   7.559  0.2591  1.0896 -1.5445
   18MOL    H93 5567   0.673   6.453   7.555  0.3059 -0.3970  1.0016
   18MOL    H94 5568   0.789   6.575   7.515 -2.7683  0.8998  0.3215
   18MOL    H95 5569   0.944   6.682   7.674 -1.4174 -0.0956 -1.5195
   18MOL    H96 5570   0.930   6.658   0.026  0.7058 -1.0743  0.6792
   18MOL    H97 5571   0.997   6.531   7.747  0.6532  1.1290  0.6893
   18MOL    C98 5572   0.714   6.521   0.208  0.0624 -0.2686 -0.3306
   18MOL    C99 5573   0.562   6.501   0.233 -1.1397  0.4663 -0.5353
   18MOL   O100 5574   0.479   6.537   0.125 -0.3558 -0.4305  0.0656
   18MOL   C101 5575   0.425   6.425   0.056  0.0097  0.5847 -0.0581
   18MOL   C102 5576   0.390   6.463   7.732 -0.0697 -0.2258  0.3863
   18MOL   C103 5577   0.305   6.376   0.137 -0.0346 -0.5520  0.5274
   18MOL   H104 5578   0.766   6.521   0.304 -1.8051 -1.9402  0.7144
   18MOL   H105 5579   0.723   6.621   0.166 -1.4079  0.1698  0.3485
   18MOL   H106 5580   0.544   6.397   0.258 -0.8427  0.7309  0.7797
   18MOL   H107 5581   0.491   6.339   0.064  0.3636  0.7888 -0.7871
   18MOL   H108 5582   0.480   6.493   7.677  0.6877  2.2469  2.8539
   18MOL   H109 5583   0.312   6.538   7.718 -3.2845 -3.0752  2.5983
   18MOL   H110 5584   0.355   6.372   7.685 -1.1284  1.0094 -1.2827
   18MOL   H111 5585   0.234   6.457   0.151  0.2136 -0.4613  1.2878
   18MOL   H112 5586   0.338   6.329   0.230  0.2062  0.2652  0.8567
   18MOL   H113 5587   0.264   6.294   0.077 -0.1695  2.6651 -3.9786
   18MOL   C114 5588   0.514   6.592   0.353  0.7062 -0.6043 -0.3000
   18MOL   C115 5589   0.402   6.540   0.450  0.2324  0.4178 -0.2335
   18MOL   O116 5590   0.478   6.462   0.545  0.4007 -0.0785 -0.5162
   18MOL   C117 5591   0.406   6.366   0.614 -0.3653  0.0336  0.2846
   18MOL   C118 5592   0.463   6.353   0.757 -0.0140 -0.6503 -0.4656
   18MOL   C119 5593   0.423   6.230   0.531  0.3096 -0.5937  0.1247
   18MOL   H120 5594   0.496   6.689   0.307 -1.0991 -0.4383  0.7307
   18MOL   H121 5595   0.595   6.626   0.418  0.5803 -1.4936  0.3395
   18MOL   H122 5596   0.331   6.481   0.393 -0.2516  0.0897  0.7141
   18MOL   H123 5597   0.301   6.398   0.611  0.0777  1.8916  3.0990
   18MOL   H124 5598   0.560   6.305   0.765  0.1116 -0.0313  1.8663
   18MOL   H125 5599   0.406   6.278   0.811  2.2567 -0.3933  2.3750
   18MOL   H126 5600   0.462   6.446   0.814  0.5225 -0.5588 -0.6006
   18MOL   H127 5601   0.374   6.150   0.586 -1.3334 -0.4953 -1.1159
   18MOL   H128 5602   0.527   6.208   0.507 -0.0511 -0.9577 -1.1818
   18MOL   H129 5603   0.363   6.242   0.440 -1.7848 -2.4591  1.2085
   18MOL   C130 5604   0.333   6.666   0.522  0.2906 -0.1644  0.2892
   18MOL   C131 5605   0.196   6.709   0.464  0.3242 -0.2365  0.3658
   18MOL   O132 5606   0.112   6.597   0.454  0.6496 -0.2132 -0.0316
   18MOL   C133 5607   0.044   6.561   0.571  0.2784 -0.4156 -0.7445
   18MOL   C134 5608   7.741   6.642   0.611 -0.2783  1.7381  0.1861
   18MOL   C135 5609   0.010   6.418   0.558  0.4609 -0.7672  0.1700
   18MOL   H136 5610   0.394   6.756   0.530  0.7209 -0.3724 -0.5576
   18MOL   H137 5611   0.313   6.644   0.627 -2.7518 -1.2083 -0.4616
   18MOL   H138 5612   0.150   6.789   0.522  0.1484  0.0511 -0.1641
   18MOL   H139 5613   0.115   6.566   0.654 -2.3572  0.7455  1.5515
   18MOL   H140 5614   7.665   6.642   0.532  0.2480  0.3578 -0.3358
   18MOL   H141 5615   7.767   6.747   0.622 -1.2602  1.9014  1.1770
   18MOL   H142 5616   7.686   6.606   0.698  0.0005  0.6712 -0.0729
   18MOL   H143 5617   7.804   6.378   0.656 -1.4733  0.9583  0.4044
   18MOL   H144 5618   7.768   6.385   0.475  0.6041 -2.7046  0.8111
   18MOL   H145 5619   0.102   6.366   0.532  0.9348 -0.5041  1.2728
   18MOL   C146 5620   0.220   6.758   0.317  0.0499 -0.5480 -0.0584
   18MOL   C147 5621   0.099   6.806   0.238  0.3326 -0.7675  0.2138
   18MOL   O148 5622   0.105   6.943   0.202  0.3293 -0.0429 -1.0190
   18MOL   C149 5623   0.103   7.034   0.315  0.3016  0.7829  0.0500
   18MOL   C150 5624   7.790   7.058   0.379  0.7837 -0.6005  0.2501
   18MOL   C151 5625   0.153   7.161   0.248  0.0903 -0.2494  0.6593
   18MOL   H152 5626   0.285   6.696   0.256  0.5465 -0.1427  0.0558
   18MOL   H153 5627   0.297   6.835   0.320 -1.6805  1.3077 -1.3697
   18MOL   H154 5628   0.008   6.799   0.297  0.2985 -0.0409  0.2441
   18MOL   H155 5629   0.178   7.004   0.388  1.1398  0.7284 -0.8249
   18MOL   H156 5630   7.745   6.979   0.440 -1.2618  0.7796  0.5813
   18MOL   H157 5631   7.712   7.085   0.308  0.3368  1.5720  1.5135
   18MOL   H158 5632   7.788   7.149   0.440 -2.3142 -0.0869 -0.5335
   18MOL   H159 5633   0.185   7.234   0.322 -0.3083  0.5880  0.0110
   18MOL   H160 5634   0.072   7.211   0.197  0.6981  0.5699  0.4889
   18MOL   H161 5635   0.236   7.149   0.178  0.4777  1.5517  0.8010
   18MOL   C162 5636   0.069   6.713   0.119  0.1771  0.4463 -0.4497
   18MOL   C163 5637   7.777   6.758   0.023  0.3290 -0.2739 -0.2059
   18MOL   O164 5638   7.757   6.657   7.747 -0.2402 -0.9374  0.1734
   18MOL   C165 5639   0.011   6.665   7.628 -0.9622  0.8415  0.6566
   18MOL   C166 5640   7.757   6.762   7.545 -0.4902 -0.5847  0.4053
   18MOL   C167 5641   0.013   6.528   7.556 -0.1148  0.1555 -0.2295
   18MOL   H168 5642   0.160   6.712   0.058  0.0256 -1.2072 -0.6835
   18MOL   H169 5643   0.058   6.614   0.164 -0.1887 -0.2959 -2.1519
   18MOL   H170 5644   7.807   6.852   7.797  0.6226  0.6178  1.7481
   18MOL   H171 5645   0.110   6.700   7.660  0.3752 -0.1541 -2.2511
   18MOL   H172 5646   7.673   6.724   7.487  0.9409 -0.4418 -1.7890
   18MOL   H173 5647   7.816   6.802   7.463  0.6729  1.5564  2.2248
   18MOL   H174 5648   7.716   6.849   7.597  1.1094  0.6848 -0.4304
   18MOL   H175 5649   0.073   6.532   7.465 -1.6886  1.2985 -1.2582
   18MOL   H176 5650   7.733   6.497   7.525 -1.0698  2.0254  0.9212
   18MOL   H177 5651   0.059   6.450   7.617 -2.1583 -1.3355 -0.5555
   18MOL   C178 5652   7.645   6.797   0.089 -0.7982  0.1803 -0.0435
   18MOL   C179 5653   7.541   6.861   7.813 -0.5988  0.0873 -0.5334
   18MOL   O180 5654   7.407   6.835   0.051 -0.5726  0.4037  0.0215
   18MOL   C181 5655   7.346   6.711   0.013  0.4539 -0.8624 -0.3565
   18MOL   C182 5656   7.216   6.748   7.748  0.0548  0.8166  0.5268
   18MOL   C183 5657   7.310   6.637   0.135  0.7845  0.4669 -0.4376
   18MOL   H184 5658   7.654   6.877   0.163  0.4703  1.3498 -1.4055
   18MOL   H185 5659   7.612   6.702   0.131  1.3057  0.6863  2.8986
   18MOL   H186 5660   7.537   6.807   7.719 -1.8663  0.4833 -0.7131
   18MOL   H187 5661   7.413   6.650   7.773  0.7992 -1.9014  1.0354
   18MOL   H188 5662   7.262   6.811   7.672 -0.1031  0.4270  0.1058
   18MOL   H189 5663   7.144   6.808   7.803 -1.2070 -0.5203  0.3703
   18MOL   H190 5664   7.174   6.664   7.692  1.9789 -0.0376  0.3219
   18MOL   H191 5665   7.393   6.633   0.207 -0.5962 -3.4974  1.0574
   18MOL   H192 5666   7.306   6.530   0.118 -1.8477  0.7748 -1.8557
   18MOL   H193 5667   7.215   6.660   0.183  0.2830 -0.5639 -0.9432
   18MOL   C194 5668   7.549   7.008   7.793 -0.1037 -0.3602 -0.1906
   18MOL   C195 5669   7.443   7.076   7.705 -0.4290 -0.5445  0.2139
   18MOL   O196 5670   7.479   7.074   7.568  0.2764 -0.1019 -0.6668
   18MOL   C197 5671   7.374   7.089   7.474 -0.1150 -0.6791 -0.3337
   18MOL   C198 5672   7.385   7.234   7.424  0.4391 -0.2066  0.1303
   18MOL   C199 5673   7.399   6.997   7.354 -0.0668 -0.1361 -1.1100
   18MOL   H200 5674   7.535   7.050   0.073 -2.0755 -0.2068 -0.5045
   18MOL   H201 5675   7.647   7.033   7.753  0.1638 -0.7234  0.2330
   18MOL   H202 5676   7.344   7.033   7.716  0.1500 -2.8696 -3.0875
   18MOL   H203 5677   7.273   7.069   7.512 -0.6172  0.0534 -1.2584
   18MOL   H204 5678   7.490   7.248   7.395  1.0615 -2.2972  1.3233
   18MOL   H205 5679   7.328   7.252   7.333  0.7666  0.5804  0.0732
   18MOL   H206 5680   7.351   7.313   7.491  1.2578  0.2179  0.0587
   18MOL   H207 5681   7.383   6.891   7.375  0.9641 -0.2925 -1.0717
   18MOL   H208 5682   7.321   7.015   7.280 -0.8945 -0.2143 -0.2596
   18MOL   H209 5683   7.498   7.008   7.309  0.0976  3.0192 -0.0681
   18MOL   C210 5684   7.435   7.224   7.763 -0.2842  0.0286 -0.1794
   18MOL   C211 5685   7.337   7.250   0.060  0.0482 -0.6515 -0.6818
   18MOL   O212 5686   7.374   7.374   0.120 -0.1403  0.0099  0.7555
   18MOL   C213 5687   7.408   7.386   0.259  0.1956  0.4416  0.2793
   18MOL   C214 5688   7.535   7.317   0.302  0.6071  0.8497  0.0877
   18MOL   C215 5689   7.414   7.532   0.307  0.8824  0.4045  0.5804
   18MOL   H216 5690   7.409   7.304   7.693 -1.6903  1.9636  2.4375
   18MOL   H217 5691   7.533   7.257   7.798 -1.4592 -0.0891  3.5210
   18MOL   H218 5692   7.360   7.174   0.135 -0.8753  1.1269  1.4713
   18MOL   H219 5693   7.328   7.332   0.309 -1.2032  3.2499  1.1489
   18MOL   H220 5694   7.520   7.216   0.266  5.5956  0.1718 -0.4705
   18MOL   H221 5695   7.556   7.315   0.409 -0.9902 -2.1491  0.3873
   18MOL   H222 5696   7.617   7.367   0.249  1.1709  2.3278  2.2857
   18MOL   H223 5697   7.338   7.594   0.260 -0.6230 -0.3267  2.0189
   18MOL   H224 5698   7.504   7.587   0.281  0.5352  0.5682 -0.2695
   18MOL   H225 5699   7.407   7.528   0.416  1.6880  0.5085  0.6401
   18MOL   C226 5700   7.192   7.258   0.016 -0.3268 -0.2158  0.0437
   18MOL   C227 5701   7.091   7.299   0.127  0.5584 -0.4062  0.0405
   18MOL   O228 5702   6.961   7.261   0.090  0.7058  0.5133  0.4156
   18MOL   C229 5703   6.925   7.122   0.096 -0.4636 -0.2466 -0.0939
   18MOL   C230 5704   6.867   7.086   7.783 -0.5111  0.7745 -0.0697
   18MOL   C231 5705   6.813   7.095   0.193 -0.3695 -0.0980 -0.7019
   18MOL   H232 5706   7.167   7.167   7.781  1.7111 -1.7509  1.5972
   18MOL   H233 5707   7.187   7.337   7.761 -2.3790  0.8747  1.2664
   18MOL   H234 5708   7.127   7.268   0.225 -1.1192  1.8131  1.4155
   18MOL   H235 5709   7.012   7.062   0.124 -1.5218 -2.0390 -0.5109
   18MOL   H236 5710   6.891   6.981   7.766  0.4400  0.7879  1.1609
   18MOL   H237 5711   6.763   7.122   7.779 -1.5006 -2.1505 -2.4451
   18MOL   H238 5712   6.924   7.148   7.714  1.5058 -1.2121 -0.2382
   18MOL   H239 5713   6.721   7.150   0.177  1.5981  2.9684 -2.0755
   18MOL   H240 5714   6.854   7.120   0.291 -0.4634  2.2957 -1.2453
   18MOL   H241 5715   6.790   6.989   0.201 -0.6000 -0.0868 -1.2205
   18MOL   C242 5716   7.065   7.453   0.143 -0.7443  0.1198  0.3523
   18MOL   C243 5717   6.978   7.470   0.270 -0.1142 -0.0718  0.2343
   18MOL   O244 5718   6.891   7.580   0.275 -0.5290  0.1414 -0.3136
   18MOL   C245 5719   6.780   7.575   0.193 -0.0082 -0.3198  0.1100
   18MOL   C246 5720   6.650   7.537   0.273  0.1197  0.7199 -0.6559
   18MOL   C247 5721   6.767   7.715   0.136 -0.7781  0.1962 -0.1451
   18MOL   H248 5722   7.154   7.513   0.161  0.8664 -1.3817 -2.2963
   18MOL   H249 5723   7.024   7.490   0.049 -1.1625 -1.7594 -0.2222
   18MOL   H250 5724   6.913   7.382   0.281  1.5439 -1.3785 -0.1689
   18MOL   H251 5725   6.780   7.499   0.115 -0.9483 -0.3924  0.1744
   18MOL   H252 5726   6.657   7.435   0.313 -0.6244  0.5237 -1.0259
   18MOL   H253 5727   6.624   7.608   0.351  0.7507  0.7344 -0.4496
   18MOL   H254 5728   6.568   7.544   0.202  0.1697  2.0311 -0.5974
   18MOL   H255 5729   6.855   7.731   0.074  0.4676  0.4538  1.6561
   18MOL   H256 5730   6.683   7.720   0.067 -1.4166 -2.6892  0.3704
   18MOL   H257 5731   6.769   7.793   0.211  0.4222  3.0260 -2.9843
   18MOL   C258 5732   7.066   7.486   0.400  0.1491  0.4200  0.9283
   18MOL   C259 5733   7.008   7.435   0.530 -0.3310 -0.2103  0.2935
   18MOL   O260 5734   7.074   7.499   0.640  0.3267  0.0451 -0.2647
   18MOL   C261 5735   7.018   7.624   0.676  0.3337 -0.5735  0.0510
   18MOL   C262 5736   6.893   7.617   0.765  0.3094 -0.0340 -0.2425
   18MOL   C263 5737   7.132   7.699   0.740  0.0881 -0.2213  0.2284
   18MOL   H264 5738   7.156   7.428   0.382  0.1983  0.1603  2.0313
   18MOL   H265 5739   7.106   7.587   0.403 -0.2045  0.6443 -1.0450
   18MOL   H266 5740   6.903   7.460   0.544 -0.1800 -0.2059  1.5299
   18MOL   H267 5741   6.979   7.673   0.586  0.7918  0.8346  0.5986
   18MOL   H268 5742   6.803   7.572   0.723  0.7916 -0.7273 -0.5419
   18MOL   H269 5743   6.865   7.719   0.792 -0.1165 -0.1847 -0.1123
   18MOL   H270 5744   6.926   7.577   0.861 -0.5734  2.3646  1.1021
   18MOL   H271 5745   7.163   7.672   0.841 -1.2519  0.3354  0.7928
   18MOL   H272 5746   7.219   7.709   0.675  0.7502 -0.3214  1.0915
   18MOL   H273 5747   7.108   7.805   0.752 -0.2725 -0.0020 -2.1403
   18MOL   C274 5748   7.021   7.283   0.540  0.1404  0.2183 -1.1268
   18MOL   C275 5749   6.902   7.207   0.621  0.1548  0.0129  0.1359
   18MOL   O276 5750   6.790   7.211   0.525 -0.2138  0.5777  0.4559
   18MOL   C277 5751   6.663   7.200   0.582  0.0936 -0.3286 -0.1207
   18MOL   C278 5752   6.577   7.124   0.486 -0.2089  0.1448 -0.3386
   18MOL   C279 5753   6.617   7.340   0.604 -0.2002 -0.0106  0.1251
   18MOL   H280 5754   7.014   7.237   0.442  0.6194 -2.4325  0.0508
   18MOL   H281 5755   7.120   7.266   0.581 -0.8705  2.0919  2.3478
   18MOL   H282 5756   6.872   7.261   0.711  0.7536  0.6060 -0.0153
   18MOL   H283 5757   6.672   7.154   0.681  1.5464 -0.7577 -0.4412
   18MOL   H284 5758   6.602   7.018   0.477  0.1559  0.1519  0.5405
   18MOL   H285 5759   6.472   7.137   0.513 -0.5843 -0.6557 -1.3868
   18MOL   H286 5760   6.580   7.165   0.385 -1.6811 -1.1485 -0.9274
   18MOL   H287 5761   6.691   7.406   0.649  0.3864  0.4655 -1.4916
   18MOL   H288 5762   6.531   7.343   0.671 -0.3244  0.2083 -0.0429
   18MOL   H289 5763   6.577   7.391   0.517  0.6256 -0.3484 -0.4585
   18MOL   C290 5764   6.931   7.059   0.637  0.3296  0.1660  0.4717
   18MOL   C291 5765   7.057   7.027   0.722  0.2706 -0.6452 -0.1629
   18MOL   O292 5766   7.039   7.074   0.856  0.0606 -0.1852 -0.2130
   18MOL   C293 5767   7.107   7.197   0.899 -0.1600 -0.0382 -0.7211
   18MOL   C294 5768   7.260   7.179   0.925  0.1934 -0.1288 -0.4025
   18MOL   C295 5769   7.032   7.235   1.031 -0.1600  0.9677  1.2616
   18MOL   H296 5770   6.953   7.015   0.540  0.1434  0.5519  0.2556
   18MOL   H297 5771   6.843   7.004   0.669 -0.9381  1.4386 -0.7697
   18MOL   H298 5772   7.139   7.087   0.682  2.0173 -1.8926  1.4667
   18MOL   H299 5773   7.097   7.277   0.826  1.2092  0.2590 -0.5987
   18MOL   H300 5774   7.302   7.129   0.838 -1.4524  1.3163 -2.0750
   18MOL   H301 5775   7.317   7.267   0.953 -1.0847  0.3650  0.7150
   18MOL   H302 5776   7.270   7.106   1.006  4.1772  1.4512  0.6152
   18MOL   H303 5777   6.924   7.243   1.035 -0.0556  1.8982  2.8288
   18MOL   H304 5778   7.045   7.154   1.103  1.6702 -1.6260 -1.8470
   18MOL   H305 5779   7.084   7.323   1.070  0.7006  0.5460  1.0809
   18MOL   C306 5780   7.100   6.880   0.720 -0.1049 -0.2155 -0.9993
   18MOL   C307 5781   7.149   6.842   0.583 -0.5613  0.2252 -0.9970
   18MOL   O308 5782   7.247   6.935   0.539 -0.2085 -0.5634 -0.1656
   18MOL   C309 5783   7.306   6.899   0.408  0.0930 -0.2254 -0.0686
   18MOL   C310 5784   7.243   7.002   0.313  1.2779  0.2203 -0.5072
   18MOL   C311 5785   7.458   6.911   0.413 -0.0806  0.2073 -0.2661
   18MOL   H312 5786   7.027   6.809   0.757  0.3408  0.8501  2.1082
   18MOL   H313 5787   7.186   6.865   0.785 -0.3387  1.0887 -0.3547
   18MOL   H314 5788   7.193   6.743   0.592 -2.1179 -0.5649 -1.9625
   18MOL   H315 5789   7.281   6.796   0.380  1.8885 -0.2851 -1.5409
   18MOL   H316 5790   7.259   7.106   0.339 -0.1158 -0.7057  4.4758
   18MOL   H317 5791   7.137   6.977   0.310  1.7814 -2.2733  0.7252
   18MOL   H318 5792   7.273   6.971   0.213  1.2636  1.7304 -0.9852
   18MOL   H319 5793   7.483   6.823   0.473 -1.8429 -0.5557 -0.6260
   18MOL   H320 5794   7.490   7.006   0.456  0.7782  0.4301 -1.3949
   18MOL   H321 5795   7.509   6.889   0.320  0.5553 -0.6376  0.2712
   18MOL   H322 5796   7.072   6.838   0.507 -3.5109  0.6617  1.8445
   19MOL     C1 5797   3.358   2.692   6.318  0.1804 -0.6978  0.6281
   19MOL     C2 5798   3.318   2.589   6.214  0.1846 -0.5256  0.0419
   19MOL     O3 5799   3.220   2.639   6.127  0.6040  0.3922  0.7373
   19MOL     C4 5800   3.078   2.639   6.171 -0.9074 -0.4671 -0.7484
   19MOL     C5 5801   3.026   2.497   6.159  0.2351  0.0309 -0.2588
   19MOL     C6 5802   2.994   2.724   6.076 -0.5551 -0.2536  0.3089
   19MOL     H7 5803   3.387   2.786   6.272 -0.0590 -0.1574  1.5760
   19MOL     H8 5804   3.268   2.713   6.376 -0.6778 -2.7204  0.0796
   19MOL     H9 5805   3.276   2.505   6.270  1.5095 -1.2028  0.0233
   19MOL    H10 5806   3.074   2.672   6.275  1.1166 -0.8450 -0.5330
   19MOL    H11 5807   3.035   2.464   6.055 -1.4297 -0.3238 -0.2954
   19MOL    H12 5808   3.080   2.432   6.228  1.8700  0.2474 -1.2992
   19MOL    H13 5809   2.920   2.485   6.178  0.5127 -3.1162 -0.3355
   19MOL    H14 5810   3.005   2.690   5.973 -1.5250  2.2835 -0.6896
   19MOL    H15 5811   2.892   2.733   6.115 -0.0197  1.0847  1.4368
   19MOL    H16 5812   3.049   2.818   6.072 -0.6045 -0.2428 -0.1034
   19MOL    H17 5813   3.441   2.655   6.378  0.2579 -1.8018 -0.1471
   19MOL    C18 5814   3.438   2.531   6.142  0.0509  0.0457  0.0676
   19MOL    C19 5815   3.397   2.414   6.056  1.2687 -0.1835 -0.0231
   19MOL    O20 5816   3.441   2.284   6.110  0.5993 -0.4012 -0.3420
   19MOL    C21 5817   3.344   2.223   6.194 -0.1607 -0.3377  0.1661
   19MOL    C22 5818   3.411   2.180   6.328 -1.3567 -0.4707 -0.3216
   19MOL    C23 5819   3.293   2.101   6.118 -0.7771 -0.3539  0.0296
   19MOL    H24 5820   3.485   2.608   6.081 -1.1629 -0.1284 -1.1130
   19MOL    H25 5821   3.515   2.503   6.214 -1.3273 -1.6920  0.9010
   19MOL    H26 5822   3.289   2.410   6.040  1.1754 -2.7200  1.0639
   19MOL    H27 5823   3.264   2.290   6.225 -0.3960 -1.1453  1.3554
   19MOL    H28 5824   3.341   2.143   6.403 -1.2732 -2.3505 -1.1464
   19MOL    H29 5825   3.491   2.107   6.313 -0.4662  0.8875 -2.4465
   19MOL    H30 5826   3.452   2.262   6.388 -0.4650 -2.2257  1.5482
   19MOL    H31 5827   3.377   2.033   6.102  0.1834  0.5753  1.0380
   19MOL    H32 5828   3.250   2.135   6.024  0.0201 -0.6031 -0.4325
   19MOL    H33 5829   3.226   2.051   6.187  0.1248  0.1592  1.2927
   19MOL    C34 5830   3.470   2.415   5.925  0.4819  0.4472  0.6505
   19MOL    C35 5831   3.435   2.309   5.820 -0.2398  0.0964 -0.0199
   19MOL    O36 5832   3.358   2.381   5.723 -0.0972 -0.5085  0.0079
   19MOL    C37 5833   3.220   2.389   5.746 -0.2257  0.1430 -0.4544
   19MOL    C38 5834   3.180   2.535   5.741 -0.5324 -0.3913 -0.0654
   19MOL    C39 5835   3.151   2.317   5.637 -1.4596  0.6805  0.2400
   19MOL    H40 5836   3.579   2.404   5.933  0.5895  0.7110 -0.3767
   19MOL    H41 5837   3.452   2.515   5.886 -0.9815  0.4096  1.2072
   19MOL    H42 5838   3.368   2.227   5.847  1.1741 -1.1541 -0.2380
   19MOL    H43 5839   3.186   2.345   5.840  0.1102  0.3385 -0.2388
   19MOL    H44 5840   3.072   2.545   5.735 -0.4204 -0.2736 -2.3582
   19MOL    H45 5841   3.221   2.578   5.649  1.3819 -0.9615  0.5033
   19MOL    H46 5842   3.216   2.597   5.823 -1.2001 -2.0313  1.4943
   19MOL    H47 5843   3.195   2.218   5.625 -0.3060  1.3471 -1.1797
   19MOL    H48 5844   3.046   2.301   5.662 -2.2214 -0.3195 -3.3739
   19MOL    H49 5845   3.158   2.372   5.543 -0.6965  0.0491 -0.0722
   19MOL    C50 5846   3.553   2.246   5.727 -1.0925  0.6740 -0.0518
   19MOL    C51 5847   3.635   2.144   5.812 -0.2778  0.5327  0.6474
   19MOL    O52 5848   3.752   2.212   5.857 -0.0665 -0.5332 -0.1013
   19MOL    C53 5849   3.831   2.157   5.960  0.0753 -0.1198 -0.1559
   19MOL    C54 5850   3.787   2.214   6.098  0.6607 -0.1439  0.1612
   19MOL    C55 5851   3.982   2.185   5.932  0.0979 -0.4660 -0.1891
   19MOL    H56 5852   3.514   2.206   5.633 -0.6524 -0.0502  0.0709
   19MOL    H57 5853   3.608   2.331   5.685 -0.7145  0.2815 -0.3541
   19MOL    H58 5854   3.579   2.101   5.895  2.1993  0.1447  2.2034
   19MOL    H59 5855   3.816   2.049   5.963 -2.0810  0.0257 -3.2414
   19MOL    H60 5856   3.857   2.188   6.177 -0.3875  0.0233  1.1661
   19MOL    H61 5857   3.687   2.179   6.126 -0.1619  1.2717 -0.9163
   19MOL    H62 5858   3.779   2.322   6.111  0.7234 -0.1352  0.1219
   19MOL    H63 5859   4.037   2.126   6.006 -0.8130  2.9367  3.3415
   19MOL    H64 5860   4.006   2.291   5.930 -1.5362 -0.0955 -1.0193
   19MOL    H65 5861   4.008   2.136   5.838  0.7121 -0.9678  0.2346
   19MOL    C66 5862   3.692   2.032   5.713 -0.1691  0.1838 -0.4655
   19MOL    C67 5863   3.606   1.932   5.653  0.3577 -0.1192  0.2696
   19MOL    O68 5864   3.517   1.866   5.752 -0.6425  0.2105  0.1136
   19MOL    C69 5865   3.385   1.827   5.706 -0.4188  0.3837 -0.5910
   19MOL    C70 5866   3.346   1.738   5.829 -0.0246  0.5984 -0.0339
   19MOL    C71 5867   3.298   1.958   5.706 -0.3886  0.0205  0.4366
   19MOL    H72 5868   3.752   2.073   5.631  0.0240  1.3112  0.2224
   19MOL    H73 5869   3.752   1.972   5.780  0.1824 -0.2078 -1.1216
   19MOL    H74 5870   3.542   1.985   5.582 -0.4792  0.9553  1.7867
   19MOL    H75 5871   3.392   1.776   5.610  0.5864  0.1859 -0.4195
   19MOL    H76 5872   3.365   1.788   5.924 -0.7968 -0.6422  0.7900
   19MOL    H77 5873   3.240   1.713   5.828 -0.0872  0.7249  1.9374
   19MOL    H78 5874   3.409   1.650   5.827 -2.1882 -0.9664 -1.1602
   19MOL    H79 5875   3.279   1.988   5.809  0.0948  2.7928 -0.2314
   19MOL    H80 5876   3.200   1.951   5.658 -1.5590 -1.9910  3.0053
   19MOL    H81 5877   3.356   2.037   5.658  0.6153 -1.5747 -1.0297
   19MOL    C82 5878   3.685   1.819   5.580  0.1981 -0.6286  0.4384
   19MOL    C83 5879   3.741   1.856   5.442 -0.6504 -0.7967  0.4206
   19MOL    O84 5880   3.856   1.944   5.464  0.2570  0.2075  0.1303
   19MOL    C85 5881   3.862   2.069   5.402  0.0279  0.1153 -0.0738
   19MOL    C86 5882   3.893   2.044   5.255 -0.8301 -0.5344  0.4539
   19MOL    C87 5883   3.979   2.152   5.461 -0.6385  0.2126 -0.5728
   19MOL    H88 5884   3.767   1.794   5.647  1.7783  1.9360 -0.4449
   19MOL    H89 5885   3.605   1.746   5.571 -1.3819  0.7708  2.6097
   19MOL    H90 5886   3.669   1.900   5.373 -1.4092 -0.7043  1.2654
   19MOL    H91 5887   3.771   2.128   5.415 -0.6913 -1.0723  0.3630
   19MOL    H92 5888   3.802   1.996   5.217 -2.0200  2.4444 -0.5572
   19MOL    H93 5889   3.898   2.132   5.191 -1.2105 -1.2368 -0.5570
   19MOL    H94 5890   3.986   1.989   5.239 -0.0672  0.6974  0.6606
   19MOL    H95 5891   3.998   2.236   5.395 -0.6755  2.4437  2.1763
   19MOL    H96 5892   3.959   2.187   5.562  1.9064  0.2660 -0.0602
   19MOL    H97 5893   4.071   2.094   5.464 -1.5428 -1.1563  2.3205
   19MOL    C98 5894   3.806   1.733   5.373 -0.0226 -0.2698 -0.0447
   19MOL    C99 5895   3.709   1.629   5.306  0.2039 -0.0841 -0.1758
   19MOL   O100 5896   3.612   1.695   5.226 -0.6417 -0.5155 -0.4416
   19MOL   C101 5897   3.656   1.749   5.102 -0.3206 -0.0673  0.3091
   19MOL   C102 5898   3.573   1.873   5.083 -0.3428 -0.3105 -0.4703
   19MOL   C103 5899   3.633   1.653   4.994 -0.1600 -0.1127 -0.5166
   19MOL   H104 5900   3.877   1.774   5.301 -1.4514  2.2501 -0.0947
   19MOL   H105 5901   3.874   1.690   5.446  2.7042  2.1718 -1.0676
   19MOL   H106 5902   3.763   1.560   5.242 -0.7916 -2.0584  1.0645
   19MOL   H107 5903   3.758   1.786   5.104 -0.2073 -0.2938 -0.8934
   19MOL   H108 5904   3.602   1.927   4.992  0.9812 -2.0633 -1.1271
   19MOL   H109 5905   3.605   1.946   5.157  2.0303 -0.4070 -1.3349
   19MOL   H110 5906   3.467   1.851   5.073 -1.3558  2.4996  3.1558
   19MOL   H111 5907   3.696   1.568   5.021  0.7958  0.6040 -0.4491
   19MOL   H112 5908   3.666   1.686   4.896  1.5131  1.3169  0.4895
   19MOL   H113 5909   3.527   1.629   4.990 -0.4091  1.0794 -1.2187
   19MOL   C114 5910   3.632   1.541   5.402  0.1404 -0.4696  0.0627
   19MOL   C115 5911   3.621   1.389   5.355 -1.2744 -0.1953 -0.6962
   19MOL   O116 5912   3.761   1.352   5.355  0.4787 -0.6062 -0.0667
   19MOL   C117 5913   3.792   1.222   5.290 -0.2296  0.3037 -0.4599
   19MOL   C118 5914   3.840   1.117   5.400  0.2084 -0.2294  0.6390
   19MOL   C119 5915   3.907   1.254   5.195 -0.3683 -0.4203 -0.3710
   19MOL   H120 5916   3.528   1.571   5.419 -0.3080 -2.3690  0.8564
   19MOL   H121 5917   3.683   1.546   5.498  1.6245  0.2407 -0.7445
   19MOL   H122 5918   3.571   1.381   5.259 -4.9678  0.4021  1.0804
   19MOL   H123 5919   3.708   1.199   5.225  0.3700 -0.4553 -0.9809
   19MOL   H124 5920   3.921   1.147   5.466 -0.9873  1.9301  1.1827
   19MOL   H125 5921   3.874   1.033   5.340 -1.6675 -1.6960  1.5859
   19MOL   H126 5922   3.757   1.080   5.460  0.3715 -0.9557  0.4142
   19MOL   H127 5923   3.875   1.330   5.124 -2.0928 -0.5438  0.2580
   19MOL   H128 5924   3.921   1.171   5.125  1.3200  0.2564 -0.8588
   19MOL   H129 5925   3.999   1.287   5.243  0.2728 -2.7837  0.1018
   19MOL   C130 5926   3.545   1.301   5.461 -0.3342  0.1454 -0.5809
   19MOL   C131 5927   3.401   1.342   5.498  0.0364 -0.7378 -0.3443
   19MOL   O132 5928   3.361   1.267   5.614  0.0393 -0.6812 -0.2696
   19MOL   C133 5929   3.261   1.315   5.700  0.2702  0.2573  0.4431
   19MOL   C134 5930   3.142   1.212   5.702  0.3158  0.5833  0.1692
   19MOL   C135 5931   3.334   1.351   5.833  0.5954  0.2198  0.1609
   19MOL   H136 5932   3.615   1.304   5.544 -1.0632  0.2189  0.0344
   19MOL   H137 5933   3.548   1.199   5.424  0.1511  0.6386 -1.9492
   19MOL   H138 5934   3.405   1.445   5.536  0.1236 -0.4749 -1.0595
   19MOL   H139 5935   3.220   1.409   5.663 -0.8296  0.0197  1.0298
   19MOL   H140 5936   3.198   1.123   5.729  4.3993  2.7320 -0.7537
   19MOL   H141 5937   3.092   1.190   5.607 -2.6673  0.7471  1.6684
   19MOL   H142 5938   3.052   1.234   5.758  0.0869  0.0826  0.0009
   19MOL   H143 5939   3.428   1.401   5.811  1.5433 -1.5698  0.0899
   19MOL   H144 5940   3.272   1.411   5.900 -1.6352 -0.1876 -1.4839
   19MOL   H145 5941   3.354   1.254   5.877 -4.3936 -1.5093 -1.0556
   19MOL   C146 5942   3.297   1.330   5.381  0.2415  1.1307 -0.2595
   19MOL   C147 5943   3.240   1.461   5.320  0.2188  0.7609 -0.1573
   19MOL   O148 5944   3.169   1.418   5.207 -0.1358 -0.2142 -0.4747
   19MOL   C149 5945   3.226   1.459   5.082  0.5802  0.2506  0.0904
   19MOL   C150 5946   3.121   1.444   4.968 -0.1772 -0.5206 -0.2454
   19MOL   C151 5947   3.353   1.392   5.053 -0.2540 -0.3986  0.3238
   19MOL   H152 5948   3.221   1.262   5.420  1.4046 -1.5504 -2.5230
   19MOL   H153 5949   3.344   1.267   5.306 -0.2724 -0.0079  0.3620
   19MOL   H154 5950   3.321   1.526   5.286  0.3570 -0.0522 -1.3958
   19MOL   H155 5951   3.263   1.561   5.082 -1.9589  1.2128 -1.3894
   19MOL   H156 5952   3.172   1.458   4.873 -1.2980  0.5357 -0.7050
   19MOL   H157 5953   3.035   1.507   4.991 -0.3554 -1.1044  0.7047
   19MOL   H158 5954   3.094   1.339   4.968  1.6578 -1.0103 -0.4895
   19MOL   H159 5955   3.438   1.438   5.103  0.2201 -1.1890  0.2544
   19MOL   H160 5956   3.383   1.401   4.948  0.6564  0.4637  0.6550
   19MOL   H161 5957   3.349   1.284   5.073  0.5188  0.1178  3.5246
   19MOL   C162 5958   3.141   1.544   5.406  0.2111 -0.3229 -0.5563
   19MOL   C163 5959   3.092   1.673   5.335  0.3996  0.5303 -0.0835
   19MOL   O164 5960   3.017   1.747   5.435 -0.1606  0.4732 -0.0702
   19MOL   C165 5961   2.886   1.699   5.459  0.0029 -0.2639  0.5184
   19MOL   C166 5962   2.787   1.774   5.367  0.3318 -0.6806 -0.4603
   19MOL   C167 5963   2.860   1.740   5.605  0.3236 -0.7837 -0.0721
   19MOL   H168 5964   3.062   1.475   5.437  1.6125 -1.2978  0.9322
   19MOL   H169 5965   3.195   1.556   5.500  3.0936  0.2148 -2.2228
   19MOL   H170 5966   3.023   1.643   5.256  0.0139  1.4780 -0.1084
   19MOL   H171 5967   2.888   1.591   5.450 -0.7137 -0.1280 -1.3321
   19MOL   H172 5968   2.815   1.878   5.349 -0.6728 -0.2379  0.4241
   19MOL   H173 5969   2.685   1.779   5.405  1.6557  1.1140  3.1852
   19MOL   H174 5970   2.769   1.739   5.266  1.3439  1.1792 -1.3224
   19MOL   H175 5971   2.924   1.675   5.665 -0.3716 -0.1874  1.3382
   19MOL   H176 5972   2.757   1.724   5.636 -0.3398  2.8696 -0.1734
   19MOL   H177 5973   2.887   1.844   5.618  1.7686 -1.2191  0.4711
   19MOL   C178 5974   3.199   1.776   5.295  0.7751  0.2123  0.4580
   19MOL   C179 5975   3.147   1.881   5.196 -0.6256  0.3209  0.2551
   19MOL   O180 5976   3.254   1.974   5.186  0.1530 -0.0507 -0.3677
   19MOL   C181 5977   3.248   2.089   5.274  0.5663  0.0743  0.4662
   19MOL   C182 5978   3.182   2.198   5.204  0.3950  0.3542 -0.5849
   19MOL   C183 5979   3.390   2.125   5.307  0.4341  0.6410  0.2781
   19MOL   H184 5980   3.275   1.713   5.248  0.4231 -1.4927  2.0888
   19MOL   H185 5981   3.252   1.826   5.377  2.4187 -0.9606  0.1494
   19MOL   H186 5982   3.061   1.937   5.231  0.2895  1.3534  0.9133
   19MOL   H187 5983   3.203   2.061   5.369 -1.6640 -0.3155 -0.6364
   19MOL   H188 5984   3.077   2.177   5.182  0.4082 -0.1036 -0.2250
   19MOL   H189 5985   3.228   2.222   5.108  0.7837  1.0828 -0.2247
   19MOL   H190 5986   3.185   2.291   5.261 -2.5832  0.2712 -0.2382
   19MOL   H191 5987   3.458   2.043   5.330  0.9200  1.1293  0.5884
   19MOL   H192 5988   3.397   2.203   5.382 -0.4153 -0.4281  1.4843
   19MOL   H193 5989   3.445   2.156   5.218  1.2500  0.4350  0.6999
   19MOL   C194 5990   3.112   1.820   5.057 -0.4359  0.0470 -0.4353
   19MOL   C195 5991   3.080   1.926   4.950  0.1301  0.1526  0.3159
   19MOL   O196 5992   3.017   1.847   4.851  0.1497 -0.1529 -0.4133
   19MOL   C197 5993   2.875   1.814   4.868  0.5827  0.4896 -0.2772
   19MOL   C198 5994   2.785   1.940   4.847 -0.1812  0.8824 -0.8563
   19MOL   C199 5995   2.854   1.711   4.753 -0.5131  1.0624 -0.4531
   19MOL   H200 5996   3.188   1.752   5.019 -2.2895 -1.9996 -0.6416
   19MOL   H201 5997   3.026   1.753   5.069 -0.1266 -0.5370 -1.4568
   19MOL   H202 5998   3.021   2.004   5.000 -0.4757  0.4706 -0.8792
   19MOL   H203 5999   2.847   1.771   4.964 -1.6575  2.4572 -0.0012
   19MOL   H204 6000   2.801   2.021   4.919  1.1735  0.3671 -0.5692
   19MOL   H205 6001   2.795   1.981   4.746 -0.0378 -0.3602 -1.3508
   19MOL   H206 6002   2.679   1.921   4.860 -0.0794  1.4504  0.8990
   19MOL   H207 6003   2.888   1.612   4.785 -1.3641  1.3747  1.4653
   19MOL   H208 6004   2.747   1.700   4.742 -0.1077 -2.4818 -1.4694
   19MOL   H209 6005   2.901   1.733   4.657 -0.7624 -1.5397 -1.2053
   19MOL   C210 6006   3.208   1.985   4.893  0.3511 -0.3103 -0.7361
   19MOL   C211 6007   3.182   2.090   4.783  0.2569 -0.3913  0.7967
   19MOL   O212 6008   3.186   2.216   4.846 -0.3021 -0.2785  0.0330
   19MOL   C213 6009   3.104   2.311   4.787 -0.2778  0.1216  0.4645
   19MOL   C214 6010   2.955   2.290   4.806  0.2147 -0.5025 -0.2783
   19MOL   C215 6011   3.149   2.453   4.830  0.1761 -0.2472  0.0533
   19MOL   H216 6012   3.259   1.907   4.837 -0.2312 -0.2092 -1.4086
   19MOL   H217 6013   3.273   2.027   4.969  0.1377  3.4715 -2.5329
   19MOL   H218 6014   3.082   2.071   4.744  0.3264 -0.8559  0.8397
   19MOL   H219 6015   3.118   2.300   4.679  1.2830 -0.2703  0.6931
   19MOL   H220 6016   2.919   2.310   4.907  0.7122 -0.1546 -0.1679
   19MOL   H221 6017   2.916   2.190   4.786 -0.1156 -0.3704 -0.2975
   19MOL   H222 6018   2.905   2.359   4.738 -2.7298 -0.2032  2.0776
   19MOL   H223 6019   3.073   2.526   4.802  0.3745 -0.7562 -1.9152
   19MOL   H224 6020   3.249   2.484   4.798 -1.0252  2.8676 -0.8314
   19MOL   H225 6021   3.148   2.456   4.939 -0.7086  2.9395 -0.0027
   19MOL   C226 6022   3.289   2.071   4.675 -1.3395 -0.1273  0.5804
   19MOL   C227 6023   3.261   1.968   4.569  0.1796 -0.0060 -0.4465
   19MOL   O228 6024   3.382   1.882   4.569 -0.2538 -0.1074 -0.4367
   19MOL   C229 6025   3.348   1.756   4.597  0.1087 -0.4309  0.2538
   19MOL   C230 6026   3.475   1.690   4.644 -0.5418 -0.6973  0.0205
   19MOL   C231 6027   3.301   1.690   4.463 -0.0023 -0.7491 -0.4025
   19MOL   H232 6028   3.387   2.061   4.721 -0.6056 -0.6782 -1.0808
   19MOL   H233 6029   3.303   2.169   4.628 -1.4389 -0.5105 -0.2464
   19MOL   H234 6030   3.167   1.915   4.585 -0.5148  1.8143  1.8579
   19MOL   H235 6031   3.269   1.754   4.673  1.7144 -1.2477  1.9514
   19MOL   H236 6032   3.553   1.695   4.568 -0.8146 -2.3862 -0.3909
   19MOL   H237 6033   3.522   1.741   4.729 -0.0428 -0.4364 -0.4092
   19MOL   H238 6034   3.473   1.586   4.675 -0.7084 -0.0804  2.1677
   19MOL   H239 6035   3.218   1.743   4.416 -0.2486 -2.1075 -1.5580
   19MOL   H240 6036   3.265   1.587   4.476 -0.6418 -0.3003  1.5226
   19MOL   H241 6037   3.382   1.693   4.391  0.8783  2.3491  0.6463
   19MOL   C242 6038   3.241   2.036   4.428 -0.4760  0.0610  0.6253
   19MOL   C243 6039   3.126   2.138   4.408  0.0203 -0.5163 -0.1840
   19MOL   O244 6040   3.021   2.090   4.324 -0.7794 -0.6679 -0.9966
   19MOL   C245 6041   2.945   1.974   4.358  0.0973  0.2231 -0.3042
   19MOL   C246 6042   2.859   1.982   4.487  0.5279 -0.6565  0.0825
   19MOL   C247 6043   2.865   1.934   4.234  0.6588 -0.4715 -0.5556
   19MOL   H248 6044   3.340   2.081   4.416 -1.1200  1.0816 -1.0067
   19MOL   H249 6045   3.228   1.959   4.353 -0.5181  0.6018  0.0721
   19MOL   H250 6046   3.085   2.163   4.506  0.8533  1.8164 -0.4168
   19MOL   H251 6047   3.008   1.885   4.369 -0.7547 -0.3602 -0.0806
   19MOL   H252 6048   2.928   1.956   4.567  1.1876 -1.4740 -0.7446
   19MOL   H253 6049   2.813   2.079   4.505  2.7041 -0.3624  4.9888
   19MOL   H254 6050   2.786   1.901   4.479  1.3941 -1.7781  2.7993
   19MOL   H255 6051   2.926   1.912   4.147  0.6724 -0.6575 -0.4999
   19MOL   H256 6052   2.814   1.841   4.261 -0.9709  0.5373 -0.0603
   19MOL   H257 6053   2.792   2.008   4.203 -0.4224 -1.3159 -0.0754
   19MOL   C258 6054   3.173   2.269   4.336 -0.7135 -0.1104 -0.1229
   19MOL   C259 6055   3.082   2.378   4.315 -0.7846 -0.1312  0.3901
   19MOL   O260 6056   3.152   2.503   4.283 -0.2051  0.3548  0.1611
   19MOL   C261 6057   3.174   2.530   4.143  0.0424 -0.1531 -0.5276
   19MOL   C262 6058   3.059   2.618   4.091  0.1410 -0.0126  0.3683
   19MOL   C263 6059   3.311   2.603   4.140 -0.2700  0.5790 -0.2562
   19MOL   H264 6060   3.254   2.306   4.399 -1.4769  1.5731 -0.0830
   19MOL   H265 6061   3.228   2.237   4.247  0.5716 -1.4154  1.1165
   19MOL   H266 6062   3.005   2.349   4.243 -1.1995 -0.6062  1.0248
   19MOL   H267 6063   3.178   2.435   4.088  1.9744 -0.5264  0.2153
   19MOL   H268 6064   2.963   2.575   4.119  0.9917 -2.5570 -0.5130
   19MOL   H269 6065   3.058   2.633   3.983 -1.8394  1.3115  0.5493
   19MOL   H270 6066   3.061   2.714   4.142  1.2918  0.6045 -0.8010
   19MOL   H271 6067   3.312   2.704   4.183  0.9285  0.8053 -0.7779
   19MOL   H272 6068   3.382   2.543   4.197  0.7795  1.9068 -0.1334
   19MOL   H273 6069   3.349   2.617   4.039  0.1069  0.6907 -0.1039
   19MOL   C274 6070   3.005   2.419   4.444  0.5397 -0.3252  0.4165
   19MOL   C275 6071   2.877   2.504   4.424 -0.3249 -0.2747 -0.4045
   19MOL   O276 6072   2.756   2.421   4.402  0.1431  0.9971 -0.8039
   19MOL   C277 6073   2.711   2.395   4.275  0.6246  0.3434  0.1600
   19MOL   C278 6074   2.647   2.521   4.210  0.5386 -0.4719 -0.1042
   19MOL   C279 6075   2.607   2.284   4.285  0.2520  0.0069  0.4339
   19MOL   H280 6076   2.970   2.334   4.503  1.6950  0.6459  2.5774
   19MOL   H281 6077   3.074   2.471   4.511  1.1529  3.2771 -2.8428
   19MOL   H282 6078   2.893   2.574   4.342 -0.9131  1.3009  0.8205
   19MOL   H283 6079   2.786   2.360   4.205 -0.9040 -1.5558 -0.5856
   19MOL   H284 6080   2.558   2.548   4.267  0.8824  0.4483 -0.0058
   19MOL   H285 6081   2.719   2.603   4.210 -1.3274  1.1758 -0.2414
   19MOL   H286 6082   2.633   2.506   4.103  0.2719 -1.2710  0.0395
   19MOL   H287 6083   2.512   2.303   4.335 -0.8584 -0.5997 -1.4084
   19MOL   H288 6084   2.652   2.196   4.330  0.3880  1.4498  3.2320
   19MOL   H289 6085   2.584   2.260   4.181 -0.4902  0.4126  0.5011
   19MOL   C290 6086   2.835   2.580   4.548  0.2234 -0.1832  0.2026
   19MOL   C291 6087   2.730   2.690   4.510  0.2268 -0.3907 -0.0697
   19MOL   O292 6088   2.620   2.683   4.599  0.1218  0.1037 -0.1600
   19MOL   C293 6089   2.500   2.603   4.558 -0.8032 -0.3711 -0.6983
   19MOL   C294 6090   2.397   2.699   4.506  0.3081  0.6651 -0.6034
   19MOL   C295 6091   2.452   2.523   4.681  0.0061  0.3332  0.0499
   19MOL   H296 6092   2.925   2.633   4.580 -0.2397  1.1171 -0.6072
   19MOL   H297 6093   2.799   2.515   4.627  1.3374 -0.7303  0.2651
   19MOL   H298 6094   2.684   2.682   4.411 -0.0561 -2.0555  0.1916
   19MOL   H299 6095   2.523   2.538   4.473 -0.1496 -0.8308 -0.1748
   19MOL   H300 6096   2.292   2.668   4.513  0.1931  1.4669  1.7984
   19MOL   H301 6097   2.408   2.791   4.564  0.0128 -0.6146  1.5672
   19MOL   H302 6098   2.417   2.727   4.403 -0.6305 -0.0097 -0.9756
   19MOL   H303 6099   2.540   2.498   4.740 -0.7158  0.5851  1.2407
   19MOL   H304 6100   2.384   2.586   4.739  0.9684  0.2835  1.2433
   19MOL   H305 6101   2.395   2.437   4.647 -2.1752  1.8673 -0.3402
   19MOL   C306 6102   2.796   2.830   4.525  0.4024  0.3022  0.4133
   19MOL   C307 6103   2.709   2.954   4.505  0.1056 -0.2816 -0.2491
   19MOL   O308 6104   2.791   3.063   4.472 -0.7334 -0.3309 -0.1744
   19MOL   C309 6105   2.719   3.172   4.417  0.3136 -0.0124 -0.1176
   19MOL   C310 6106   2.654   3.259   4.522 -0.0588 -0.1299  0.1577
   19MOL   C311 6107   2.824   3.252   4.337 -0.2051 -0.5573  0.5137
   19MOL   H312 6108   2.872   2.825   4.447 -0.6198 -1.0886 -0.5126
   19MOL   H313 6109   2.847   2.852   4.619 -2.4328 -0.9177  2.3077
   19MOL   H314 6110   2.652   2.932   4.415 -1.4986 -0.6136  0.8281
   19MOL   H315 6111   2.638   3.144   4.350 -0.1064  0.3415  0.2400
   19MOL   H316 6112   2.728   3.299   4.592 -1.1314  1.4167  0.4199
   19MOL   H317 6113   2.594   3.204   4.595 -0.5787  0.7001  0.3663
   19MOL   H318 6114   2.591   3.336   4.477  0.0210 -1.3989 -2.1662
   19MOL   H319 6115   2.780   3.337   4.285  0.1736  0.9433  2.5922
   19MOL   H320 6116   2.869   3.190   4.260 -1.7863  0.1421 -1.0094
   19MOL   H321 6117   2.902   3.278   4.409 -0.2658  0.7020  0.1351
   19MOL   H322 6118   2.643   2.967   4.591  1.0480 -0.3426  0.5000
   20MOL     C1 6119   5.529   0.463   4.478  0.1830 -0.4253  0.0397
   20MOL     C2 6120   5.394   0.397   4.475 -0.5589  0.1448  0.5590
   20MOL     O3 6121   5.350   0.398   4.608 -0.2855  0.1096  0.8114
   20MOL     C4 6122   5.357   0.274   4.669 -0.0059 -0.4395 -0.7144
   20MOL     C5 6123   5.253   0.283   4.786 -0.1478  1.0559  0.8102
   20MOL     C6 6124   5.506   0.256   4.725  0.3828  0.0919 -0.2433
   20MOL     H7 6125   5.571   0.457   4.377  1.6681  0.3358  0.5969
   20MOL     H8 6126   5.528   0.571   4.494  0.2079 -0.4700  0.3375
   20MOL     H9 6127   5.412   0.297   4.435 -2.1325  0.4776 -1.0403
   20MOL    H10 6128   5.323   0.192   4.605  1.0040 -0.4424 -1.2419
   20MOL    H11 6129   5.244   0.189   4.840 -2.8621 -0.2564 -1.7914
   20MOL    H12 6130   5.281   0.345   4.871  0.9197  0.4809  0.8868
   20MOL    H13 6131   5.151   0.305   4.752 -0.0110  0.0319 -0.2969
   20MOL    H14 6132   5.563   0.218   4.640  1.1274  0.6485  0.0051
   20MOL    H15 6133   5.541   0.347   4.773  2.4459  1.1262 -3.5472
   20MOL    H16 6134   5.498   0.162   4.780  1.7036 -0.8531 -1.6338
   20MOL    H17 6135   5.594   0.413   4.549 -0.2071 -1.3650 -0.2601
   20MOL    C18 6136   5.301   0.485   4.389  0.1841 -0.0013  0.2023
   20MOL    C19 6137   5.161   0.425   4.372  0.2600  0.3472  0.0738
   20MOL    O20 6138   5.110   0.502   4.262  0.2857 -0.5122 -0.6218
   20MOL    C21 6139   5.081   0.433   4.140 -0.0560  0.6077 -0.1671
   20MOL    C22 6140   5.212   0.401   4.061  0.8308  0.1606  0.5734
   20MOL    C23 6141   4.992   0.525   4.057 -0.4479  0.0500 -0.6167
   20MOL    H24 6142   5.293   0.586   4.431 -0.6852 -0.1671  0.4499
   20MOL    H25 6143   5.349   0.508   4.294 -0.8617  0.5196 -0.2114
   20MOL    H26 6144   5.167   0.319   4.347 -3.0385  0.1850 -0.2396
   20MOL    H27 6145   5.034   0.337   4.158  0.4486  0.6625  1.5191
   20MOL    H28 6146   5.171   0.370   3.965 -1.0581  2.7053  0.4918
   20MOL    H29 6147   5.286   0.480   4.058  1.5837 -0.5865 -1.0661
   20MOL    H30 6148   5.251   0.308   4.104 -1.7509 -1.0571  0.3945
   20MOL    H31 6149   4.974   0.492   3.955 -2.0226 -0.7109 -0.1217
   20MOL    H32 6150   5.021   0.629   4.043 -2.2744  0.8364  1.1026
   20MOL    H33 6151   4.898   0.531   4.114  0.6036  0.0254  1.1639
   20MOL    C34 6152   5.062   0.434   4.492  0.2323  0.2004  0.1468
   20MOL    C35 6153   4.951   0.325   4.496 -0.4258 -0.0050  0.7434
   20MOL    O36 6154   5.024   0.207   4.512 -0.4054  0.3615  0.3740
   20MOL    C37 6155   4.958   0.086   4.471  0.1706 -0.2443  0.9707
   20MOL    C38 6156   4.997   0.059   4.328 -0.5479  0.8151  0.0984
   20MOL    C39 6157   5.013   7.803   4.566  0.1031 -0.8270  0.3867
   20MOL    H40 6158   5.016   0.531   4.471 -0.1409 -0.2440 -1.1544
   20MOL    H41 6159   5.110   0.451   4.588  0.3662  0.0222  0.1121
   20MOL    H42 6160   4.897   0.322   4.401 -2.1163 -0.5575  1.6995
   20MOL    H43 6161   4.852   0.104   4.484 -0.2740  0.3554 -2.8197
   20MOL    H44 6162   4.933   7.798   4.293 -1.0288  1.7110 -1.1436
   20MOL    H45 6163   5.095   0.013   4.319 -1.6898 -2.1207  2.2065
   20MOL    H46 6164   4.992   0.140   4.255 -0.9828  0.1841 -0.5799
   20MOL    H47 6165   5.115   7.772   4.542  0.9146 -0.1850  2.8434
   20MOL    H48 6166   5.003   0.003   4.673 -2.9948  3.7399 -0.5938
   20MOL    H49 6167   4.965   7.706   4.556 -2.3008  0.2034  1.5431
   20MOL    C50 6168   4.859   0.349   4.626 -0.4202 -0.3056  0.1336
   20MOL    C51 6169   4.772   0.481   4.621  0.1957  0.3392  0.4969
   20MOL    O52 6170   4.724   0.517   4.746 -0.3336 -0.1178  0.7324
   20MOL    C53 6171   4.765   0.642   4.804  0.0299  0.1165  0.5295
   20MOL    C54 6172   4.917   0.660   4.819  0.2507 -0.6099 -0.4887
   20MOL    C55 6173   4.687   0.652   4.935  0.0681 -0.5795 -0.4986
   20MOL    H56 6174   4.806   0.257   4.653  0.7638 -1.1678 -0.4581
   20MOL    H57 6175   4.932   0.368   4.704 -2.4672  3.2941  1.3167
   20MOL    H58 6176   4.837   0.560   4.583 -0.1920 -0.0572 -1.0557
   20MOL    H59 6177   4.743   0.728   4.741  1.8232 -0.9531 -1.6429
   20MOL    H60 6178   4.964   0.698   4.728 -0.4079 -1.2528 -1.1068
   20MOL    H61 6179   4.947   0.561   4.855  0.7260  0.1793  1.2889
   20MOL    H62 6180   4.940   0.729   4.899 -2.0144 -0.7753  0.3477
   20MOL    H63 6181   4.580   0.653   4.913 -0.0069  2.7812 -0.3240
   20MOL    H64 6182   4.710   0.740   4.994 -1.3204 -0.2926 -0.3546
   20MOL    H65 6183   4.709   0.561   4.990  2.5158  2.0899  3.2188
   20MOL    C66 6184   4.651   0.465   4.530 -0.0364 -0.3154 -1.1359
   20MOL    C67 6185   4.598   0.593   4.468  0.3757  0.1871  0.1038
   20MOL    O68 6186   4.461   0.558   4.437  0.1517 -0.3485  0.6615
   20MOL    C69 6187   4.363   0.606   4.532  0.0837 -0.1454  0.8271
   20MOL    C70 6188   4.330   0.753   4.498 -0.5796  0.0129  0.0617
   20MOL    C71 6189   4.233   0.521   4.501 -0.5123  0.1105  1.0177
   20MOL    H72 6190   4.679   0.399   4.448 -1.5488 -3.4292  0.7568
   20MOL    H73 6191   4.567   0.423   4.585  0.7592 -1.8241 -1.0371
   20MOL    H74 6192   4.593   0.676   4.538 -0.6901  0.4244 -0.2359
   20MOL    H75 6193   4.393   0.594   4.636  2.6312 -0.9024  0.0477
   20MOL    H76 6194   4.312   0.759   4.391  1.1138 -0.2572 -0.2640
   20MOL    H77 6195   4.243   0.784   4.557 -1.7356 -0.8224 -1.1859
   20MOL    H78 6196   4.419   0.808   4.531 -0.2861 -0.2053 -0.3653
   20MOL    H79 6197   4.255   0.414   4.502 -1.3818 -0.0823 -0.0970
   20MOL    H80 6198   4.189   0.537   4.403 -1.3892  1.1213  1.5652
   20MOL    H81 6199   4.158   0.550   4.575 -0.7753 -0.1139  0.8397
   20MOL    C82 6200   4.668   0.619   4.334 -0.3960  0.6302 -0.1889
   20MOL    C83 6201   4.704   0.764   4.317 -0.6462  0.2292  0.9163
   20MOL    O84 6202   4.585   0.849   4.316  0.4267 -0.4225  0.4711
   20MOL    C85 6203   4.539   0.898   4.186  0.0304  0.6129  0.3866
   20MOL    C86 6204   4.461   1.022   4.204  0.4855  0.9247  0.2162
   20MOL    C87 6205   4.447   0.796   4.117 -0.3778  0.4730 -0.5677
   20MOL    H88 6206   4.753   0.551   4.325 -0.0586  1.1534 -0.9818
   20MOL    H89 6207   4.602   0.593   4.251 -0.0133  1.5326 -0.7752
   20MOL    H90 6208   4.755   0.774   4.221 -3.0811 -1.1849 -0.5931
   20MOL    H91 6209   4.629   0.921   4.129  0.5402  0.3870  1.0959
   20MOL    H92 6210   4.358   1.015   4.237  0.8340  0.0861  1.1555
   20MOL    H93 6211   4.505   1.086   4.280  2.8986  0.5769 -0.8315
   20MOL    H94 6212   4.452   1.076   4.110  2.2140  1.3514  0.2800
   20MOL    H95 6213   4.359   0.766   4.175  0.1077 -0.8505 -0.4863
   20MOL    H96 6214   4.402   0.843   4.030  1.9079  1.6137 -1.1629
   20MOL    H97 6215   4.500   0.704   4.091  0.1147  0.7932 -0.6930
   20MOL    C98 6216   4.796   0.814   4.422 -0.6211  0.0813 -0.0048
   20MOL    C99 6217   4.870   0.945   4.386  0.1426 -0.1139 -0.5356
   20MOL   O100 6218   4.986   0.905   4.320  0.0595 -0.2218 -0.4635
   20MOL   C101 6219   5.041   0.987   4.227 -0.4819  0.1917  0.1031
   20MOL   C102 6220   4.988   0.966   4.085  0.4196 -0.0133 -0.3898
   20MOL   C103 6221   5.186   0.935   4.220 -0.0152 -0.5300 -0.0380
   20MOL   H104 6222   4.743   0.818   4.517 -2.7188 -0.9167 -1.1065
   20MOL   H105 6223   4.880   0.745   4.438 -0.0594  0.2872 -1.9948
   20MOL   H106 6224   4.802   0.998   4.320 -2.0733 -2.0401  0.1691
   20MOL   H107 6225   5.041   1.091   4.259  3.6001  0.0309  0.9462
   20MOL   H108 6226   5.006   0.862   4.059 -1.8614 -0.4553 -0.3117
   20MOL   H109 6227   5.028   1.032   4.008  0.8598 -0.6290 -0.6917
   20MOL   H110 6228   4.880   0.979   4.084  0.7624  3.6094  0.7336
   20MOL   H111 6229   5.230   0.961   4.124 -1.4337 -3.1275 -1.4681
   20MOL   H112 6230   5.184   0.826   4.228 -1.6288 -0.7471 -2.7746
   20MOL   H113 6231   5.247   0.963   4.306 -0.6314  1.3627 -0.2068
   20MOL   C114 6232   4.907   1.030   4.512 -0.1237  0.1194 -0.2826
   20MOL   C115 6233   4.800   1.129   4.560 -0.3194 -0.6462  0.4212
   20MOL   O116 6234   4.776   1.239   4.465  0.5958  0.5166 -0.4644
   20MOL   C117 6235   4.866   1.348   4.469 -0.5524  0.1748  0.3411
   20MOL   C118 6236   4.834   1.445   4.579  0.4085 -0.7880  0.4244
   20MOL   C119 6237   4.860   1.410   4.331  0.3905  0.6112  0.6834
   20MOL   H120 6238   4.995   1.089   4.486  1.4712 -3.4165 -3.4473
   20MOL   H121 6239   4.932   0.975   4.603 -0.1196  2.5325  1.2235
   20MOL   H122 6240   4.819   1.159   4.663  0.0030 -0.8818  0.4288
   20MOL   H123 6241   4.966   1.305   4.469 -0.3844  0.5264 -1.4334
   20MOL   H124 6242   4.915   1.514   4.602  0.1574 -0.1622 -0.4847
   20MOL   H125 6243   4.799   1.403   4.673 -1.3563  1.3613  0.7754
   20MOL   H126 6244   4.742   1.499   4.552  0.5282  0.3559  2.1892
   20MOL   H127 6245   4.760   1.451   4.323  0.1668 -0.0098  0.2125
   20MOL   H128 6246   4.865   1.334   4.252  0.6802  0.1287  1.1619
   20MOL   H129 6247   4.941   1.480   4.311  1.1164 -0.5284 -0.5010
   20MOL   C130 6248   4.661   1.071   4.584  0.0384 -0.1242  0.2448
   20MOL   C131 6249   4.556   1.169   4.634 -0.2892 -0.1771  0.2715
   20MOL   O132 6250   4.482   1.105   4.736  0.1070  0.0277 -0.6704
   20MOL   C133 6251   4.540   1.104   4.867  0.1311  0.3414 -0.6296
   20MOL   C134 6252   4.475   1.220   4.944 -0.5966  0.0762  0.3421
   20MOL   C135 6253   4.499   0.967   4.925 -0.6125 -0.6708  0.6377
   20MOL   H136 6254   4.661   0.979   4.643  0.0216 -0.0097  0.4258
   20MOL   H137 6255   4.624   1.046   4.485 -0.0033  0.5341  0.0897
   20MOL   H138 6256   4.599   1.261   4.674 -0.3129 -0.0983  0.1144
   20MOL   H139 6257   4.647   1.123   4.860  0.4439 -0.9428  0.5324
   20MOL   H140 6258   4.507   1.219   5.048 -0.0872 -0.0952  0.1854
   20MOL   H141 6259   4.366   1.214   4.939 -0.4842 -1.2880 -0.7981
   20MOL   H142 6260   4.503   1.317   4.904 -1.7489  1.2207  2.2571
   20MOL   H143 6261   4.391   0.952   4.930 -0.4693 -2.0496 -0.1687
   20MOL   H144 6262   4.536   0.884   4.865  0.3880 -0.5936  1.1457
   20MOL   H145 6263   4.556   0.958   5.017  1.3157  0.4404 -0.4262
   20MOL   C146 6264   4.447   1.197   4.524 -1.0114 -0.0894 -0.8770
   20MOL   C147 6265   4.343   1.307   4.551 -0.1883 -0.3144  0.1114
   20MOL   O148 6266   4.384   1.426   4.487  0.5618  0.4103 -0.1795
   20MOL   C149 6267   4.352   1.548   4.565 -0.0462  0.2466  0.4374
   20MOL   C150 6268   4.330   1.664   4.464 -0.0106  0.2025 -0.1108
   20MOL   C151 6269   4.469   1.568   4.666 -0.2816 -0.2912  0.4704
   20MOL   H152 6270   4.400   1.103   4.496  0.8712 -0.8252 -1.6429
   20MOL   H153 6271   4.487   1.228   4.428  1.5746  0.6311  0.4041
   20MOL   H154 6272   4.324   1.320   4.658  0.1903  0.6913  0.0585
   20MOL   H155 6273   4.259   1.552   4.622 -0.8250 -2.0123 -0.6187
   20MOL   H156 6274   4.258   1.640   4.386 -0.1855  2.5637 -0.7203
   20MOL   H157 6275   4.424   1.683   4.413  0.1494 -2.4472 -0.8518
   20MOL   H158 6276   4.303   1.757   4.513 -1.9012  1.0522 -2.6551
   20MOL   H159 6277   4.550   1.597   4.599  0.1930 -2.2213  0.1846
   20MOL   H160 6278   4.510   1.480   4.715  1.3879  0.1797 -0.0624
   20MOL   H161 6279   4.449   1.653   4.731  0.8386 -0.2095  0.7139
   20MOL   C162 6280   4.204   1.265   4.498 -0.4926 -0.4665  0.4745
   20MOL   C163 6281   4.084   1.352   4.546 -0.0211 -0.5678 -1.0401
   20MOL   O164 6282   3.977   1.332   4.445  0.1129  0.6968 -1.3325
   20MOL   C165 6283   3.982   1.420   4.337  0.7502 -1.0795  0.3581
   20MOL   C166 6284   3.879   1.528   4.354 -0.7437  0.3944 -0.3083
   20MOL   C167 6285   3.955   1.336   4.210  0.1131  0.4304 -0.0806
   20MOL   H168 6286   4.221   1.284   4.392 -1.9204  2.0056  0.6658
   20MOL   H169 6287   4.173   1.161   4.508  0.2668 -0.6521  0.9503
   20MOL   H170 6288   4.105   1.459   4.543  0.3780 -0.5357  1.3510
   20MOL   H171 6289   4.073   1.476   4.313 -1.2271  2.3355  0.5610
   20MOL   H172 6290   3.901   1.577   4.449 -0.9165  2.2085 -1.1758
   20MOL   H173 6291   3.776   1.492   4.363 -0.0687 -1.3233  0.9357
   20MOL   H174 6292   3.871   1.595   4.268  0.8736 -1.0829 -1.6335
   20MOL   H175 6293   4.031   1.259   4.201  1.3323  1.4964  0.8645
   20MOL   H176 6294   3.961   1.399   4.121 -0.3456  1.0944  0.3535
   20MOL   H177 6295   3.856   1.291   4.212  0.2519  0.1358  0.1536
   20MOL   C178 6296   4.030   1.306   4.684  0.2153 -0.2424  0.2558
   20MOL   C179 6297   3.930   1.394   4.765 -0.3472  0.0042 -0.2859
   20MOL   O180 6298   3.981   1.523   4.771  0.0243 -0.0072 -0.1571
   20MOL   C181 6299   4.082   1.554   4.868  0.2265 -0.3642  0.0318
   20MOL   C182 6300   4.039   1.534   5.013  0.0581 -0.5986  0.1284
   20MOL   C183 6301   4.109   1.702   4.853 -0.5705 -0.4902  0.0907
   20MOL   H184 6302   4.118   1.311   4.747  0.2260  1.1691  0.1342
   20MOL   H185 6303   4.000   1.201   4.690 -0.9266 -0.1088 -2.2946
   20MOL   H186 6304   3.929   1.360   4.868  1.6701  0.6361 -0.0498
   20MOL   H187 6305   4.174   1.498   4.852  0.3043 -0.1965 -0.1081
   20MOL   H188 6306   4.117   1.572   5.079 -0.5906 -0.7146  0.9757
   20MOL   H189 6307   4.024   1.426   5.022 -0.4171 -0.5675 -0.2796
   20MOL   H190 6308   3.949   1.587   5.044 -1.0339 -1.3694 -1.6672
   20MOL   H191 6309   4.007   1.740   4.853 -0.6359 -0.6272 -1.1319
   20MOL   H192 6310   4.161   1.731   4.762  0.2913  0.0642  0.7564
   20MOL   H193 6311   4.158   1.743   4.941  1.6941  0.6033 -1.6340
   20MOL   C194 6312   3.784   1.399   4.711 -0.5157  0.0833 -0.0182
   20MOL   C195 6313   3.699   1.278   4.688  0.1322  0.5602  0.1682
   20MOL   O196 6314   3.583   1.329   4.624 -0.1586 -0.4694  0.2073
   20MOL   C197 6315   3.506   1.242   4.541 -0.0821  0.9183  0.5939
   20MOL   C198 6316   3.382   1.326   4.516 -0.1328  0.1636  0.0031
   20MOL   C199 6317   3.576   1.202   4.412  0.7213 -0.9660  0.4832
   20MOL   H200 6318   3.729   1.470   4.772 -1.4447  0.4332 -1.2547
   20MOL   H201 6319   3.791   1.447   4.614  0.8471  0.0849  0.0709
   20MOL   H202 6320   3.748   1.198   4.632  1.4712  0.8635  0.8836
   20MOL   H203 6321   3.480   1.153   4.599  0.2145  0.6713  0.3461
   20MOL   H204 6322   3.417   1.423   4.480 -2.0332  0.7354 -0.3539
   20MOL   H205 6323   3.325   1.286   4.432 -0.3727 -2.9028  1.5897
   20MOL   H206 6324   3.316   1.341   4.602  1.8449 -0.3809  1.6415
   20MOL   H207 6325   3.651   1.126   4.434  2.1374 -0.4682 -2.3898
   20MOL   H208 6326   3.493   1.160   4.355  0.3764 -0.1383  0.3610
   20MOL   H209 6327   3.615   1.286   4.353  1.0717 -2.2285 -1.1142
   20MOL   C210 6328   3.654   1.212   4.822  0.1168 -0.1991 -0.1192
   20MOL   C211 6329   3.675   1.061   4.839  0.3735  0.1817  0.1737
   20MOL   O212 6330   3.810   1.023   4.822 -0.3088 -0.1088  0.3728
   20MOL   C213 6331   3.841   0.887   4.770  0.3500 -0.2714  0.2094
   20MOL   C214 6332   3.903   0.899   4.638  0.1043 -0.0225 -0.3289
   20MOL   C215 6333   3.941   0.818   4.861 -0.3371 -0.4835  0.7112
   20MOL   H216 6334   3.546   1.220   4.836  0.1382 -0.6182  0.2616
   20MOL   H217 6335   3.707   1.255   4.907  0.2061 -1.0741  0.2743
   20MOL   H218 6336   3.635   1.015   4.749  2.1702 -0.6817 -0.1995
   20MOL   H219 6337   3.751   0.829   4.751 -1.7156  2.7208  0.4840
   20MOL   H220 6338   3.831   0.926   4.561 -2.8546 -2.0027  1.6295
   20MOL   H221 6339   3.943   0.804   4.603 -1.0551  0.2545 -2.5385
   20MOL   H222 6340   3.983   0.973   4.642  1.8568 -1.8079 -1.2819
   20MOL   H223 6341   4.026   0.880   4.887 -1.6175  1.3532  0.6457
   20MOL   H224 6342   3.982   0.727   4.817 -1.0985 -1.0290  1.1260
   20MOL   H225 6343   3.894   0.789   4.955 -1.0886  0.1691  0.5440
   20MOL   C226 6344   3.618   0.994   4.966 -0.6723  0.0836 -0.4255
   20MOL   C227 6345   3.466   0.983   4.965  0.2645 -0.5455 -0.2434
   20MOL   O228 6346   3.415   0.920   5.085  0.0142 -0.3139 -0.6120
   20MOL   C229 6347   3.412   0.987   5.208  0.3075 -0.2696  0.0132
   20MOL   C230 6348   3.502   0.916   5.306  0.1155  1.1555 -0.6533
   20MOL   C231 6349   3.265   0.994   5.252  0.4515  0.0513  0.0936
   20MOL   H232 6350   3.657   1.041   5.057  0.3143  0.4507 -1.0326
   20MOL   H233 6351   3.666   0.897   4.981  0.9214  0.6201 -1.8260
   20MOL   H234 6352   3.426   1.085   4.963  2.1811  0.2831  1.6691
   20MOL   H235 6353   3.450   1.089   5.210 -0.2114 -0.0956  1.3336
   20MOL   H236 6354   3.462   0.815   5.309  0.0532  1.1694 -0.9233
   20MOL   H237 6355   3.606   0.913   5.274  0.7692 -1.5511  1.5688
   20MOL   H238 6356   3.482   0.960   5.403 -0.0091  1.4268 -0.7993
   20MOL   H239 6357   3.203   1.050   5.182  1.1994  2.1855  1.0737
   20MOL   H240 6358   3.240   1.048   5.343 -2.5187  0.3016 -0.8119
   20MOL   H241 6359   3.223   0.894   5.258 -2.1409  1.1300  0.1813
   20MOL   C242 6360   3.407   0.899   4.846  0.3900 -0.0792 -0.5748
   20MOL   C243 6361   3.256   0.902   4.822  0.4118  0.0368 -0.3094
   20MOL   O244 6362   3.218   0.831   4.699 -0.3588  0.2993  0.1776
   20MOL   C245 6363   3.156   0.705   4.708  1.0453 -0.3035  1.0907
   20MOL   C246 6364   3.086   0.663   4.578 -0.1670  0.1904 -0.4771
   20MOL   C247 6365   3.247   0.599   4.770  1.1926  1.0224  0.1403
   20MOL   H248 6366   3.456   0.922   4.752  0.1455 -2.1773 -1.2410
   20MOL   H249 6367   3.430   0.794   4.861  2.6719  0.6874  1.8245
   20MOL   H250 6368   3.208   0.860   4.910  2.0136  0.1742  0.6545
   20MOL   H251 6369   3.083   0.727   4.786 -0.7274  1.4526 -1.0147
   20MOL   H252 6370   3.159   0.655   4.498  0.4569 -0.0257  0.1071
   20MOL   H253 6371   3.028   0.571   4.592 -1.9270  1.4635  0.7404
   20MOL   H254 6372   3.013   0.739   4.552 -1.5165 -0.0509  2.3508
   20MOL   H255 6373   3.200   0.501   4.772  1.3786  0.8651 -2.4803
   20MOL   H256 6374   3.326   0.582   4.698 -2.0987 -3.5157 -2.5810
   20MOL   H257 6375   3.285   0.620   4.870  0.1492  0.8485  0.5818
   20MOL   C258 6376   3.199   1.046   4.802 -0.5442  0.0905 -0.5611
   20MOL   C259 6377   3.042   1.063   4.805 -0.2998 -0.0574  0.4278
   20MOL   O260 6378   2.998   1.191   4.766 -0.1303 -0.2807 -0.0846
   20MOL   C261 6379   2.991   1.203   4.631  0.7817 -0.1454  0.0516
   20MOL   C262 6380   2.851   1.143   4.598  0.4025 -0.0570 -0.0761
   20MOL   C263 6381   2.993   1.355   4.603  0.2714  0.2543 -0.4980
   20MOL   H264 6382   3.234   1.101   4.890  1.8253 -2.9954  0.5260
   20MOL   H265 6383   3.243   1.095   4.715  1.8913 -3.1590 -1.2297
   20MOL   H266 6384   3.006   0.982   4.742 -1.1593 -0.1144  0.9967
   20MOL   H267 6385   3.069   1.153   4.575 -1.4770 -0.5169 -2.8970
   20MOL   H268 6386   2.837   1.154   4.490 -1.2139  0.0304  0.1277
   20MOL   H269 6387   2.776   1.199   4.654  0.6876 -0.5678  0.8248
   20MOL   H270 6388   2.837   1.037   4.617  0.6405  0.2152  1.6281
   20MOL   H271 6389   2.997   1.363   4.495  0.3002 -0.7841 -0.5735
   20MOL   H272 6390   2.902   1.398   4.644  0.4798  1.3145 -1.1194
   20MOL   H273 6391   3.076   1.417   4.638 -0.9832 -0.1346  3.3967
   20MOL   C274 6392   2.983   1.038   4.947  1.0138  0.2719  0.2509
   20MOL   C275 6393   2.829   1.041   4.950  0.2861 -0.0116 -0.1825
   20MOL   O276 6394   2.795   0.920   4.886  0.2144 -0.4865  0.0641
   20MOL   C277 6395   2.667   0.872   4.873 -0.3484  0.6668 -0.3921
   20MOL   C278 6396   2.685   0.721   4.850  0.2873  0.5822  0.1605
   20MOL   C279 6397   2.599   0.938   4.751  0.2499 -0.2645  0.0743
   20MOL   H280 6398   3.005   0.937   4.980 -0.4979 -0.0015  0.4662
   20MOL   H281 6399   3.035   1.096   5.024  1.1372 -2.4081  2.2725
   20MOL   H282 6400   2.788   1.130   4.902  0.7818  1.2363  1.6602
   20MOL   H283 6401   2.616   0.883   4.969 -0.8548 -0.0832 -0.5667
   20MOL   H284 6402   2.706   0.708   4.744 -0.8516  1.0483 -0.1342
   20MOL   H285 6403   2.764   0.664   4.899 -1.8310 -0.6757  2.2004
   20MOL   H286 6404   2.588   0.674   4.866 -0.0726  0.7364 -1.4467
   20MOL   H287 6405   2.663   0.928   4.663  0.9165  0.2096  0.4966
   20MOL   H288 6406   2.594   1.043   4.779  3.0461  0.5958 -2.3174
   20MOL   H289 6407   2.503   0.894   4.728  0.1101  0.2186 -0.2727
   20MOL   C290 6408   2.771   1.047   5.094 -0.1715  0.3922 -0.6037
   20MOL   C291 6409   2.783   1.185   5.159  0.3937  0.6214  1.1611
   20MOL   O292 6410   2.683   1.271   5.107  0.6296  0.3895 -0.3887
   20MOL   C293 6411   2.735   1.369   5.014  0.4127  0.0126 -0.0093
   20MOL   C294 6412   2.772   1.503   5.079  0.0065  0.2884  0.1825
   20MOL   C295 6413   2.617   1.387   4.917 -0.4923  0.3593  0.5833
   20MOL   H296 6414   2.803   0.963   5.155  0.0508  0.5771 -0.4624
   20MOL   H297 6415   2.663   1.033   5.087 -0.1437 -0.0208 -0.2100
   20MOL   H298 6416   2.885   1.224   5.159  0.3882  0.6606 -0.1966
   20MOL   H299 6417   2.819   1.325   4.960  0.0070 -1.7884  0.7898
   20MOL   H300 6418   2.691   1.535   5.145 -0.4288 -2.7944  1.2413
   20MOL   H301 6419   2.855   1.494   5.149 -0.1877 -2.0842  0.1660
   20MOL   H302 6420   2.783   1.583   5.006 -1.3282  3.3472  3.1678
   20MOL   H303 6421   2.638   1.450   4.830  3.0752  0.1706  1.2618
   20MOL   H304 6422   2.573   1.295   4.880 -2.5965  1.3899  0.4335
   20MOL   H305 6423   2.531   1.429   4.970 -0.3713 -0.2636  1.2726
   20MOL   C306 6424   2.761   1.171   5.308 -0.3138 -0.2068 -0.3353
   20MOL   C307 6425   2.783   1.298   5.392 -0.4311 -0.0327  0.0193
   20MOL   O308 6426   2.769   1.265   5.525 -0.1369 -0.3099 -0.3872
   20MOL   C309 6427   2.694   1.360   5.597  0.0560 -0.1748 -0.2559
   20MOL   C310 6428   2.548   1.340   5.570  0.4535  0.0750 -0.0793
   20MOL   C311 6429   2.736   1.337   5.745 -0.1316 -0.1050 -0.2423
   20MOL   H312 6430   2.843   1.109   5.344  0.0145 -0.6202 -1.7934
   20MOL   H313 6431   2.668   1.124   5.342  0.2764 -0.6013  0.7512
   20MOL   H314 6432   2.885   1.331   5.372 -0.9448  0.9946 -0.9309
   20MOL   H315 6433   2.717   1.462   5.568 -0.3396 -0.0943 -0.2874
   20MOL   H316 6434   2.480   1.406   5.625  0.7262  0.3931 -0.1226
   20MOL   H317 6435   2.527   1.233   5.573 -0.1667  0.1619 -1.1080
   20MOL   H318 6436   2.523   1.354   5.465 -2.2194 -1.1059  0.3658
   20MOL   H319 6437   2.740   1.230   5.767  3.0143 -0.3292 -1.6342
   20MOL   H320 6438   2.690   1.407   5.814  2.4055  0.2916  1.1140
   20MOL   H321 6439   2.840   1.365   5.760 -0.5936  0.3614  2.3435
   20MOL   H322 6440   2.724   1.381   5.355  1.2929  0.8361 -0.8756
   21MOL     C1 6441   6.520   0.810   5.491  0.2941  0.3848  0.3007
   21MOL     C2 6442   6.511   0.657   5.473  0.3083 -0.2349 -0.2976
   21MOL     O3 6443   6.372   0.638   5.501 -0.4116  0.2710  0.1682
   21MOL     C4 6444   6.343   0.509   5.543 -0.1837  0.5006  0.2104
   21MOL     C5 6445   6.219   0.456   5.478  0.1456  0.6631 -0.0045
   21MOL     C6 6446   6.317   0.519   5.697 -0.1584 -0.6356  0.0834
   21MOL     H7 6447   6.451   0.848   5.416 -1.0147 -2.8060 -0.2146
   21MOL     H8 6448   6.494   0.848   5.589  1.7105 -0.7416  1.1321
   21MOL     H9 6449   6.565   0.613   5.557 -0.8421 -2.4960 -0.7049
   21MOL    H10 6450   6.426   0.439   5.532  0.9101  1.7809  0.3117
   21MOL    H11 6451   6.194   0.359   5.521 -1.6045  1.7626  1.4944
   21MOL    H12 6452   6.133   0.521   5.495  0.1757  1.2515 -2.0037
   21MOL    H13 6453   6.249   0.443   5.374  1.6771  2.3655  0.1853
   21MOL    H14 6454   6.402   0.532   5.765 -0.4694 -1.6670  0.6878
   21MOL    H15 6455   6.257   0.608   5.712  1.2389  0.6096 -1.5307
   21MOL    H16 6456   6.266   0.429   5.734  0.2866 -0.7302  0.4831
   21MOL    H17 6457   6.607   0.864   5.455 -0.2116  1.1335  0.1890
   21MOL    C18 6458   6.557   0.600   5.340 -0.2127 -0.3109  0.1259
   21MOL    C19 6459   6.713   0.595   5.316  0.8136  0.0490 -0.2689
   21MOL    O20 6460   6.712   0.556   5.176  0.0330 -0.5465  0.2022
   21MOL    C21 6461   6.796   0.647   5.098  0.1123  0.0006  0.1818
   21MOL    C22 6462   6.719   0.779   5.074 -0.0331  0.0400 -0.3038
   21MOL    C23 6463   6.817   0.578   4.970 -0.2661 -0.8272 -0.0682
   21MOL    H24 6464   6.502   0.508   5.319 -0.9043  0.4744 -1.5463
   21MOL    H25 6465   6.526   0.677   5.270 -0.0074  1.4984  1.9925
   21MOL    H26 6466   6.750   0.696   5.336 -1.3289  0.7262  0.5107
   21MOL    H27 6467   6.890   0.678   5.143  0.8866 -0.6409 -0.9544
   21MOL    H28 6468   6.640   0.770   5.000  0.9103 -0.6000 -1.2452
   21MOL    H29 6469   6.668   0.814   5.164  0.0314  0.7506 -0.5469
   21MOL    H30 6470   6.789   0.855   5.042 -0.1268 -0.1839 -1.0609
   21MOL    H31 6471   6.872   0.642   4.901  1.4356 -2.3302 -0.1289
   21MOL    H32 6472   6.727   0.536   4.925 -0.5695 -0.1694 -0.0808
   21MOL    H33 6473   6.888   0.498   4.990  0.9409  0.2162 -0.1165
   21MOL    C34 6474   6.772   0.479   5.405  0.0226 -0.1119 -0.3925
   21MOL    C35 6475   6.922   0.479   5.405 -0.1145 -0.6508  0.4300
   21MOL    O36 6476   6.962   0.397   5.513  0.5840 -0.6372  0.1772
   21MOL    C37 6477   7.036   0.457   5.623  0.2265 -0.5064 -0.2789
   21MOL    C38 6478   6.946   0.545   5.717 -0.1863 -0.0243  0.8567
   21MOL    C39 6479   7.104   0.337   5.689  0.4072 -0.4599 -0.0571
   21MOL    H40 6480   6.725   0.385   5.375 -2.0556  0.5862  0.5864
   21MOL    H41 6481   6.745   0.496   5.510  2.3018  0.7198  0.0932
   21MOL    H42 6482   6.964   0.579   5.410 -0.7793 -0.3765  0.5537
   21MOL    H43 6483   7.111   0.520   5.574 -0.8955 -0.1742 -1.5978
   21MOL    H44 6484   6.882   0.481   5.777 -1.1892  0.5927  0.4545
   21MOL    H45 6485   6.893   0.621   5.660  1.2057  0.0411 -0.3959
   21MOL    H46 6486   7.000   0.606   5.790 -0.4038  1.6639 -0.3714
   21MOL    H47 6487   7.031   0.258   5.707 -1.0966  0.5240 -1.6822
   21MOL    H48 6488   7.188   0.303   5.628  0.1175 -0.3431 -0.5207
   21MOL    H49 6489   7.154   0.373   5.779  0.5028  0.0364 -0.3067
   21MOL    C50 6490   6.985   0.403   5.283  0.2216  0.2824 -0.7692
   21MOL    C51 6491   7.134   0.440   5.261 -0.3846 -0.0233  0.0850
   21MOL    O52 6492   7.126   0.576   5.213  0.1619  0.8838 -0.3560
   21MOL    C53 6493   7.236   0.664   5.239  0.3022  0.4154 -0.0971
   21MOL    C54 6494   7.238   0.732   5.368  0.0688  0.0091 -0.3336
   21MOL    C55 6495   7.212   0.763   5.130 -0.0356 -0.0555  0.1629
   21MOL    H56 6496   6.987   0.297   5.309  1.9475  0.8712  1.6711
   21MOL    H57 6497   6.909   0.423   5.208 -0.9722 -0.3113  0.2621
   21MOL    H58 6498   7.186   0.431   5.356  1.5289  1.4769 -0.7952
   21MOL    H59 6499   7.335   0.623   5.218  0.3982 -0.6871  2.3943
   21MOL    H60 6500   7.312   0.811   5.382 -0.2788  0.3268 -0.2910
   21MOL    H61 6501   7.237   0.667   5.456 -0.4112 -3.1456 -2.6218
   21MOL    H62 6502   7.149   0.793   5.381  0.4603  0.3867  0.6755
   21MOL    H63 6503   7.208   0.719   5.030 -2.5874 -1.4483  0.8289
   21MOL    H64 6504   7.295   0.833   5.136 -0.6599  0.6595  0.5575
   21MOL    H65 6505   7.120   0.821   5.142  0.2383  0.4363 -0.1046
   21MOL    C66 6506   7.190   0.330   5.164  0.3736  0.4194 -0.2576
   21MOL    C67 6507   7.339   0.332   5.125 -0.2392 -0.2569 -0.1065
   21MOL    O68 6508   7.340   0.247   5.008 -0.0481 -0.8019  0.2531
   21MOL    C69 6509   7.336   0.309   4.885 -0.0204  0.2338  0.4467
   21MOL    C70 6510   7.464   0.260   4.805  0.0152 -0.0609 -0.0284
   21MOL    C71 6511   7.203   0.266   4.822 -0.0673  0.3259 -0.2525
   21MOL    H72 6512   7.174   0.229   5.204  0.4177  0.3687 -0.3693
   21MOL    H73 6513   7.136   0.338   5.070  1.8846 -0.5924 -1.2315
   21MOL    H74 6514   7.383   0.429   5.102  1.3888 -0.8181  0.5987
   21MOL    H75 6515   7.338   0.418   4.896  0.3425 -0.1372  5.1882
   21MOL    H76 6516   7.467   0.151   4.799 -1.2146 -0.1116  0.2717
   21MOL    H77 6517   7.457   0.299   4.704 -1.3390 -0.9124 -0.2755
   21MOL    H78 6518   7.557   0.297   4.848  0.7303 -1.7532 -0.0900
   21MOL    H79 6519   7.117   0.313   4.869  1.4007  3.0034 -0.1636
   21MOL    H80 6520   7.193   0.157   4.821  3.6115 -0.0725 -1.0805
   21MOL    H81 6521   7.193   0.298   4.719 -0.9954  2.3066  0.4242
   21MOL    C82 6522   7.432   0.286   5.248  0.1883  0.4918  0.1655
   21MOL    C83 6523   7.573   0.340   5.236  0.1780 -0.4347 -0.1381
   21MOL    O84 6524   7.641   0.295   5.117 -0.3343  0.2301  0.4266
   21MOL    C85 6525   7.761   0.230   5.130  0.6064 -0.1041 -0.6787
   21MOL    C86 6526   0.032   0.258   5.009  0.6777  0.5552  0.4878
   21MOL    C87 6527   7.740   0.075   5.143 -0.8530 -0.9018  0.1480
   21MOL    H88 6528   7.388   0.324   5.340 -0.7555  2.6183 -1.1040
   21MOL    H89 6529   7.442   0.179   5.260 -1.3669  0.4804  1.5929
   21MOL    H90 6530   7.636   0.310   5.319  0.1009 -1.2580 -0.3672
   21MOL    H91 6531   7.807   0.261   5.224  1.3965 -2.1623 -0.3558
   21MOL    H92 6532   0.031   0.364   4.983  1.3320  0.7563  1.2684
   21MOL    H93 6533   0.132   0.220   5.025 -0.1660 -1.1756  1.7983
   21MOL    H94 6534   7.814   0.201   4.924  1.3444  0.0875  0.5025
   21MOL    H95 6535   7.674   0.035   5.066  1.0494 -1.0338 -1.4618
   21MOL    H96 6536   0.015   0.022   5.132  0.2927  0.6675  2.1207
   21MOL    H97 6537   7.683   0.051   5.233  0.0401 -0.5663  0.8178
   21MOL    C98 6538   7.582   0.495   5.241 -0.1111  0.2456 -0.3936
   21MOL    C99 6539   7.722   0.558   5.253  0.3485 -0.4372  0.2022
   21MOL   O100 6540   7.759   0.521   5.384 -0.9974 -0.2732  0.1625
   21MOL   C101 6541   0.079   0.522   5.417  0.1665  0.2318  0.2964
   21MOL   C102 6542   0.169   0.436   5.326 -0.1753 -0.2999  0.5893
   21MOL   C103 6543   0.086   0.486   5.562  0.1347 -0.4565 -0.2818
   21MOL   H104 6544   7.531   0.545   5.159 -0.5271  0.9738  0.2922
   21MOL   H105 6545   7.519   0.529   5.323 -2.1024 -0.3611 -1.6456
   21MOL   H106 6546   7.790   0.506   5.185  2.7725  0.7368  1.6742
   21MOL   H107 6547   0.112   0.626   5.408 -1.9965  0.6710 -3.5252
   21MOL   H108 6548   0.158   0.328   5.327 -0.4373 -0.3382 -1.8605
   21MOL   H109 6549   0.271   0.450   5.362 -0.1686 -0.0196  0.4623
   21MOL   H110 6550   0.162   0.476   5.224 -0.6904  0.6637  0.9989
   21MOL   H111 6551   0.039   0.393   5.595 -0.4379  0.1326  0.5752
   21MOL   H112 6552   0.038   0.560   5.626  2.9868  2.4706 -1.3883
   21MOL   H113 6553   0.189   0.490   5.596 -0.2313  0.9971  0.6881
   21MOL   C114 6554   7.724   0.716   5.244  0.2159 -0.4239 -0.1243
   21MOL   C115 6555   7.734   0.761   5.096 -0.2974  0.1881  0.0631
   21MOL   O116 6556   7.605   0.769   5.030 -0.4574  1.1036  0.3039
   21MOL   C117 6557   7.586   0.742   4.895  0.2128 -0.2032 -0.5063
   21MOL   C118 6558   7.449   0.792   4.858 -0.6868 -0.6537  0.0867
   21MOL   C119 6559   7.585   0.596   4.869 -0.6675  0.4710  0.3186
   21MOL   H120 6560   7.799   0.762   5.308  1.5787 -3.5283  0.6268
   21MOL   H121 6561   7.632   0.749   5.293  1.1489  1.1811  0.5774
   21MOL   H122 6562   7.801   0.699   5.038  1.1747  1.2737  0.5741
   21MOL   H123 6563   7.668   0.781   4.835  0.4228  0.6709  0.3434
   21MOL   H124 6564   7.368   0.743   4.912 -2.2770  0.7615 -0.9657
   21MOL   H125 6565   7.426   0.794   4.752 -0.2127 -0.4639 -0.0153
   21MOL   H126 6566   7.440   0.898   4.880  1.4429  0.6238 -4.5684
   21MOL   H127 6567   7.682   0.548   4.887 -1.3559 -1.7593 -1.6883
   21MOL   H128 6568   7.554   0.574   4.767 -0.5080 -1.7752  0.7151
   21MOL   H129 6569   7.516   0.537   4.929 -1.4345 -0.8869 -1.8654
   21MOL   C130 6570   7.800   0.896   5.083 -0.8112 -0.1682  0.3735
   21MOL   C131 6571   0.067   0.928   4.954  0.2583 -0.0120 -0.7226
   21MOL   O132 6572   0.199   0.956   4.996 -0.3810  0.0329 -0.5265
   21MOL   C133 6573   0.283   0.846   5.022  1.1305 -0.0950  0.5903
   21MOL   C134 6574   0.400   0.860   4.919 -0.0215 -0.1530  0.2846
   21MOL   C135 6575   0.322   0.861   5.169  0.2274  0.4482 -0.2746
   21MOL   H136 6576   0.054   0.906   5.161 -0.3684  2.1865 -0.3256
   21MOL   H137 6577   7.730   0.975   5.108 -0.3202  0.5255 -0.4269
   21MOL   H138 6578   0.059   0.839   4.893 -3.2462  0.5220 -1.1599
   21MOL   H139 6579   0.232   0.750   5.008  0.0318  1.0327 -3.7899
   21MOL   H140 6580   0.490   0.802   4.939 -0.1996 -0.2126  0.9010
   21MOL   H141 6581   0.433   0.964   4.919  0.1981 -0.2004  2.4819
   21MOL   H142 6582   0.376   0.843   4.814  1.4047  1.5325 -0.3490
   21MOL   H143 6583   0.412   0.806   5.198 -0.2332 -1.1707 -1.8256
   21MOL   H144 6584   0.353   0.965   5.179 -1.6704  1.2315 -2.3048
   21MOL   H145 6585   0.249   0.841   5.246  0.1095  0.0097 -0.4954
   21MOL   C146 6586   0.010   1.048   4.872 -0.3290  0.4587  0.0752
   21MOL   C147 6587   0.054   1.043   4.725  0.0929 -0.5366 -0.0149
   21MOL   O148 6588   7.816   0.928   4.671  0.0165  0.0607  0.1651
   21MOL   C149 6589   0.064   0.864   4.566 -0.2520 -0.2702  0.1654
   21MOL   C150 6590   7.777   0.785   4.490 -0.3903 -0.3471  0.6840
   21MOL   C151 6591   0.173   0.777   4.615  0.4294 -0.1351 -0.2336
   21MOL   H152 6592   0.044   1.138   4.922  1.7227 -0.3903  0.2627
   21MOL   H153 6593   7.721   1.047   4.872 -0.3344  1.0208  0.1943
   21MOL   H154 6594   0.162   1.026   4.722  0.3474  0.9991  0.0237
   21MOL   H155 6595   0.091   0.936   4.488 -0.6611  1.1225  1.2752
   21MOL   H156 6596   7.816   0.740   4.399 -0.7781  2.5234 -0.9805
   21MOL   H157 6597   7.701   0.852   4.450 -0.7963 -1.3792 -0.2950
   21MOL   H158 6598   7.728   0.713   4.555  0.7279 -1.7564 -0.0052
   21MOL   H159 6599   0.269   0.829   4.619 -0.4108  1.3520  1.3594
   21MOL   H160 6600   0.187   0.689   4.553  0.4863  0.1794 -0.6702
   21MOL   H161 6601   0.150   0.736   4.713  0.2016 -1.5940 -0.8851
   21MOL   C162 6602   0.001   1.169   4.644 -0.1653  0.1251  0.1232
   21MOL   C163 6603   0.089   1.292   4.660  0.0508  0.1775 -0.2007
   21MOL   O164 6604   0.223   1.264   4.637 -0.1038 -0.4819  0.4843
   21MOL   C165 6605   0.328   1.257   4.735 -0.1595  0.0359  0.0181
   21MOL   C166 6606   0.377   1.397   4.744  0.0660  0.3374 -0.4978
   21MOL   C167 6607   0.433   1.154   4.675 -0.0030 -0.1973  0.8280
   21MOL   H168 6608   0.007   1.143   4.538 -3.1652 -1.7853  0.3589
   21MOL   H169 6609   7.715   1.190   4.658 -0.7215 -2.7554  0.3772
   21MOL   H170 6610   0.080   1.320   4.765 -2.3263 -0.4525 -0.2211
   21MOL   H171 6611   0.288   1.218   4.829 -0.6855 -1.8119 -0.9589
   21MOL   H172 6612   0.422   1.423   4.649 -1.4333  0.8345 -1.0932
   21MOL   H173 6613   0.459   1.411   4.815 -0.6219  2.0350 -0.0020
   21MOL   H174 6614   0.305   1.474   4.773  0.7311  0.1896  1.6928
   21MOL   H175 6615   0.390   1.053   4.678 -0.1654 -0.2321 -1.6868
   21MOL   H176 6616   0.532   1.161   4.720  1.4480 -1.5221 -2.0399
   21MOL   H177 6617   0.451   1.179   4.571  0.8194  1.2785  1.3161
   21MOL   C178 6618   0.038   1.405   4.568 -0.2181  0.0580  0.0617
   21MOL   C179 6619   7.745   1.499   4.621  0.4403  0.1710 -0.1660
   21MOL   O180 6620   7.626   1.425   4.621 -0.6807 -0.3013 -0.3175
   21MOL   C181 6621   7.508   1.479   4.560 -0.3567 -0.6538  0.0940
   21MOL   C182 6622   7.390   1.391   4.601 -0.3647 -0.1675 -0.1392
   21MOL   C183 6623   7.519   1.480   4.411  0.2293 -0.6833  0.1916
   21MOL   H184 6624   0.018   1.363   4.469 -2.7910  2.4196 -0.4872
   21MOL   H185 6625   0.120   1.475   4.552  0.6055 -0.6514  1.1735
   21MOL   H186 6626   7.746   1.580   4.548  0.4216 -0.6366 -1.0693
   21MOL   H187 6627   7.491   1.582   4.592 -0.0687  0.4275 -3.0876
   21MOL   H188 6628   7.421   1.287   4.590  0.3253  0.2174 -2.1184
   21MOL   H189 6629   7.298   1.404   4.545 -0.4568 -2.7227 -0.6327
   21MOL   H190 6630   7.368   1.389   4.708  2.2046 -2.4230  0.4094
   21MOL   H191 6631   7.612   1.527   4.379 -1.2352  0.8576 -2.0092
   21MOL   H192 6632   7.434   1.534   4.368 -0.3307 -2.2794 -0.7955
   21MOL   H193 6633   7.527   1.381   4.365 -0.4663 -0.7399  0.1918
   21MOL   C194 6634   7.774   1.547   4.765 -0.1668  0.1492  0.1226
   21MOL   C195 6635   7.709   1.681   4.806 -0.4917 -0.5567  0.0141
   21MOL   O196 6636   7.752   1.777   4.714 -0.0510 -0.3224 -0.0541
   21MOL   C197 6637   7.640   1.849   4.651  0.3355 -0.4955 -0.1214
   21MOL   C198 6638   7.544   1.928   4.748 -0.7779  0.1264  0.4178
   21MOL   C199 6639   7.722   1.942   4.565 -0.3918  0.0038  0.6412
   21MOL   H200 6640   7.759   1.464   4.835 -2.9469 -0.8893 -1.6456
   21MOL   H201 6641   0.062   1.561   4.767 -0.1371  0.0129 -0.7105
   21MOL   H202 6642   7.602   1.674   4.821 -0.4382  1.4431  1.5579
   21MOL   H203 6643   7.575   1.789   4.587  0.2689  0.0814 -0.6101
   21MOL   H204 6644   7.486   1.873   4.822 -0.9116  3.2812  2.7704
   21MOL   H205 6645   7.598   2.001   4.808 -2.8071  0.2757  2.1302
   21MOL   H206 6646   7.461   1.980   4.701 -1.2051 -1.7810 -1.0151
   21MOL   H207 6647   7.797   1.993   4.625 -0.1777 -0.5879  0.8821
   21MOL   H208 6648   7.785   1.893   4.490 -2.2573  0.3825 -1.2332
   21MOL   H209 6649   7.667   2.029   4.528  1.0922  1.4028  1.6438
   21MOL   C210 6650   7.766   1.736   4.942 -0.0392  0.0231  0.2655
   21MOL   C211 6651   7.706   1.653   5.059 -0.2609 -0.4189 -0.2524
   21MOL   O212 6652   7.801   1.652   5.163  0.7086  0.2182 -0.4622
   21MOL   C213 6653   0.028   1.528   5.207 -0.5291  1.0325 -0.0729
   21MOL   C214 6654   0.144   1.475   5.114 -0.3090  0.3737  0.0721
   21MOL   C215 6655   0.094   1.557   5.344 -0.2815 -0.1153  0.5254
   21MOL   H216 6656   7.740   1.842   4.939  0.8789  0.2849  1.4474
   21MOL   H217 6657   0.054   1.721   4.942  0.2655  2.0406  0.6213
   21MOL   H218 6658   7.682   1.555   5.018 -1.3089 -0.2099 -0.1456
   21MOL   H219 6659   7.767   1.456   5.205  0.0108  0.4279 -0.7287
   21MOL   H220 6660   0.198   1.389   5.154 -0.5858  0.5139  0.7452
   21MOL   H221 6661   0.220   1.547   5.085  0.1723 -0.5479 -1.0200
   21MOL   H222 6662   0.097   1.431   5.026  1.7672  0.3489 -1.0731
   21MOL   H223 6663   0.158   1.640   5.315  1.1125 -0.8803  1.3935
   21MOL   H224 6664   0.147   1.477   5.395  1.8923  1.4542  0.8007
   21MOL   H225 6665   0.016   1.596   5.409 -0.3989  1.1275 -0.3441
   21MOL   C226 6666   7.582   1.721   5.121  0.0267 -0.0188  0.3835
   21MOL   C227 6667   7.475   1.616   5.180  0.4681 -0.3347  0.3070
   21MOL   O228 6668   7.422   1.553   5.060  0.2200  0.4445 -0.4589
   21MOL   C229 6669   7.371   1.418   5.081 -0.5718  0.2738  0.0675
   21MOL   C230 6670   7.467   1.329   5.001 -0.6360 -0.3674  0.0365
   21MOL   C231 6671   7.224   1.414   5.036  0.2484  0.2484 -0.3170
   21MOL   H232 6672   7.522   1.768   5.043  0.6467  0.2565  0.0714
   21MOL   H233 6673   7.609   1.799   5.192  1.4207  0.1850 -0.3551
   21MOL   H234 6674   7.526   1.543   5.242  0.4697  0.4515  1.2313
   21MOL   H235 6675   7.380   1.400   5.188 -0.6889 -0.9961 -0.1242
   21MOL   H236 6676   7.447   1.222   5.002  2.1483 -0.9409 -0.2845
   21MOL   H237 6677   7.469   1.364   4.897 -2.3186  0.2524  0.1924
   21MOL   H238 6678   7.565   1.337   5.047  0.3596 -0.0227 -2.0504
   21MOL   H239 6679   7.170   1.325   5.067 -0.2317  0.2091 -1.2398
   21MOL   H240 6680   7.230   1.424   4.927  0.3187  0.5237 -0.2873
   21MOL   H241 6681   7.176   1.502   5.077  1.3941  1.7666 -2.1633
   21MOL   C242 6682   7.361   1.685   5.255  0.6047  0.0149  0.6377
   21MOL   C243 6683   7.387   1.741   5.391 -0.4484 -0.0933 -1.2817
   21MOL   O244 6684   7.428   1.631   5.476  0.2949  0.1147 -0.2670
   21MOL   C245 6685   7.562   1.642   5.518  0.1673  0.0487 -0.7935
   21MOL   C246 6686   7.581   1.734   5.646  0.0565 -0.6170 -0.1060
   21MOL   C247 6687   7.601   1.501   5.552  0.7845  0.0915  0.1484
   21MOL   H248 6688   7.316   1.760   5.191  1.2855  2.1081  2.5587
   21MOL   H249 6689   7.281   1.610   5.257 -0.8001  1.3690 -2.0156
   21MOL   H250 6690   7.465   1.814   5.372 -1.1748  1.7232  2.1692
   21MOL   H251 6691   7.631   1.679   5.442  1.6293  4.0072  2.2642
   21MOL   H252 6692   7.540   1.834   5.633 -0.7350 -0.7403  1.3682
   21MOL   H253 6693   7.540   1.688   5.735  0.7937  3.4732  2.4855
   21MOL   H254 6694   7.687   1.742   5.671  0.0886 -0.8100 -0.1782
   21MOL   H255 6695   7.529   1.440   5.607 -0.3395  0.3284 -1.0523
   21MOL   H256 6696   7.602   1.450   5.456  0.0187 -0.4994  0.4447
   21MOL   H257 6697   7.695   1.498   5.607  1.6976 -1.5463 -1.4628
   21MOL   C258 6698   7.265   1.821   5.460 -0.0293  0.2643 -0.0348
   21MOL   C259 6699   7.277   1.983   5.467 -0.1420  0.6919  0.1578
   21MOL   O260 6700   7.371   2.000   5.575 -0.2244  0.7845  0.2286
   21MOL   C261 6701   7.445   2.123   5.589 -0.0767 -0.0638 -0.3064
   21MOL   C262 6702   7.467   2.136   5.742  0.3783  0.2534 -0.1582
   21MOL   C263 6703   7.584   2.104   5.520  0.2108 -0.2024  0.6083
   21MOL   H264 6704   7.172   1.803   5.406  0.2652  0.4766 -0.6174
   21MOL   H265 6705   7.261   1.769   5.556  4.2190 -1.0585 -0.4659
   21MOL   H266 6706   7.318   2.024   5.375 -1.8922 -1.9964 -1.9078
   21MOL   H267 6707   7.386   2.207   5.553  0.3978  1.0460  1.4264
   21MOL   H268 6708   7.533   2.221   5.761  0.7980 -0.0989 -0.0359
   21MOL   H269 6709   7.508   2.048   5.790 -0.6512 -0.8217 -1.2176
   21MOL   H270 6710   7.368   2.143   5.787  1.9485  0.0320  3.4983
   21MOL   H271 6711   7.645   2.194   5.515 -0.5098  0.2348 -0.3519
   21MOL   H272 6712   7.639   2.025   5.570  1.3633  0.9286  1.1590
   21MOL   H273 6713   7.562   2.074   5.418  0.1287  0.5561  0.4044
   21MOL   C274 6714   7.144   2.060   5.513 -0.1632  0.1757 -0.0582
   21MOL   C275 6715   7.043   2.100   5.404  0.4158  0.2041  0.1474
   21MOL   O276 6716   6.929   2.170   5.458  0.1159  0.0345  0.3920
   21MOL   C277 6717   6.844   2.092   5.539 -0.1807 -0.0271  0.4189
   21MOL   C278 6718   6.707   2.073   5.474 -0.2361 -0.2061 -0.0145
   21MOL   C279 6719   6.831   2.166   5.673 -0.4679 -0.1063 -0.2294
   21MOL   H280 6720   7.094   1.986   5.577  0.5522  0.2172  0.5548
   21MOL   H281 6721   7.163   2.150   5.571 -0.2379  0.9660 -1.2390
   21MOL   H282 6722   7.018   2.006   5.355  1.7417 -0.6081  1.0129
   21MOL   H283 6723   6.890   1.993   5.548 -2.3674 -0.9899  1.2389
   21MOL   H284 6724   6.714   2.035   5.372 -0.0071  1.0463 -0.4811
   21MOL   H285 6725   6.634   2.025   5.538  1.3598 -1.6724  0.7398
   21MOL   H286 6726   6.665   2.173   5.459  0.6713 -0.2903 -3.7978
   21MOL   H287 6727   6.780   2.261   5.657  2.1928  1.0343 -2.2629
   21MOL   H288 6728   6.934   2.189   5.701  0.0168  0.7035 -2.6018
   21MOL   H289 6729   6.782   2.116   5.756 -2.6918  1.6761 -0.3950
   21MOL   C290 6730   7.111   2.192   5.297  0.4968  0.1848 -0.3875
   21MOL   C291 6731   7.027   2.208   5.169 -0.0627  0.1613 -0.8900
   21MOL   O292 6732   7.106   2.298   5.096  0.2987 -0.6373 -0.5842
   21MOL   C293 6733   7.039   2.393   5.005 -1.1792 -0.3382  0.4098
   21MOL   C294 6734   7.150   2.450   4.909 -1.5474 -0.5676 -1.1548
   21MOL   C295 6735   6.981   2.505   5.093 -0.3002 -0.5459 -0.1441
   21MOL   H296 6736   7.203   2.143   5.265 -0.2282 -0.5838 -1.3409
   21MOL   H297 6737   7.146   2.285   5.341 -0.3303 -0.8992  2.6516
   21MOL   H298 6738   6.930   2.247   5.198 -0.4054 -0.3732 -1.3100
   21MOL   H299 6739   6.960   2.336   4.956 -0.9747 -0.9086  0.7377
   21MOL   H300 6740   7.234   2.474   4.975 -2.8318  1.5361 -0.2515
   21MOL   H301 6741   7.191   2.377   4.839  1.9711  0.2395 -0.0328
   21MOL   H302 6742   7.117   2.540   4.858 -1.2869 -0.4639 -1.1432
   21MOL   H303 6743   6.952   2.465   5.191  1.6799  0.9426  1.0831
   21MOL   H304 6744   7.058   2.578   5.120  0.2025 -0.9943 -0.3432
   21MOL   H305 6745   6.900   2.556   5.043  0.6640  1.8671  0.7131
   21MOL   C306 6746   7.005   2.077   5.088 -0.8747  0.1761  0.2084
   21MOL   C307 6747   7.136   2.017   5.032 -0.4923 -0.1897  0.0640
   21MOL   O308 6748   7.098   1.928   4.930 -0.1417 -0.4055  0.9589
   21MOL   C309 6749   7.215   1.888   4.860 -0.2024  0.2716  0.5167
   21MOL   C310 6750   7.226   1.738   4.897 -0.0139  0.0485  0.6033
   21MOL   C311 6751   7.208   1.900   4.705 -0.2731 -0.6808  0.1533
   21MOL   H312 6752   6.950   2.115   5.002 -1.4317 -3.0604 -0.9206
   21MOL   H313 6753   6.947   2.003   5.142 -0.9595 -0.2943 -0.5241
   21MOL   H314 6754   7.194   2.103   4.997 -1.4169  0.2018 -0.5177
   21MOL   H315 6755   7.302   1.946   4.891 -0.6411  1.4348 -0.4174
   21MOL   H316 6756   7.128   1.696   4.871  1.6376 -4.0315  0.6619
   21MOL   H317 6757   7.229   1.719   5.004  1.6980  0.7820  0.6849
   21MOL   H318 6758   7.303   1.683   4.842  1.7574  1.8170  1.2851
   21MOL   H319 6759   7.109   1.857   4.691  0.7188 -2.9661  0.0268
   21MOL   H320 6760   7.275   1.849   4.636  1.4565  1.7425 -0.0461
   21MOL   H321 6761   7.212   2.001   4.664 -0.2430  0.1020  2.0490
   21MOL   H322 6762   7.183   1.962   5.113  0.1883  1.4563  0.8105
   22MOL     C1 6763   1.696   4.361   2.453 -0.0859 -0.5429  0.1012
   22MOL     C2 6764   1.592   4.280   2.519 -0.3139  0.0900 -1.0528
   22MOL     O3 6765   1.663   4.193   2.615  0.1251  0.6431 -0.5331
   22MOL     C4 6766   1.647   4.044   2.601 -0.0291 -0.5263  0.3519
   22MOL     C5 6767   1.697   4.004   2.739 -0.9019 -0.2126  0.5880
   22MOL     C6 6768   1.725   3.994   2.479 -0.1000  0.0200  0.5863
   22MOL     H7 6769   1.749   4.427   2.522 -0.1956  0.2350 -0.5486
   22MOL     H8 6770   1.769   4.310   2.390 -0.6679 -0.7785 -0.3888
   22MOL     H9 6771   1.534   4.224   2.446  1.1036 -0.7124 -1.5757
   22MOL    H10 6772   1.544   4.012   2.593 -0.2945 -0.2468  2.3706
   22MOL    H11 6773   1.680   3.904   2.778  0.0525 -0.4228  0.4808
   22MOL    H12 6774   1.805   4.022   2.736 -1.0715  0.6475 -2.4974
   22MOL    H13 6775   1.658   4.074   2.813  0.8964  0.3668  1.0330
   22MOL    H14 6776   1.827   4.028   2.498 -0.8988  2.2909  1.0374
   22MOL    H15 6777   1.736   3.886   2.466  0.4610  0.0740  0.5821
   22MOL    H16 6778   1.703   4.024   2.377  2.1040  0.5741  0.2416
   22MOL    H17 6779   1.650   4.442   2.397  0.9155  0.1597  0.2890
   22MOL    C18 6780   1.489   4.360   2.605  0.1328  0.0669  0.3737
   22MOL    C19 6781   1.380   4.275   2.663  0.2894  0.3090  0.4721
   22MOL    O20 6782   1.300   4.260   2.551 -0.2113 -0.0018 -0.3433
   22MOL    C21 6783   1.196   4.157   2.568 -0.2066 -0.2837 -0.5286
   22MOL    C22 6784   1.238   4.043   2.471 -0.5246 -0.3736 -0.5137
   22MOL    C23 6785   1.053   4.214   2.538 -0.2988 -0.3541  0.3688
   22MOL    H24 6786   1.558   4.400   2.679 -0.4840  0.0365  0.9693
   22MOL    H25 6787   1.454   4.455   2.563 -2.0393 -1.0489 -0.4352
   22MOL    H26 6788   1.421   4.178   2.694 -0.1346 -0.1359 -0.3461
   22MOL    H27 6789   1.189   4.113   2.668 -0.8501 -1.0470 -0.9039
   22MOL    H28 6790   1.344   4.025   2.491 -1.0490 -0.8386  1.9472
   22MOL    H29 6791   1.189   3.947   2.483 -0.1622 -0.8164 -2.3232
   22MOL    H30 6792   1.236   4.072   2.365  1.2919  1.6653 -0.0205
   22MOL    H31 6793   1.051   4.275   2.448 -0.0784  0.8248  1.1539
   22MOL    H32 6794   1.006   4.269   2.619  0.6645 -0.8162  1.2640
   22MOL    H33 6795   0.983   4.132   2.523 -1.6896  0.8600  0.1190
   22MOL    C34 6796   1.310   4.335   2.781  0.5895  0.9634  0.6382
   22MOL    C35 6797   1.382   4.330   2.917 -0.3570 -0.6084 -0.1477
   22MOL    O36 6798   1.300   4.410   3.005 -0.2933  0.0495  0.5154
   22MOL    C37 6799   1.342   4.536   3.048  0.3207 -0.8221 -0.1498
   22MOL    C38 6800   1.252   4.635   2.973 -0.0526 -0.3782  0.1423
   22MOL    C39 6801   1.312   4.534   3.193 -0.1340  0.2830 -0.1597
   22MOL    H40 6802   1.208   4.298   2.794  1.7043 -3.1260 -1.2091
   22MOL    H41 6803   1.306   4.442   2.759  0.0908  0.5376 -1.5147
   22MOL    H42 6804   1.476   4.386   2.914 -0.1531 -0.8694  1.2291
   22MOL    H43 6805   1.443   4.571   3.027  0.8428 -1.9305  0.4322
   22MOL    H44 6806   1.265   4.608   2.868 -0.7174 -0.7640  0.1546
   22MOL    H45 6807   1.288   4.736   2.992  1.4142 -0.8515 -0.0316
   22MOL    H46 6808   1.148   4.625   3.005 -0.0215  2.1483  1.1577
   22MOL    H47 6809   1.377   4.467   3.249 -0.2067  0.4216  0.0892
   22MOL    H48 6810   1.328   4.634   3.235 -0.1293  0.0437  0.4150
   22MOL    H49 6811   1.210   4.508   3.223 -0.5387  1.2936 -0.6482
   22MOL    C50 6812   1.399   4.187   2.971  0.0539  0.3763 -0.5188
   22MOL    C51 6813   1.522   4.173   3.055 -0.3508 -0.3650 -0.2183
   22MOL    O52 6814   1.645   4.220   2.990 -1.0269  0.5131 -0.2005
   22MOL    C53 6815   1.741   4.277   3.084 -0.9479  0.4774  0.5892
   22MOL    C54 6816   1.725   4.425   3.066 -0.3078  0.0809  0.4811
   22MOL    C55 6817   1.880   4.222   3.048  0.1592  0.1994  0.2235
   22MOL    H56 6818   1.322   4.155   3.041  0.4433  1.0037  0.1895
   22MOL    H57 6819   1.404   4.115   2.888 -0.5784  0.9006 -1.0172
   22MOL    H58 6820   1.514   4.231   3.148  0.4835  0.5739 -0.7208
   22MOL    H59 6821   1.723   4.250   3.189  0.9215 -1.3469  0.4605
   22MOL    H60 6822   1.801   4.487   3.114  0.8997 -3.5260  3.4802
   22MOL    H61 6823   1.634   4.470   3.106 -1.5072 -1.5980 -0.3056
   22MOL    H62 6824   1.745   4.464   2.966  2.8766  2.2636  1.8762
   22MOL    H63 6825   1.877   4.118   3.079 -0.1386 -0.1996 -1.0785
   22MOL    H64 6826   1.964   4.275   3.093 -1.6419  1.0518  2.6507
   22MOL    H65 6827   1.894   4.217   2.940  1.9119  2.0245  0.3247
   22MOL    C66 6828   1.561   4.031   3.096 -0.5231  0.0967 -0.3464
   22MOL    C67 6829   1.464   3.956   3.192  0.1027 -0.1464 -0.7812
   22MOL    O68 6830   1.476   4.012   3.317  0.1000  0.2975  0.3802
   22MOL    C69 6831   1.373   3.968   3.415 -0.4267  0.7444  0.0186
   22MOL    C70 6832   1.432   3.947   3.556 -0.2094 -0.2199  0.4828
   22MOL    C71 6833   1.262   4.081   3.412 -0.8606  0.2878 -0.1526
   22MOL    H72 6834   1.576   3.970   3.006 -2.3249 -1.5916  0.4683
   22MOL    H73 6835   1.653   4.032   3.155 -0.4601 -2.1941 -0.3539
   22MOL    H74 6836   1.366   3.971   3.148 -0.0663  2.4074  0.3557
   22MOL    H75 6837   1.319   3.875   3.400 -0.5345  0.8902 -0.5022
   22MOL    H76 6838   1.453   4.045   3.599 -0.6331 -0.0563  0.3197
   22MOL    H77 6839   1.344   3.919   3.614  0.4284 -1.0035  1.0826
   22MOL    H78 6840   1.511   3.872   3.554 -0.6102 -0.6825  1.5419
   22MOL    H79 6841   1.301   4.182   3.423  1.4609 -0.6906  1.0137
   22MOL    H80 6842   1.178   4.050   3.474 -0.7572  1.1408  0.4265
   22MOL    H81 6843   1.226   4.071   3.310  0.8510  0.2173 -0.7597
   22MOL    C82 6844   1.493   3.802   3.199 -0.1162  1.0421 -0.2031
   22MOL    C83 6845   1.432   3.713   3.084  0.5376  0.2897 -0.2466
   22MOL    O84 6846   1.425   3.788   2.969  0.2763 -0.1841  0.4592
   22MOL    C85 6847   1.301   3.784   2.901  0.3811 -0.0785 -0.2654
   22MOL    C86 6848   1.310   3.838   2.757  0.1388 -0.1986 -0.0715
   22MOL    C87 6849   1.193   3.854   2.975  0.4407 -0.1372 -0.2228
   22MOL    H88 6850   1.600   3.790   3.213 -0.3820  0.5192  1.5500
   22MOL    H89 6851   1.463   3.757   3.294 -2.6483  0.3979 -1.2807
   22MOL    H90 6852   1.330   3.685   3.113  0.3499  0.2824 -0.9098
   22MOL    H91 6853   1.277   3.679   2.886  2.6644 -0.3364 -2.4573
   22MOL    H92 6854   1.357   3.936   2.760 -2.7226  1.3485 -2.5105
   22MOL    H93 6855   1.363   3.765   2.695 -0.2626 -0.6504  0.1102
   22MOL    H94 6856   1.207   3.844   2.722  0.5846 -0.7796 -1.5357
   22MOL    H95 6857   1.203   3.962   2.973 -1.2221  0.0914  1.3712
   22MOL    H96 6858   1.098   3.834   2.925  1.0479  1.4321 -2.0656
   22MOL    H97 6859   1.184   3.824   3.080 -0.8850 -0.0721 -0.3061
   22MOL    C98 6860   1.520   3.590   3.053  0.6305  0.0249  0.3843
   22MOL    C99 6861   1.555   3.489   3.171 -0.6879 -0.5906  1.2483
   22MOL   O100 6862   1.663   3.409   3.106  0.0595  0.5384  0.6979
   22MOL   C101 6863   1.789   3.465   3.128  0.5995  0.4110  0.0983
   22MOL   C102 6864   1.878   3.412   3.009 -0.3198 -0.5699 -0.0620
   22MOL   C103 6865   1.857   3.407   3.255 -0.0494  0.4253  0.2559
   22MOL   H104 6866   1.474   3.534   2.972  0.8794 -0.8099  0.8125
   22MOL   H105 6867   1.612   3.632   3.011  0.8516 -0.4441  0.3897
   22MOL   H106 6868   1.594   3.538   3.260  1.0126  0.4624 -0.0296
   22MOL   H107 6869   1.783   3.572   3.147 -0.1672 -0.1740  3.5112
   22MOL   H108 6870   1.835   3.445   2.914 -0.7135  0.3128  0.4121
   22MOL   H109 6871   1.878   3.304   2.999 -0.0886 -0.5354 -0.4478
   22MOL   H110 6872   1.985   3.435   3.003 -0.5974  0.6407 -0.5915
   22MOL   H111 6873   1.841   3.299   3.260 -0.4291  0.4364 -0.6726
   22MOL   H112 6874   1.811   3.456   3.341 -1.1330  0.9680 -0.6179
   22MOL   H113 6875   1.963   3.432   3.254  0.3441 -1.2496 -1.0776
   22MOL   C114 6876   1.441   3.400   3.212 -0.1542 -0.2920 -0.2659
   22MOL   C115 6877   1.449   3.320   3.342 -0.6174 -0.0671 -0.0330
   22MOL   O116 6878   1.469   3.420   3.445 -0.1535 -0.3068 -0.6142
   22MOL   C117 6879   1.568   3.394   3.546  0.3536  0.3127 -0.0639
   22MOL   C118 6880   1.520   3.281   3.647  0.3208  0.1414 -0.4474
   22MOL   C119 6881   1.595   3.532   3.604  0.2793 -0.1492 -0.2587
   22MOL   H120 6882   1.430   3.325   3.134 -1.3527 -0.6489  0.2267
   22MOL   H121 6883   1.347   3.455   3.204  0.6992  1.2380 -0.0318
   22MOL   H122 6884   1.540   3.261   3.334 -0.3767  0.4309 -1.0306
   22MOL   H123 6885   1.660   3.352   3.506 -0.4145 -0.7581 -0.7055
   22MOL   H124 6886   1.504   3.183   3.602 -2.2644  1.4326 -2.5030
   22MOL   H125 6887   1.429   3.316   3.696  0.9013 -1.8730  2.1334
   22MOL   H126 6888   1.597   3.270   3.723 -0.8474 -3.0079  0.3672
   22MOL   H127 6889   1.663   3.537   3.689 -0.5017 -2.5543  0.5515
   22MOL   H128 6890   1.507   3.584   3.640 -0.1660  0.4249 -2.1316
   22MOL   H129 6891   1.635   3.611   3.540  0.5184  1.7266  2.1355
   22MOL   C130 6892   1.325   3.228   3.356 -0.0489 -0.0694  0.9108
   22MOL   C131 6893   1.339   3.082   3.311 -0.4995  0.0456  0.3443
   22MOL   O132 6894   1.215   3.009   3.305 -0.3471 -0.0863 -0.4236
   22MOL   C133 6895   1.142   3.028   3.187 -0.7356 -0.4828 -0.6946
   22MOL   C134 6896   1.181   2.905   3.107  0.4210  1.0205  0.3351
   22MOL   C135 6897   0.995   3.023   3.213 -0.6967  0.2280  1.1603
   22MOL   H136 6898   1.239   3.272   3.305  0.5408  1.5993  1.3394
   22MOL   H137 6899   1.296   3.227   3.461 -1.4658 -0.0682  0.5319
   22MOL   H138 6900   1.385   3.085   3.212 -0.0319  0.7352  0.5779
   22MOL   H139 6901   1.173   3.122   3.140  1.5325 -1.1654 -0.6310
   22MOL   H140 6902   1.117   2.882   3.022  2.0206 -3.6283  0.2701
   22MOL   H141 6903   1.182   2.806   3.153  0.8254  0.0665 -1.6778
   22MOL   H142 6904   1.286   2.908   3.081  0.5331  0.0344  0.6497
   22MOL   H143 6905   0.961   3.087   3.295 -0.9528  2.0527 -0.3336
   22MOL   H144 6906   0.939   3.038   3.121  0.8324  1.9347  0.4643
   22MOL   H145 6907   0.974   2.923   3.250 -0.1646 -0.6674 -0.9218
   22MOL   C146 6908   1.435   2.996   3.398  0.4873  0.0850  0.4955
   22MOL   C147 6909   1.487   2.865   3.335 -0.3366 -0.1287 -0.0800
   22MOL   O148 6910   1.608   2.902   3.279  0.0062 -0.2645 -0.0665
   22MOL   C149 6911   1.623   2.935   3.145 -0.2147  0.4723  0.1473
   22MOL   C150 6912   1.675   2.808   3.079  0.1981 -0.0742  0.1280
   22MOL   C151 6913   1.716   3.056   3.152  0.1090 -0.1812 -0.0013
   22MOL   H152 6914   1.369   2.972   3.481  0.2603 -0.0433  0.2770
   22MOL   H153 6915   1.526   3.046   3.432  0.9209  0.7069 -1.4501
   22MOL   H154 6916   1.413   2.815   3.274 -0.7997  2.3792 -1.6622
   22MOL   H155 6917   1.525   2.959   3.104 -1.0481 -0.4780  1.5371
   22MOL   H156 6918   1.758   2.779   3.143 -0.0884 -2.4605 -0.5539
   22MOL   H157 6919   1.722   2.826   2.982 -1.3802 -0.0342 -0.6505
   22MOL   H158 6920   1.612   2.720   3.071 -0.5854  0.2543  2.4297
   22MOL   H159 6921   1.814   3.048   3.200 -0.0309  1.7149  0.6287
   22MOL   H160 6922   1.667   3.144   3.193  1.2181  0.8327 -0.7984
   22MOL   H161 6923   1.731   3.092   3.051  0.6917 -1.3432 -0.3347
   22MOL   C162 6924   1.528   2.764   3.442 -0.4626  0.4569  0.2434
   22MOL   C163 6925   1.533   2.621   3.388 -0.7487 -0.7163 -0.0973
   22MOL   O164 6926   1.610   2.539   3.472 -0.1749  0.0497 -0.3088
   22MOL   C165 6927   1.750   2.545   3.438  0.7858 -0.3613  0.0348
   22MOL   C166 6928   1.798   2.458   3.321 -0.0331 -0.2668  0.5470
   22MOL   C167 6929   1.823   2.515   3.569  0.4769 -0.3067  0.0629
   22MOL   H168 6930   1.623   2.783   3.492 -1.1485  1.4096  1.2370
   22MOL   H169 6931   1.454   2.771   3.522 -1.0877 -2.9746  0.0088
   22MOL   H170 6932   1.570   2.627   3.286 -0.8108  0.1220 -0.0715
   22MOL   H171 6933   1.762   2.649   3.407 -0.0203 -1.0305 -2.6333
   22MOL   H172 6934   1.746   2.477   3.227  1.8949 -1.6223 -0.8420
   22MOL   H173 6935   1.805   2.352   3.344 -0.5060 -0.6775 -1.1472
   22MOL   H174 6936   1.904   2.482   3.307 -0.0703 -0.8667 -0.8887
   22MOL   H175 6937   1.931   2.528   3.554  0.1317 -0.3264 -2.6478
   22MOL   H176 6938   1.811   2.412   3.604  0.2413 -0.8570 -1.5749
   22MOL   H177 6939   1.785   2.588   3.640 -1.9005  1.6055 -3.0787
   22MOL   C178 6940   1.390   2.558   3.387  0.2600 -0.1178  0.0481
   22MOL   C179 6941   1.372   2.423   3.322  0.8712  0.3725  0.0752
   22MOL   O180 6942   1.396   2.433   3.182 -0.4092  0.1869  0.0800
   22MOL   C181 6943   1.294   2.486   3.102  0.3436 -0.3331 -0.5324
   22MOL   C182 6944   1.219   2.370   3.029 -0.0756  0.2438  0.4029
   22MOL   C183 6945   1.355   2.588   3.000 -0.2994  0.0485 -0.5598
   22MOL   H184 6946   1.318   2.629   3.346  1.4499  0.4951 -1.0134
   22MOL   H185 6947   1.356   2.539   3.489 -0.7497 -2.1559 -0.6347
   22MOL   H186 6948   1.267   2.399   3.339  1.2914 -0.2198  1.8956
   22MOL   H187 6949   1.221   2.539   3.164  0.5374 -0.4843 -0.1787
   22MOL   H188 6950   1.291   2.303   2.982 -1.5161 -0.8879 -0.2140
   22MOL   H189 6951   1.162   2.412   2.946  0.3269 -0.3301 -0.1692
   22MOL   H190 6952   1.154   2.315   3.097 -1.2144  0.1011 -0.7991
   22MOL   H191 6953   1.401   2.678   3.040  2.9970 -1.1909 -1.3242
   22MOL   H192 6954   1.270   2.614   2.938 -0.9383 -1.0326 -0.1512
   22MOL   H193 6955   1.432   2.544   2.937  1.6008  0.9739  1.0559
   22MOL   C194 6956   1.462   2.314   3.389 -0.2179 -0.4690 -0.0202
   22MOL   C195 6957   1.412   2.169   3.376  0.1180  0.1516 -0.6626
   22MOL   O196 6958   1.462   2.090   3.487  0.1258  0.2800 -0.1219
   22MOL   C197 6959   1.374   2.062   3.598 -0.0561  0.4774  0.3350
   22MOL   C198 6960   1.450   1.955   3.673 -0.4150  0.5635 -1.1179
   22MOL   C199 6961   1.366   2.170   3.693 -1.2609 -0.0163 -0.1262
   22MOL   H200 6962   1.565   2.323   3.353  0.6096 -1.0775  2.1356
   22MOL   H201 6963   1.449   2.334   3.495 -2.4800 -0.0740 -0.3496
   22MOL   H202 6964   1.303   2.173   3.374 -0.0223 -0.7512  2.3904
   22MOL   H203 6965   1.276   2.033   3.561  2.0342 -5.8297 -0.7583
   22MOL   H204 6966   1.381   1.901   3.737  2.3823 -1.3778  0.3895
   22MOL   H205 6967   1.499   1.887   3.603 -0.3380 -1.8161  1.1802
   22MOL   H206 6968   1.527   1.999   3.737 -0.2939 -2.3356  0.8104
   22MOL   H207 6969   1.309   2.255   3.655  0.3845 -0.0941 -2.9494
   22MOL   H208 6970   1.319   2.135   3.785 -1.3306 -2.7335 -1.1367
   22MOL   H209 6971   1.464   2.214   3.709 -0.7131 -0.0181 -3.2354
   22MOL   C210 6972   1.464   2.089   3.254 -0.2795 -0.2846 -0.4932
   22MOL   C211 6973   1.387   1.957   3.235 -0.1259  0.0240  0.7913
   22MOL   O212 6974   1.272   1.992   3.161  0.1701  0.3201  0.5474
   22MOL   C213 6975   1.158   1.902   3.171 -0.2246  1.6838 -0.1430
   22MOL   C214 6976   1.064   1.960   3.274  0.3221  0.1201  0.4016
   22MOL   C215 6977   1.106   1.897   3.027  0.1723  0.1649 -0.0512
   22MOL   H216 6978   1.570   2.068   3.270  0.4136  0.0562 -4.2191
   22MOL   H217 6979   1.466   2.148   3.163 -1.4488 -0.1817 -0.4676
   22MOL   H218 6980   1.348   1.916   3.328 -0.7474 -1.5948 -0.1653
   22MOL   H219 6981   1.197   1.804   3.197 -0.9719  0.8391 -2.1206
   22MOL   H220 6982   0.975   1.902   3.299 -1.2967  3.3868  2.6025
   22MOL   H221 6983   1.038   2.062   3.246 -2.1917 -0.6324 -0.1569
   22MOL   H222 6984   1.103   1.982   3.374  1.3466  0.3769 -0.0478
   22MOL   H223 6985   1.182   1.858   2.960  0.7191 -0.9623  1.1946
   22MOL   H224 6986   1.081   1.994   2.984  0.3085  1.1978  2.0873
   22MOL   H225 6987   1.012   1.842   3.019 -0.1754  0.7410  0.0096
   22MOL   C226 6988   1.473   1.853   3.152  0.3020 -0.8868  0.5411
   22MOL   C227 6989   1.596   1.781   3.218  0.0249  0.0077 -0.3296
   22MOL   O228 6990   1.639   1.674   3.138 -0.1452  0.3310 -0.3984
   22MOL   C229 6991   1.720   1.705   3.021  0.0235 -0.0218  0.1775
   22MOL   C230 6992   1.710   1.588   2.929  0.3567  0.3088 -0.3522
   22MOL   C231 6993   1.864   1.739   3.061 -0.0648 -0.1877  0.1833
   22MOL   H232 6994   1.509   1.896   3.058  3.1703 -1.0589  1.5028
   22MOL   H233 6995   1.408   1.775   3.113  1.2261 -0.2293 -2.4670
   22MOL   H234 6996   1.671   1.859   3.220 -1.3338  1.3009  1.4626
   22MOL   H235 6997   1.680   1.796   2.976 -1.8392  0.0369  1.8475
   22MOL   H236 6998   1.605   1.560   2.936  0.3145  0.7577  0.9147
   22MOL   H237 6999   1.741   1.615   2.828  2.2154 -0.6784 -0.0766
   22MOL   H238 7000   1.772   1.504   2.962 -0.4496 -0.3988 -0.6235
   22MOL   H239 7001   1.931   1.726   2.976 -1.7080  0.9980 -1.3351
   22MOL   H240 7002   1.892   1.674   3.144  1.0702 -1.1607 -0.9478
   22MOL   H241 7003   1.863   1.845   3.086 -1.6025  0.3600 -2.1052
   22MOL   C242 7004   1.578   1.713   3.355 -0.4152  0.1524  0.8054
   22MOL   C243 7005   1.711   1.678   3.433  0.0101  0.2280 -0.0951
   22MOL   O244 7006   1.680   1.630   3.569 -0.2031  0.0669 -0.2085
   22MOL   C245 7007   1.627   1.495   3.581 -0.5527  0.7305 -0.1339
   22MOL   C246 7008   1.740   1.392   3.596  0.1242  0.0026 -0.2269
   22MOL   C247 7009   1.527   1.510   3.702  0.1868 -0.3093 -0.3468
   22MOL   H248 7010   1.508   1.769   3.417 -1.9827 -0.4659 -0.3875
   22MOL   H249 7011   1.533   1.614   3.345  2.3920 -1.0003 -1.1060
   22MOL   H250 7012   1.767   1.609   3.370 -0.3246 -0.2276  0.1010
   22MOL   H251 7013   1.564   1.476   3.494  0.3335  2.1723 -1.1080
   22MOL   H252 7014   1.703   1.291   3.610 -1.7990  0.3671 -2.3131
   22MOL   H253 7015   1.809   1.391   3.511  0.4856 -0.3305  0.0709
   22MOL   H254 7016   1.801   1.406   3.685  0.3538  2.6061 -0.7508
   22MOL   H255 7017   1.460   1.424   3.707  0.2878 -0.4563 -1.3646
   22MOL   H256 7018   1.582   1.520   3.795  0.0302 -1.1924 -0.1596
   22MOL   H257 7019   1.464   1.598   3.688  1.0302 -0.0004 -2.4667
   22MOL   C258 7020   1.799   1.803   3.447  0.7219 -0.4051  0.6081
   22MOL   C259 7021   1.911   1.797   3.549  0.8180  0.5415 -0.1990
   22MOL   O260 7022   1.967   1.921   3.590 -0.2483 -0.2249  0.0106
   22MOL   C261 7023   1.878   2.007   3.670 -0.9775  0.3841  0.5084
   22MOL   C262 7024   1.960   2.085   3.773  0.0445 -0.4044  0.5574
   22MOL   C263 7025   1.808   2.107   3.585 -0.1649  0.5477 -0.0453
   22MOL   H264 7026   1.839   1.844   3.354 -3.0402  0.3467 -0.7631
   22MOL   H265 7027   1.723   1.874   3.478  0.1030  0.2668 -2.3469
   22MOL   H266 7028   1.875   1.751   3.641  0.2634  2.1375  0.4001
   22MOL   H267 7029   1.806   1.949   3.728  1.2489 -1.2684  1.7044
   22MOL   H268 7030   2.056   2.119   3.734 -0.7896  0.7623 -0.5067
   22MOL   H269 7031   1.986   2.016   3.853 -0.1549 -1.9196 -0.6627
   22MOL   H270 7032   1.910   2.177   3.803 -1.2358 -0.3580 -1.6353
   22MOL   H271 7033   1.888   2.159   3.532 -0.8924  0.5299 -1.1766
   22MOL   H272 7034   1.741   2.063   3.511  0.6007  1.1166 -1.1020
   22MOL   H273 7035   1.746   2.175   3.644 -0.7894 -1.4098  1.6094
   22MOL   C274 7036   2.036   1.727   3.488 -0.4787 -0.1012 -0.5264
   22MOL   C275 7037   2.144   1.683   3.595  0.0615  0.2546 -0.1796
   22MOL   O276 7038   2.082   1.581   3.678  0.0849 -0.1288 -0.4018
   22MOL   C277 7039   2.065   1.621   3.820 -0.2430  0.2823 -0.1985
   22MOL   C278 7040   2.197   1.590   3.889 -0.4536  0.3058 -0.2492
   22MOL   C279 7041   1.943   1.556   3.890 -0.0316 -0.6459 -0.3977
   22MOL   H280 7042   2.012   1.631   3.443 -0.6149 -0.0830 -0.4919
   22MOL   H281 7043   2.075   1.790   3.408 -0.6563  2.3884  1.2788
   22MOL   H282 7044   2.186   1.765   3.653  3.0403 -2.2013  1.3047
   22MOL   H283 7045   2.035   1.725   3.829 -1.8666  0.1374 -3.2941
   22MOL   H284 7046   2.273   1.653   3.843 -0.1516 -0.1351 -0.3645
   22MOL   H285 7047   2.193   1.606   3.996 -0.8073  1.5837 -0.4503
   22MOL   H286 7048   2.233   1.487   3.878 -1.2572  0.1986 -2.0903
   22MOL   H287 7049   1.852   1.596   3.848 -0.0370 -0.1317  0.1000
   22MOL   H288 7050   1.933   1.584   3.995  1.1939  0.2413 -0.5011
   22MOL   H289 7051   1.942   1.447   3.892  1.1944 -0.6983 -1.7604
   22MOL   C290 7052   2.272   1.609   3.530  0.2715 -0.0338 -0.4299
   22MOL   C291 7053   2.384   1.704   3.482 -0.0388  0.5705  0.3329
   22MOL   O292 7054   2.315   1.799   3.401 -0.8641 -0.1313  0.1981
   22MOL   C293 7055   2.341   1.808   3.266  0.1964 -0.7104  0.5702
   22MOL   C294 7056   2.277   1.944   3.222  0.1010 -0.0496  0.4753
   22MOL   C295 7057   2.289   1.694   3.184 -0.2468  0.4901  0.1168
   22MOL   H296 7058   2.245   1.531   3.460 -3.0782 -2.5446  3.4444
   22MOL   H297 7059   2.323   1.553   3.609 -1.5105 -0.6393  0.3284
   22MOL   H298 7060   2.466   1.654   3.430  1.2969  0.5885  2.3816
   22MOL   H299 7061   2.449   1.815   3.250  0.1828 -1.0269  0.3254
   22MOL   H300 7062   2.341   2.023   3.262 -1.6224  0.0523  3.1778
   22MOL   H301 7063   2.274   1.951   3.114  0.1382  0.3568  0.5011
   22MOL   H302 7064   2.174   1.960   3.251 -0.7804 -1.5335 -1.7427
   22MOL   H303 7065   2.314   1.719   3.081 -1.0716 -0.7438 -0.3879
   22MOL   H304 7066   2.329   1.597   3.212  1.2951  1.1744  0.3155
   22MOL   H305 7067   2.181   1.686   3.196  0.0715 -0.7772  2.5098
   22MOL   C306 7068   2.455   1.785   3.596  0.8767 -0.0246  0.4805
   22MOL   C307 7069   2.588   1.846   3.552 -0.3568 -0.1097 -0.5946
   22MOL   O308 7070   2.697   1.758   3.587  0.1355  0.2526  0.1083
   22MOL   C309 7071   2.827   1.801   3.538  0.2975  0.0086 -0.0708
   22MOL   C310 7072   2.946   1.771   3.635  0.9011  0.0348 -0.6441
   22MOL   C311 7073   2.850   1.764   3.389  0.0016 -0.2685 -0.0575
   22MOL   H312 7074   2.454   1.735   3.693  1.1614 -0.6462  0.1689
   22MOL   H313 7075   2.392   1.873   3.608  0.0654 -0.4120 -0.7814
   22MOL   H314 7076   2.596   1.864   3.444  1.2889  0.0287 -0.4722
   22MOL   H315 7077   2.825   1.910   3.530 -0.4992 -0.0429 -0.6591
   22MOL   H316 7078   2.934   1.806   3.737  1.1072  0.8411 -0.8949
   22MOL   H317 7079   3.040   1.814   3.600  0.0337  2.7574  0.2652
   22MOL   H318 7080   2.962   1.663   3.638  1.6841  0.1724  0.1509
   22MOL   H319 7081   2.796   1.813   3.307  0.8766  0.4200 -0.2310
   22MOL   H320 7082   2.837   1.659   3.363 -0.0586 -1.1218  3.2819
   22MOL   H321 7083   2.958   1.775   3.375  0.2877 -2.4740  0.2304
   22MOL   H322 7084   2.615   1.934   3.611  0.4505 -0.7578  0.0171
   23MOL     C1 7085   6.499   0.962   3.354 -0.2022  0.9767 -1.1185
   23MOL     C2 7086   6.426   1.090   3.386 -0.1544 -0.0729 -0.4616
   23MOL     O3 7087   6.436   1.093   3.529  0.1548 -0.9953 -0.2092
   23MOL     C4 7088   6.308   1.077   3.601 -0.2377  0.1327 -0.4972
   23MOL     C5 7089   6.332   1.130   3.741 -0.7607 -0.0365  0.0390
   23MOL     C6 7090   6.275   0.923   3.612 -0.4042 -0.3190  0.7144
   23MOL     H7 7091   6.510   0.954   3.246  3.2960  0.4395 -0.7922
   23MOL     H8 7092   6.604   0.961   3.382 -0.3663  0.6505 -0.5065
   23MOL     H9 7093   6.325   1.089   3.346 -0.1592  1.2345 -0.4894
   23MOL    H10 7094   6.223   1.125   3.553 -1.3782  1.2230  2.4889
   23MOL    H11 7095   6.234   1.137   3.789  0.1326  0.3005  1.8814
   23MOL    H12 7096   6.394   1.071   3.809 -0.3741 -0.9048 -1.0584
   23MOL    H13 7097   6.371   1.232   3.751 -0.7504 -0.2701  3.0560
   23MOL    H14 7098   6.283   0.877   3.513  0.6281  0.6553  0.3371
   23MOL    H15 7099   6.347   0.863   3.668  1.4215  0.8880 -0.2896
   23MOL    H16 7100   6.179   0.902   3.657 -0.8735  0.6359  0.1683
   23MOL    H17 7101   6.459   0.868   3.393  2.2914  0.8766  1.3738
   23MOL    C18 7102   6.494   1.215   3.329 -0.7351 -0.1480  0.0040
   23MOL    C19 7103   6.516   1.218   3.178 -0.2516 -0.2098 -0.5340
   23MOL    O20 7104   6.547   1.355   3.132 -0.7211 -0.0866  0.0445
   23MOL    C21 7105   6.685   1.388   3.128  0.6521  0.1338  0.0415
   23MOL    C22 7106   6.721   1.462   3.256  0.0820  0.4533 -0.0338
   23MOL    C23 7107   6.716   1.458   2.993  0.0935 -0.7680  0.0753
   23MOL    H24 7108   6.426   1.295   3.357  1.5178  1.2449  1.6013
   23MOL    H25 7109   6.581   1.238   3.390 -0.8722 -1.6601  0.7911
   23MOL    H26 7110   6.590   1.145   3.144  0.6782  1.3708 -2.0222
   23MOL    H27 7111   6.742   1.295   3.129 -0.6317 -0.6874 -0.4331
   23MOL    H28 7112   6.671   1.558   3.268  0.5474  0.6776  0.1354
   23MOL    H29 7113   6.725   1.404   3.348  3.1608 -0.5255 -0.7107
   23MOL    H30 7114   6.827   1.487   3.261 -0.0690  0.7533  1.9376
   23MOL    H31 7115   6.821   1.486   2.986 -0.3940  1.2299  0.1911
   23MOL    H32 7116   6.649   1.543   2.977 -0.1962 -0.9937  0.0911
   23MOL    H33 7117   6.695   1.386   2.914 -0.0677  1.4319 -1.9387
   23MOL    C34 7118   6.385   1.180   3.097  0.0206 -0.2413  0.1739
   23MOL    C35 7119   6.402   1.151   2.944 -0.2527  0.0663  0.2106
   23MOL    O36 7120   6.290   1.066   2.912  0.3293 -0.3192  0.0497
   23MOL    C37 7121   6.331   0.946   2.851  0.0682  0.1264  0.6228
   23MOL    C38 7122   6.369   0.849   2.963 -0.0614  0.4533 -0.0284
   23MOL    C39 7123   6.211   0.887   2.772 -0.1592 -0.6394  0.0366
   23MOL    H40 7124   6.312   1.260   3.110 -0.0028 -0.2210 -0.0823
   23MOL    H41 7125   6.353   1.083   3.137 -2.4351  0.5933  0.3306
   23MOL    H42 7126   6.498   1.101   2.929 -0.4813 -0.5445  0.7543
   23MOL    H43 7127   6.417   0.962   2.786  0.2811 -0.3365  0.7880
   23MOL    H44 7128   6.279   0.842   3.025 -0.8805  0.1286 -1.2335
   23MOL    H45 7129   6.455   0.883   3.021 -0.5808  2.0386 -0.1702
   23MOL    H46 7130   6.396   0.751   2.923 -3.4912 -0.6546  0.1152
   23MOL    H47 7131   6.138   0.860   2.848  0.4576  1.5782  1.4759
   23MOL    H48 7132   6.160   0.956   2.705  0.9951 -2.4659 -2.8791
   23MOL    H49 7133   6.228   0.795   2.715  0.1928 -0.3846 -0.2737
   23MOL    C50 7134   6.388   1.276   2.856  0.3240  0.6708 -0.2265
   23MOL    C51 7135   6.454   1.276   2.721 -0.2376  0.0143 -0.1127
   23MOL    O52 7136   6.587   1.240   2.740  0.0099  0.1535  0.1289
   23MOL    C53 7137   6.642   1.185   2.622  0.1607  0.1810 -1.3958
   23MOL    C54 7138   6.690   1.040   2.646 -0.1897  0.4167  0.0631
   23MOL    C55 7139   6.758   1.286   2.587 -0.3491  0.5722 -0.1596
   23MOL    H56 7140   6.280   1.290   2.843  0.1581 -1.4068 -1.2700
   23MOL    H57 7141   6.429   1.359   2.913 -0.4039  0.0634  1.1911
   23MOL    H58 7142   6.400   1.205   2.659 -0.2650 -0.5220  0.5152
   23MOL    H59 7143   6.566   1.178   2.544 -1.4601  2.9398 -0.1442
   23MOL    H60 7144   6.783   1.053   2.701  0.1764  1.7619 -0.8578
   23MOL    H61 7145   6.717   0.987   2.555 -1.0684  0.4808 -0.2394
   23MOL    H62 7146   6.615   0.990   2.707  0.9788 -2.2871 -0.6481
   23MOL    H63 7147   6.726   1.389   2.575 -1.3937  0.5772  2.3633
   23MOL    H64 7148   6.831   1.263   2.509  0.4363  1.1900  0.3801
   23MOL    H65 7149   6.821   1.293   2.676 -0.0644 -3.7774  0.1040
   23MOL    C66 7150   6.437   1.411   2.653  0.8697  0.3980 -0.0506
   23MOL    C67 7151   6.295   1.459   2.617  0.7071 -0.5666  0.3290
   23MOL    O68 7152   6.217   1.379   2.520 -0.5717 -0.4818 -0.1889
   23MOL    C69 7153   6.139   1.267   2.576 -0.0256  0.1476 -0.1936
   23MOL    C70 7154   6.009   1.329   2.626 -0.9648 -0.4732 -0.0846
   23MOL    C71 7155   6.117   1.163   2.465  0.2324 -0.7802  0.1494
   23MOL    H72 7156   6.488   1.481   2.719 -1.2061  0.9919  0.9496
   23MOL    H73 7157   6.491   1.398   2.560  1.3834 -0.9097  0.4127
   23MOL    H74 7158   6.232   1.462   2.706 -1.7551 -0.1494 -1.3773
   23MOL    H75 7159   6.191   1.223   2.661 -2.0044 -2.7475 -0.4490
   23MOL    H76 7160   5.969   1.260   2.700  0.0809  0.4152  1.3181
   23MOL    H77 7161   6.023   1.425   2.674  0.1522  0.3812 -2.0491
   23MOL    H78 7162   5.938   1.338   2.543 -0.8777 -0.4899 -0.1608
   23MOL    H79 7163   6.056   1.081   2.502 -2.0807  0.1852 -1.3968
   23MOL    H80 7164   6.214   1.119   2.444  0.4315 -1.0263  1.5135
   23MOL    H81 7165   6.073   1.192   2.369 -0.6484 -1.2385  0.4010
   23MOL    C82 7166   6.289   1.594   2.546  0.5113 -0.0863  0.0844
   23MOL    C83 7167   6.150   1.664   2.544 -0.0905  0.5313 -0.3044
   23MOL    O84 7168   6.128   1.721   2.672  0.1694 -0.1218  0.4887
   23MOL    C85 7169   5.994   1.765   2.711 -0.5080 -0.1597  0.1834
   23MOL    C86 7170   5.975   1.912   2.682  0.2165 -0.5551 -0.2837
   23MOL    C87 7171   5.967   1.720   2.857  0.7629  0.1535 -0.4154
   23MOL    H88 7172   6.367   1.658   2.588 -0.3731  1.3812 -0.4568
   23MOL    H89 7173   6.316   1.563   2.445  1.2034 -1.5985  0.7113
   23MOL    H90 7174   6.065   1.600   2.520 -0.5430  0.2673  1.8370
   23MOL    H91 7175   5.924   1.707   2.651 -0.5149  0.7025 -0.6698
   23MOL    H92 7176   5.945   1.935   2.580  1.3467  0.7664 -0.3445
   23MOL    H93 7177   5.893   1.944   2.745  1.9129 -0.1284  1.7749
   23MOL    H94 7178   6.058   1.977   2.711  0.4891 -1.2891  0.5957
   23MOL    H95 7179   5.983   1.614   2.877  0.6229  0.2091 -0.0106
   23MOL    H96 7180   6.015   1.782   2.932 -0.2370  0.4585 -0.0188
   23MOL    H97 7181   5.862   1.748   2.862  1.1957  1.8461 -0.6752
   23MOL    C98 7182   6.145   1.778   2.434 -0.2208  0.5923 -0.5218
   23MOL    C99 7183   6.182   1.736   2.285 -0.4681 -0.7478  0.6429
   23MOL   O100 7184   6.201   1.844   2.200 -0.5868 -0.1892 -0.3765
   23MOL   C101 7185   6.332   1.895   2.166 -0.6326 -0.4375  0.0852
   23MOL   C102 7186   6.385   1.954   2.293 -0.0168 -0.6227 -0.3105
   23MOL   C103 7187   6.322   1.997   2.054  0.1122 -0.5934  0.1322
   23MOL   H104 7188   6.043   1.817   2.423 -0.6522 -0.4649 -0.2839
   23MOL   H105 7189   6.205   1.860   2.473 -0.2430  0.0027  0.7715
   23MOL   H106 7190   6.275   1.680   2.291  1.3431  2.2056  1.4795
   23MOL   H107 7191   6.401   1.817   2.134 -0.0918 -0.0272  0.2424
   23MOL   H108 7192   6.480   2.002   2.271  0.1932 -0.5246  0.7853
   23MOL   H109 7193   6.408   1.882   2.372 -0.0973 -0.0225  0.2632
   23MOL   H110 7194   6.323   2.037   2.326 -0.7479 -0.8189 -1.1525
   23MOL   H111 7195   6.227   2.050   2.068  0.8180  0.7991 -0.3086
   23MOL   H112 7196   6.308   1.954   1.955 -1.8240 -0.5219  0.3557
   23MOL   H113 7197   6.404   2.068   2.045 -0.9228  0.6837  0.5597
   23MOL   C114 7198   6.085   1.643   2.207 -0.0704 -0.5602 -0.7174
   23MOL   C115 7199   6.151   1.587   2.073  1.0365 -0.0964 -0.2385
   23MOL   O116 7200   6.213   1.464   2.100 -0.6955  0.0796 -0.2275
   23MOL   C117 7201   6.351   1.456   2.125  0.5715 -0.1307 -0.5751
   23MOL   C118 7202   6.426   1.463   1.987  0.1371 -0.8380  0.0662
   23MOL   C119 7203   6.380   1.337   2.209  0.8115 -0.3912 -0.0890
   23MOL   H120 7204   6.003   1.710   2.183  1.0855  1.7968  1.5855
   23MOL   H121 7205   6.048   1.559   2.265 -1.2262  0.8808  0.6808
   23MOL   H122 7206   6.213   1.658   2.019  0.4173  0.6333  0.0039
   23MOL   H123 7207   6.392   1.545   2.175  0.1282  0.3206 -1.0131
   23MOL   H124 7208   6.381   1.393   1.917  1.2594 -0.8693 -0.6369
   23MOL   H125 7209   6.529   1.429   2.002  0.6821  0.8150  0.2791
   23MOL   H126 7210   6.436   1.570   1.966  0.0975 -0.3531  2.4202
   23MOL   H127 7211   6.321   1.329   2.300  0.2007 -2.6526 -0.6634
   23MOL   H128 7212   6.487   1.346   2.229  1.0971 -4.3323  0.5435
   23MOL   H129 7213   6.360   1.253   2.144 -2.3381 -0.3293  0.7536
   23MOL   C130 7214   6.022   1.555   1.994  0.6386 -0.5459  0.2011
   23MOL   C131 7215   6.064   1.514   1.847 -0.1155  1.1610 -0.0387
   23MOL   O132 7216   6.071   1.621   1.759  0.6861  0.4199  0.1302
   23MOL   C133 7217   6.204   1.657   1.724 -0.7299  0.2914 -0.2735
   23MOL   C134 7218   6.272   1.565   1.618 -0.1884 -0.0403  0.3828
   23MOL   C135 7219   6.210   1.800   1.670  0.9962 -0.2940 -0.4061
   23MOL   H136 7220   5.955   1.640   1.989 -0.5242 -1.5379 -1.4138
   23MOL   H137 7221   5.964   1.478   2.045  0.7346 -0.5204  0.3498
   23MOL   H138 7222   6.165   1.476   1.863  0.0069  1.2078 -0.6985
   23MOL   H139 7223   6.261   1.662   1.817 -0.3469 -0.0473 -0.4846
   23MOL   H140 7224   6.380   1.579   1.614 -0.5341  2.9133  0.4700
   23MOL   H141 7225   6.237   1.584   1.516  0.0020 -0.1440  0.2982
   23MOL   H142 7226   6.250   1.459   1.634 -0.7121 -0.1747 -1.0655
   23MOL   H143 7227   6.306   1.826   1.627  1.2026  0.5337  0.5467
   23MOL   H144 7228   6.131   1.817   1.597  1.8651  1.6866 -0.8922
   23MOL   H145 7229   6.196   1.864   1.757 -0.9331 -0.0631 -0.8556
   23MOL   C146 7230   5.976   1.410   1.769 -0.2522 -0.2901 -0.3419
   23MOL   C147 7231   5.972   1.276   1.830 -0.2971  0.7982  0.5715
   23MOL   O148 7232   5.850   1.214   1.783  0.8890 -0.7499 -0.4050
   23MOL   C149 7233   5.752   1.192   1.878 -0.2431 -0.7528 -0.0081
   23MOL   C150 7234   5.772   1.051   1.939  0.5199 -0.5329 -0.3072
   23MOL   C151 7235   5.618   1.225   1.796  0.0839 -0.4075  0.3049
   23MOL   H152 7236   5.989   1.408   1.661 -2.6263 -0.6708 -0.6641
   23MOL   H153 7237   5.874   1.449   1.771  0.0176  0.4552 -1.0094
   23MOL   H154 7238   5.976   1.285   1.939 -0.7805 -3.3059  1.0311
   23MOL   H155 7239   5.757   1.266   1.958 -0.5913  0.7532 -1.3306
   23MOL   H156 7240   5.796   0.975   1.865  0.7871 -0.7240 -0.0242
   23MOL   H157 7241   5.682   1.025   1.995  1.2877  0.3378  1.3701
   23MOL   H158 7242   5.858   1.052   2.006  0.5857 -2.1363 -0.3499
   23MOL   H159 7243   5.526   1.199   1.847  0.6466 -1.9946  0.5262
   23MOL   H160 7244   5.620   1.159   1.710  0.2872 -0.6233  0.4729
   23MOL   H161 7245   5.642   1.328   1.766 -1.5539 -0.2777 -0.6228
   23MOL   C162 7246   6.095   1.203   1.780  0.4696  0.3181  0.1242
   23MOL   C163 7247   6.116   1.055   1.825  0.0007 -0.3741  0.5057
   23MOL   O164 7248   6.221   1.000   1.745  0.0479  0.0353  0.4948
   23MOL   C165 7249   6.172   0.918   1.635 -0.3930  0.0429  0.4501
   23MOL   C166 7250   6.175   0.767   1.678  0.0071  0.7387  0.3248
   23MOL   C167 7251   6.273   0.943   1.527  0.6261 -0.1415  0.2035
   23MOL   H168 7252   6.097   1.213   1.672  1.6432 -0.1803  0.0936
   23MOL   H169 7253   6.184   1.255   1.815 -0.7253  2.7302 -0.2982
   23MOL   H170 7254   6.024   1.002   1.801  0.0952 -0.0892 -0.5395
   23MOL   H171 7255   6.078   0.954   1.594 -0.2749  1.6739  1.5755
   23MOL   H172 7256   6.079   0.743   1.725 -0.1711  0.1678 -0.3230
   23MOL   H173 7257   6.260   0.743   1.742 -0.0807 -1.2365 -0.2829
   23MOL   H174 7258   6.191   0.701   1.593  0.6927 -0.2368  1.2034
   23MOL   H175 7259   6.251   0.880   1.441 -2.1509 -0.7636  1.3471
   23MOL   H176 7260   6.372   0.907   1.557  0.2173 -3.4213 -2.0869
   23MOL   H177 7261   6.258   1.046   1.494 -1.4444  0.2311  2.2298
   23MOL   C178 7262   6.167   1.039   1.970 -0.5566  0.3857  0.0221
   23MOL   C179 7263   6.186   0.897   2.024  0.6195 -0.1416  0.4347
   23MOL   O180 7264   6.262   0.911   2.146 -0.5641 -0.1178  0.4904
   23MOL   C181 7265   6.397   0.859   2.146  0.3247 -0.0600  0.4918
   23MOL   C182 7266   6.442   0.900   2.283  0.0230  0.2351  0.8773
   23MOL   C183 7267   6.498   0.905   2.037  0.0926  0.4848 -0.0546
   23MOL   H184 7268   6.097   1.092   2.035  0.0789  1.0836  0.1430
   23MOL   H185 7269   6.262   1.092   1.976 -0.1572 -0.2092 -0.8919
   23MOL   H186 7270   6.230   0.832   1.948  1.5036 -1.1164  1.7571
   23MOL   H187 7271   6.382   0.752   2.131 -2.1027  0.1303  1.3954
   23MOL   H188 7272   6.452   1.008   2.294  0.4862  0.4585 -1.4288
   23MOL   H189 7273   6.541   0.860   2.303  0.3970  2.2887  3.2841
   23MOL   H190 7274   6.371   0.865   2.358 -0.8396 -0.1550 -0.0948
   23MOL   H191 7275   6.594   0.854   2.042 -0.2456  0.0303  3.4711
   23MOL   H192 7276   6.509   1.014   2.035  0.2095  0.4486 -1.4402
   23MOL   H193 7277   6.453   0.879   1.941  0.5296  0.6349 -0.3004
   23MOL   C194 7278   6.042   0.841   2.052 -0.2082 -0.0388  0.4391
   23MOL   C195 7279   6.038   0.710   2.132  0.1520 -0.2589  0.3381
   23MOL   O196 7280   6.102   0.620   2.042 -0.6447 -0.3828 -0.5288
   23MOL   C197 7281   6.143   0.496   2.100  0.9107 -0.3447 -0.4530
   23MOL   C198 7282   6.055   0.390   2.038 -0.4597  0.3773  0.4415
   23MOL   C199 7283   6.301   0.484   2.090  0.8570  0.2937  0.4529
   23MOL   H200 7284   5.996   0.916   2.117  3.0125  1.8119  0.7043
   23MOL   H201 7285   5.994   0.821   1.957 -1.0642 -1.6962  1.2092
   23MOL   H202 7286   6.103   0.721   2.219  0.5396  0.8654 -0.0813
   23MOL   H203 7287   6.135   0.500   2.209 -2.5995  0.9604 -0.6891
   23MOL   H204 7288   6.096   0.294   2.071  1.1578  1.1100  0.5727
   23MOL   H205 7289   5.949   0.409   2.058 -0.4223  0.7616  0.2725
   23MOL   H206 7290   6.056   0.406   1.930 -1.4731  0.4827  0.4416
   23MOL   H207 7291   6.358   0.537   2.165  1.6380 -0.2217  0.2330
   23MOL   H208 7292   6.338   0.383   2.108 -1.2407 -0.7524 -0.8416
   23MOL   H209 7293   6.330   0.519   1.991  0.0919  0.9858  0.4690
   23MOL   C210 7294   5.902   0.665   2.177 -0.3475 -0.3447 -0.0261
   23MOL   C211 7295   5.843   0.740   2.296  0.2327 -0.3397 -0.0859
   23MOL   O212 7296   5.700   0.713   2.306 -0.0771  0.4559  0.3766
   23MOL   C213 7297   5.618   0.798   2.229  0.1508  0.2817  0.0638
   23MOL   C214 7298   5.491   0.722   2.188  0.3405  0.8517  0.5241
   23MOL   C215 7299   5.572   0.926   2.293 -0.4926  0.0352  0.0467
   23MOL   H216 7300   5.897   0.558   2.199 -1.2008 -0.0374  1.3608
   23MOL   H217 7301   5.839   0.677   2.089  0.0768  1.3531 -0.1208
   23MOL   H218 7302   5.844   0.849   2.302 -0.4998 -0.3653  0.5649
   23MOL   H219 7303   5.669   0.832   2.138  0.5524 -0.0227  0.1737
   23MOL   H220 7304   5.435   0.788   2.123  1.9828  1.7636  0.0100
   23MOL   H221 7305   5.433   0.687   2.273 -0.1489  0.6396  0.1032
   23MOL   H222 7306   5.513   0.632   2.130  0.5936  1.4579 -0.3220
   23MOL   H223 7307   5.657   0.978   2.337 -1.1083  0.6945  0.4640
   23MOL   H224 7308   5.499   0.894   2.367  2.6081 -2.3053  2.2479
   23MOL   H225 7309   5.525   0.987   2.216  1.7826  1.9588  0.1418
   23MOL   C226 7310   5.919   0.692   2.419 -0.1621  0.0852 -0.4336
   23MOL   C227 7311   5.848   0.703   2.550 -0.1784 -0.0697 -0.3444
   23MOL   O228 7312   5.842   0.834   2.602 -0.1862  0.4771  0.9240
   23MOL   C229 7313   5.756   0.874   2.715  0.3878  0.3630 -0.3229
   23MOL   C230 7314   5.623   0.924   2.663 -0.1865  0.0259 -0.8630
   23MOL   C231 7315   5.834   0.994   2.772  0.2804  0.1936 -0.2899
   23MOL   H232 7316   6.022   0.727   2.420 -0.8988  2.4582 -2.7138
   23MOL   H233 7317   5.920   0.584   2.408  2.3971  0.1205 -0.8296
   23MOL   H234 7318   5.746   0.669   2.533  0.7028 -1.7809 -2.4025
   23MOL   H235 7319   5.732   0.801   2.792 -1.9963  1.4128 -0.0252
   23MOL   H236 7320   5.579   0.971   2.751  0.1771 -0.6554 -0.3087
   23MOL   H237 7321   5.650   1.002   2.592  2.8178  0.8322  1.0865
   23MOL   H238 7322   5.563   0.839   2.629  2.3249 -2.4649  0.6682
   23MOL   H239 7323   5.774   1.049   2.845 -0.0105 -1.6106  0.8477
   23MOL   H240 7324   5.866   1.064   2.695 -1.7716  0.4350 -0.9402
   23MOL   H241 7325   5.925   0.960   2.821  0.1039  1.1089  0.6971
   23MOL   C242 7326   5.916   0.619   2.656 -0.2658  0.6670 -0.0197
   23MOL   C243 7327   5.867   0.465   2.653  0.3501 -0.5769  0.5129
   23MOL   O244 7328   5.728   0.462   2.708 -0.1285  0.4277 -0.0927
   23MOL   C245 7329   5.641   0.366   2.655  0.3027 -0.2657 -0.3755
   23MOL   C246 7330   5.536   0.349   2.769 -0.7281  0.1918 -1.1248
   23MOL   C247 7331   5.560   0.410   2.525 -0.1636 -0.5713  0.3459
   23MOL   H248 7332   6.023   0.634   2.649 -0.5940  2.7203 -1.0302
   23MOL   H249 7333   5.883   0.658   2.753 -0.4418 -0.7733  0.5212
   23MOL   H250 7334   5.855   0.429   2.551 -0.2929 -1.0156  0.7395
   23MOL   H251 7335   5.688   0.269   2.639  0.3252 -0.6313  1.7633
   23MOL   H252 7336   5.587   0.315   2.859  3.9836 -2.3917 -4.5242
   23MOL   H253 7337   5.477   0.438   2.787 -1.9807 -1.1023  1.3519
   23MOL   H254 7338   5.470   0.269   2.736 -0.8533  0.2265 -0.9567
   23MOL   H255 7339   5.623   0.413   2.436  0.5971 -0.2439  0.8883
   23MOL   H256 7340   5.480   0.346   2.487  0.7737 -0.4968 -1.8863
   23MOL   H257 7341   5.515   0.508   2.533 -2.3827 -1.6307  1.0749
   23MOL   C258 7342   5.964   0.355   2.716 -0.2042  0.1234  0.6716
   23MOL   C259 7343   6.095   0.344   2.641  0.0109 -0.4437 -0.6813
   23MOL   O260 7344   6.066   0.300   2.508  0.0678 -0.4930  0.1989
   23MOL   C261 7345   6.016   0.172   2.473 -0.6199 -0.5421 -0.4610
   23MOL   C262 7346   5.922   0.186   2.353 -1.0557 -1.1435 -0.2767
   23MOL   C263 7347   6.129   0.074   2.436  0.1322 -0.3541 -0.8089
   23MOL   H264 7348   5.983   0.393   2.816  0.2571 -2.5061  1.6261
   23MOL   H265 7349   5.923   0.257   2.741  0.0177 -0.9713 -2.9550
   23MOL   H266 7350   6.137   0.444   2.631 -0.4951 -0.3417 -1.8124
   23MOL   H267 7351   5.965   0.126   2.558  2.8907  0.6056  2.3948
   23MOL   H268 7352   5.864   0.095   2.335 -0.1480 -1.6153 -0.8912
   23MOL   H269 7353   5.987   0.200   2.266  3.5362 -1.7765  2.8977
   23MOL   H270 7354   5.865   0.277   2.368  1.5226  0.3999  0.4406
   23MOL   H271 7355   6.196   0.109   2.358 -0.8377 -1.6813 -2.2598
   23MOL   H272 7356   6.197   0.071   2.522 -1.1365  0.6391  0.2537
   23MOL   H273 7357   6.089   7.795   2.417  0.4535  0.0530 -3.8962
   23MOL   C274 7358   6.199   0.264   2.724  0.3527  0.1087  0.1633
   23MOL   C275 7359   6.344   0.282   2.676  0.4006  0.3114 -0.3790
   23MOL   O276 7360   6.368   0.420   2.695  0.2261 -0.4560  0.2763
   23MOL   C277 7361   6.461   0.481   2.611 -1.1866  1.2061  0.0865
   23MOL   C278 7362   6.529   0.598   2.681 -0.1253  0.2463  0.2385
   23MOL   C279 7363   6.398   0.520   2.482  0.4463  0.2967  0.6515
   23MOL   H280 7364   6.197   0.291   2.829  0.6157  0.3008  0.1208
   23MOL   H281 7365   6.178   0.158   2.714  1.1147 -0.1671  1.3888
   23MOL   H282 7366   6.336   0.269   2.568 -2.0158  0.9331 -0.3157
   23MOL   H283 7367   6.546   0.414   2.598 -0.8939  1.4998  0.4655
   23MOL   H284 7368   6.574   0.573   2.776  0.2640  0.3653  0.0850
   23MOL   H285 7369   6.610   0.640   2.622  0.2642 -0.4608  0.2610
   23MOL   H286 7370   6.451   0.674   2.690 -0.2174  0.3037 -0.9163
   23MOL   H287 7371   6.304   0.572   2.502 -0.4195 -0.2916 -1.6979
   23MOL   H288 7372   6.378   0.436   2.415  0.7748  0.5162  0.2715
   23MOL   H289 7373   6.460   0.597   2.435  1.1571  0.7648  2.3097
   23MOL   C290 7374   6.444   0.202   2.755  0.2011  0.4140 -0.0007
   23MOL   C291 7375   6.481   0.063   2.698  0.7829 -0.0411  0.1031
   23MOL   O292 7376   6.386   7.788   2.727  0.2533  0.3318  0.2936
   23MOL   C293 7377   6.393   7.731   2.859 -0.3252  0.0082  0.2047
   23MOL   C294 7378   6.513   7.628   2.870  0.4358  0.2890 -0.0713
   23MOL   C295 7379   6.262   7.669   2.894  0.0438  0.3737  0.6162
   23MOL   H296 7380   6.405   0.183   2.855 -2.1975  1.4460 -0.6861
   23MOL   H297 7381   6.537   0.259   2.762  0.2645  0.4695 -1.2995
   23MOL   H298 7382   6.571   0.026   2.746  0.7768  0.1475  0.2564
   23MOL   H299 7383   6.412   7.815   2.926  2.2732 -0.2427 -0.1795
   23MOL   H300 7384   6.509   7.567   2.780  0.3578 -1.0700  0.8342
   23MOL   H301 7385   6.613   7.672   2.867  0.5229  0.1409  0.6651
   23MOL   H302 7386   6.508   7.575   2.965 -0.3484  0.2742 -0.1134
   23MOL   H303 7387   6.238   7.591   2.822  0.3986  0.9842 -0.1619
   23MOL   H304 7388   6.263   7.626   2.995 -0.5566 -0.6700  0.1849
   23MOL   H305 7389   6.174   7.733   2.899 -0.6343 -0.2564 -2.3800
   23MOL   C306 7390   6.507   0.047   2.549  0.6760  0.5567 -0.8119
   23MOL   C307 7391   6.572   7.732   2.520 -0.0677  0.0145  0.7613
   23MOL   O308 7392   6.591   7.716   2.380  0.3826 -0.3970 -0.3965
   23MOL   C309 7393   6.670   7.604   2.332 -0.3623  0.5043 -0.6965
   23MOL   C310 7394   6.648   7.597   2.182 -0.8100 -0.4844 -0.8567
   23MOL   C311 7395   6.818   7.621   2.355 -0.2075  0.2983 -0.3632
   23MOL   H312 7396   6.579   0.121   2.515 -0.5857  2.7345  1.1508
   23MOL   H313 7397   6.409   0.066   2.506  0.7840 -0.6876 -1.6461
   23MOL   H314 7398   6.667   7.726   2.572 -1.4588  0.1798  3.3941
   23MOL   H315 7399   6.635   7.511   2.377  1.4035  0.5305  0.8314
   23MOL   H316 7400   6.541   7.593   2.159 -0.9445  0.4377 -0.4526
   23MOL   H317 7401   6.695   7.504   2.151  0.9279 -0.1427  0.6636
   23MOL   H318 7402   6.694   7.680   2.128  1.4389 -0.3167  1.2357
   23MOL   H319 7403   6.876   7.545   2.302  0.7788 -2.5544  4.5299
   23MOL   H320 7404   6.849   7.614   2.459  0.9837  0.2235 -0.7033
   23MOL   H321 7405   6.853   7.718   2.321 -0.7367 -0.2318 -2.5310
   23MOL   H322 7406   6.515   7.648   2.561  0.9952 -1.0243  0.1608
   24MOL     C1 7407   6.819   1.810   7.448  0.0918 -0.6272  0.5981
   24MOL     C2 7408   6.684   1.886   7.454  0.0317  0.3280  0.0192
   24MOL     O3 7409   6.625   1.901   7.324  0.5667  0.2249 -0.0366
   24MOL     C4 7410   6.561   2.021   7.297 -0.8282 -0.5326  0.2191
   24MOL     C5 7411   6.458   1.987   7.189 -0.1252  0.3384 -0.0021
   24MOL     C6 7412   6.672   2.109   7.237 -0.2394  0.0021  0.3428
   24MOL     H7 7413   6.812   1.708   7.409 -1.3008 -0.2157 -0.2211
   24MOL     H8 7414   6.900   1.850   7.387 -0.4533 -0.4971 -0.0424
   24MOL     H9 7415   6.717   1.987   7.477 -2.1170  1.3209 -1.0516
   24MOL    H10 7416   6.528   2.068   7.390  1.2318  4.0198 -1.1966
   24MOL    H11 7417   6.395   2.069   7.156  2.3692  0.4081 -4.8803
   24MOL    H12 7418   6.490   1.942   7.095  0.8352 -1.2789  1.0751
   24MOL    H13 7419   6.391   1.913   7.234 -0.2601 -0.8773 -2.1462
   24MOL    H14 7420   6.729   2.062   7.156 -0.7309  1.2423 -0.7567
   24MOL    H15 7421   6.631   2.203   7.200  0.3795 -0.4655 -1.6113
   24MOL    H16 7422   6.738   2.143   7.316  2.2588  2.5288 -2.6609
   24MOL    H17 7423   6.854   1.787   7.549  0.2987  0.2582  0.7292
   24MOL    C18 7424   6.589   1.822   7.558  0.1738  0.7387 -0.5528
   24MOL    C19 7425   6.615   1.875   7.701  0.1074 -0.3093 -1.3393
   24MOL    O20 7426   6.525   1.803   7.790 -0.2228  0.0333  0.7017
   24MOL    C21 7427   6.571   1.670   0.002  0.4728 -0.2327 -1.2656
   24MOL    C22 7428   6.457   1.582   0.027  0.2381  0.2183  0.4045
   24MOL    C23 7429   6.666   1.685   0.124 -0.6087 -0.5256 -0.3921
   24MOL    H24 7430   6.482   1.829   7.536 -0.0847 -1.6777 -0.2623
   24MOL    H25 7431   6.600   1.714   7.544  0.9612  1.0407 -2.3931
   24MOL    H26 7432   6.719   1.858   7.730  0.5568  1.5815 -1.7834
   24MOL    H27 7433   6.617   1.629   7.733  2.6373  1.2350 -0.8482
   24MOL    H28 7434   6.397   1.571   7.758  0.4507  0.3773  0.2429
   24MOL    H29 7435   6.493   1.483   0.058 -0.3143  0.6617  2.5585
   24MOL    H30 7436   6.395   1.610   0.112 -0.1089  0.2087  0.1522
   24MOL    H31 7437   6.767   1.706   0.089 -0.3882  2.4718  1.8362
   24MOL    H32 7438   6.668   1.600   0.192  0.8031 -1.3429 -1.4295
   24MOL    H33 7439   6.647   1.770   0.190  0.1124 -0.4205 -0.3163
   24MOL    C34 7440   6.590   2.028   7.713 -0.3171 -0.5537  0.5740
   24MOL    C35 7441   6.628   2.082   0.027  0.0491 -0.6213 -0.6611
   24MOL    O36 7442   6.728   2.185   0.015  0.0624  0.4921  0.8178
   24MOL    C37 7443   6.853   2.150   7.779 -0.6142  0.0332  0.3179
   24MOL    C38 7444   6.914   2.280   7.729 -0.5258  0.4516  0.3204
   24MOL    C39 7445   6.932   2.091   0.089  0.1111  0.2290  0.2549
   24MOL    H40 7446   6.486   2.056   7.693  0.4416  1.3779 -0.8059
   24MOL    H41 7447   6.644   2.088   7.639 -0.8803  1.1634  1.5340
   24MOL    H42 7448   6.675   2.005   0.087  1.3353  1.5903  1.2875
   24MOL    H43 7449   6.847   2.067   7.708  0.0803  0.1527  0.1200
   24MOL    H44 7450   7.016   2.275   7.691 -1.1680  0.5896 -1.4781
   24MOL    H45 7451   6.904   2.366   7.795  0.0469  1.2317 -0.5790
   24MOL    H46 7452   6.864   2.313   7.638 -2.7105  0.8082  1.6370
   24MOL    H47 7453   6.875   2.023   0.153 -0.1253  2.2569  2.2387
   24MOL    H48 7454   7.015   2.025   0.062  0.9008  0.8306  1.1506
   24MOL    H49 7455   6.977   2.167   0.154 -0.1872  0.9361 -0.3649
   24MOL    C50 7456   6.517   2.146   0.113  0.4973 -0.2677  0.2466
   24MOL    C51 7457   6.555   2.178   0.262 -0.2511  0.3788 -0.6836
   24MOL    O52 7458   6.533   2.064   0.356 -0.4465  0.0388 -0.0463
   24MOL    C53 7459   6.635   2.039   0.462 -0.0917  0.7596  0.6471
   24MOL    C54 7460   6.605   1.901   0.513  0.4650 -0.5821 -0.3480
   24MOL    C55 7461   6.622   2.143   0.574  0.3352 -0.2563 -0.3295
   24MOL    H56 7462   6.479   2.233   0.059 -0.5380  0.8528  2.6872
   24MOL    H57 7463   6.429   2.084   0.129 -0.6861  1.3244  0.0238
   24MOL    H58 7464   6.664   2.189   0.262 -0.2658  0.6590  0.4658
   24MOL    H59 7465   6.733   2.037   0.414 -0.6861  0.5580 -0.5923
   24MOL    H60 7466   6.498   1.880   0.519  0.1150  0.8516 -1.2188
   24MOL    H61 7467   6.645   1.888   0.614 -3.6098 -1.0720  1.3034
   24MOL    H62 7468   6.647   1.828   0.445 -0.7833  0.2426 -2.0563
   24MOL    H63 7469   6.680   2.225   0.531 -0.5117 -0.7452 -2.5022
   24MOL    H64 7470   6.678   2.120   0.665 -2.0973  0.9680  1.5357
   24MOL    H65 7471   6.518   2.161   0.601  1.0126  0.9460  1.5606
   24MOL    C66 7472   6.483   2.310   0.327 -0.1200  0.7974  0.1728
   24MOL    C67 7473   6.571   2.430   0.350  0.5604  0.2384 -0.3457
   24MOL    O68 7474   6.522   2.551   0.410  0.0336 -0.1711  0.1163
   24MOL    C69 7475   6.466   2.545   0.543  0.1590  0.3595 -0.3051
   24MOL    C70 7476   6.558   2.505   0.654  0.9629  0.7631 -0.1690
   24MOL    C71 7477   6.387   2.672   0.558  0.0009 -0.1131 -1.0938
   24MOL    H72 7478   6.407   2.340   0.255  2.1195  1.0223 -2.1794
   24MOL    H73 7479   6.430   2.292   0.421 -2.1371 -0.1764 -1.1122
   24MOL    H74 7480   6.650   2.400   0.420  1.4732  0.8724 -1.0843
   24MOL    H75 7481   6.396   2.461   0.543  1.2902 -0.6086  0.0331
   24MOL    H76 7482   6.578   2.397   0.656 -1.2361  0.3221 -0.6667
   24MOL    H77 7483   6.651   2.561   0.660  0.7180  1.1797 -0.2682
   24MOL    H78 7484   6.509   2.514   0.751  0.3634 -0.4645 -0.3490
   24MOL    H79 7485   6.347   2.672   0.659  1.5031  0.9003 -0.4840
   24MOL    H80 7486   6.310   2.689   0.483  0.0161  0.4858 -0.9715
   24MOL    H81 7487   6.455   2.756   0.544 -2.6172  2.2080 -0.1365
   24MOL    C82 7488   6.636   2.485   0.221 -0.0132 -0.2540 -0.1178
   24MOL    C83 7489   6.757   2.584   0.242 -0.6842 -0.7056  0.0546
   24MOL    O84 7490   6.858   2.522   0.322  0.5847 -0.4862  0.1646
   24MOL    C85 7491   6.897   2.582   0.443  0.5660  0.2066  0.1374
   24MOL    C86 7492   7.018   2.670   0.399 -0.4012 -0.7078  0.3801
   24MOL    C87 7493   6.947   2.474   0.535  0.1141  0.1459 -0.3388
   24MOL    H88 7494   6.671   2.396   0.168 -0.0605 -0.5946  0.4152
   24MOL    H89 7495   6.555   2.523   0.159 -1.2510 -1.7004  0.5947
   24MOL    H90 7496   6.722   2.673   0.293  0.0486 -1.2572  1.5729
   24MOL    H91 7497   6.829   2.649   0.495 -2.4972 -0.5671 -2.6991
   24MOL    H92 7498   6.994   2.757   0.338  0.5628  0.2361  1.3177
   24MOL    H93 7499   7.069   2.708   0.487 -1.7540  0.1976  0.7851
   24MOL    H94 7500   7.088   2.605   0.345 -0.2719 -0.5542  0.3620
   24MOL    H95 7501   6.856   2.424   0.568  0.0939 -0.7334 -1.6695
   24MOL    H96 7502   7.014   2.407   0.481 -0.1428  2.1419 -3.2885
   24MOL    H97 7503   6.988   2.513   0.628 -0.2882  0.0676 -0.1291
   24MOL    C98 7504   6.830   2.611   0.111 -0.1499 -0.6351 -0.4382
   24MOL    C99 7505   6.819   2.760   0.055 -0.4294 -0.3879 -0.4219
   24MOL   O100 7506   6.683   2.789   0.031  0.0281 -0.2420  0.2255
   24MOL   C101 7507   6.628   2.910   0.065 -0.5685  0.4011 -0.4530
   24MOL   C102 7508   6.551   2.883   0.190  0.3057  0.1177  0.2516
   24MOL   C103 7509   6.540   2.958   7.772 -0.3555  0.3144 -0.3456
   24MOL   H104 7510   6.938   2.608   0.126  0.0520  1.3812 -1.2217
   24MOL   H105 7511   6.800   2.551   0.025 -0.9472 -0.4342 -0.3038
   24MOL   H106 7512   6.858   2.832   0.127 -2.0859 -0.0891  0.2084
   24MOL   H107 7513   6.706   2.985   0.081 -0.2886  0.5107 -2.2079
   24MOL   H108 7514   6.472   2.958   0.198  1.1207  1.0039  0.1438
   24MOL   H109 7515   6.608   2.891   0.283 -0.0567 -0.0846  0.4927
   24MOL   H110 7516   6.499   2.788   0.185  1.4722 -0.5553  0.7404
   24MOL   H111 7517   6.445   2.908   7.755 -0.2954  0.5009 -1.2269
   24MOL   H112 7518   6.593   2.957   7.677  2.2344 -3.3557  1.0366
   24MOL   H113 7519   6.516   3.063   7.794 -0.1659 -0.1339  2.1912
   24MOL   C114 7520   6.907   2.769   7.753 -0.3183 -0.5449  0.0320
   24MOL   C115 7521   6.936   2.908   7.710  0.3336 -0.0049 -0.0095
   24MOL   O116 7522   7.035   2.978   7.790  0.0548 -0.3043  0.0862
   24MOL   C117 7523   7.015   3.112   0.013  0.0643  0.5225 -0.2550
   24MOL   C118 7524   7.141   3.178   7.789 -1.0925  0.0461 -0.3468
   24MOL   C119 7525   6.993   3.126   0.165  0.0552  0.2283  0.2222
   24MOL   H120 7526   6.883   2.704   7.669 -0.1384  1.0840 -1.2851
   24MOL   H121 7527   7.005   2.730   7.780  0.3207  1.5168  0.7595
   24MOL   H122 7528   6.845   2.969   7.712 -0.0942 -0.6559  0.6195
   24MOL   H123 7529   6.932   3.157   7.778 -0.7593  1.0111  1.3417
   24MOL   H124 7530   7.220   3.116   0.012 -1.5896  1.0096  1.9802
   24MOL   H125 7531   7.144   3.277   0.013  2.0099 -0.4437  0.6968
   24MOL   H126 7532   7.154   3.183   7.681  2.0461 -0.4234 -0.0548
   24MOL   H127 7533   6.918   3.062   0.212  1.7120 -1.8458  0.1183
   24MOL   H128 7534   6.974   3.232   0.182  0.2221  0.1851  0.6978
   24MOL   H129 7535   7.083   3.111   0.224  0.3889  0.8993 -0.1160
   24MOL   C130 7536   7.004   2.900   7.567  0.0073 -0.5540  0.1025
   24MOL   C131 7537   6.902   2.886   7.451  0.3574  0.1532 -0.1260
   24MOL   O132 7538   6.896   2.750   7.421  0.0129 -0.1023 -0.5765
   24MOL   C133 7539   6.767   2.683   7.423  0.4112 -0.5183 -0.3169
   24MOL   C134 7540   6.710   2.706   7.284  0.1778 -0.5120 -0.0791
   24MOL   C135 7541   6.776   2.530   7.444  0.0091 -0.0016 -0.2133
   24MOL   H136 7542   7.079   2.820   7.566 -1.5431 -2.0166 -0.7922
   24MOL   H137 7543   7.048   2.999   7.557  1.5575 -1.0322  1.7352
   24MOL   H138 7544   6.800   2.919   7.472  1.2100  1.9322  1.3900
   24MOL   H139 7545   6.700   2.727   7.497 -3.6534 -1.5074 -3.2488
   24MOL   H140 7546   6.780   2.685   7.204  0.1179 -2.0822  0.2681
   24MOL   H141 7547   6.683   2.811   7.270 -1.7241 -1.0909 -0.8834
   24MOL   H142 7548   6.615   2.654   7.266 -0.9617  1.3730  0.3491
   24MOL   H143 7549   6.681   2.478   7.448  0.5623 -1.1401 -1.2659
   24MOL   H144 7550   6.840   2.483   7.369 -0.9411 -1.0916 -0.3487
   24MOL   H145 7551   6.815   2.506   7.543  0.3839 -1.8355 -0.7798
   24MOL   C146 7552   6.953   2.951   7.326 -0.5183  0.0681  0.0164
   24MOL   C147 7553   6.884   3.090   7.297 -0.2144  0.6569 -0.5090
   24MOL   O148 7554   6.923   3.183   7.402 -0.2441  0.4516  0.2040
   24MOL   C149 7555   6.839   3.293   7.425  0.7473 -0.2016 -1.0455
   24MOL   C150 7556   6.916   3.369   7.525  0.2643  0.1675  0.3002
   24MOL   C151 7557   6.693   3.264   7.482 -0.9525  0.2058  0.2305
   24MOL   H152 7558   6.919   2.889   7.243  2.3377 -0.0185 -1.1412
   24MOL   H153 7559   7.061   2.938   7.324 -0.2616  2.0672  0.0535
   24MOL   H154 7560   6.776   3.075   7.291 -0.3130  0.9692  0.4682
   24MOL   H155 7561   6.830   3.364   7.343 -0.0229 -0.0263 -0.8041
   24MOL   H156 7562   6.954   3.307   7.607 -0.1023 -0.4058  0.0415
   24MOL   H157 7563   6.850   3.444   7.568 -0.3118  0.3860 -0.9509
   24MOL   H158 7564   6.985   3.445   7.488 -0.3168 -0.5568 -2.3618
   24MOL   H159 7565   6.691   3.214   7.578 -0.4306  1.1377  0.7385
   24MOL   H160 7566   6.624   3.207   7.420 -1.5581  2.8124 -1.6004
   24MOL   H161 7567   6.646   3.358   7.512 -1.9147 -0.5129  0.9704
   24MOL   C162 7568   6.924   3.149   7.164 -0.7601 -0.2850  0.1325
   24MOL   C163 7569   6.811   3.223   7.092 -0.3852 -0.9068  0.2072
   24MOL   O164 7570   6.858   3.315   6.996 -0.4968 -0.5006  0.0007
   24MOL   C165 7571   6.905   3.445   7.042  0.3045  0.0522  0.7315
   24MOL   C166 7572   6.777   3.540   7.061  0.0748  0.2733  0.2416
   24MOL   C167 7573   6.996   3.495   6.922  0.0636 -0.4634  0.3714
   24MOL   H168 7574   7.008   3.216   7.184  0.2034 -1.7430  1.0939
   24MOL   H169 7575   6.972   3.077   7.097 -0.0678  1.5095 -1.3533
   24MOL   H170 7576   6.751   3.286   7.157 -1.3961  0.6958 -2.1784
   24MOL   H171 7577   6.962   3.432   7.134 -0.5363 -1.4090  1.0572
   24MOL   H172 7578   6.710   3.496   7.135  0.8270 -1.4635 -0.0723
   24MOL   H173 7579   6.713   3.545   6.972 -0.4600 -1.6818  0.4891
   24MOL   H174 7580   6.808   3.643   7.080  2.4241 -0.4048  0.2649
   24MOL   H175 7581   7.004   3.604   6.923 -1.4375 -0.3346  0.9877
   24MOL   H176 7582   6.949   3.483   6.825  0.4608  0.0637  0.1132
   24MOL   H177 7583   7.094   3.447   6.927  1.1311  1.8623  3.3718
   24MOL   C178 7584   6.715   3.127   7.019 -0.3148 -0.2226  0.1249
   24MOL   C179 7585   6.579   3.195   6.972  0.1619 -0.3809 -0.6300
   24MOL   O180 7586   6.512   3.106   6.872  0.8100 -0.2982 -0.3342
   24MOL   C181 7587   6.482   3.164   6.746 -0.0544 -0.1049 -0.7622
   24MOL   C182 7588   6.354   3.104   6.685  0.2300  0.2624  0.1881
   24MOL   C183 7589   6.603   3.148   6.650 -0.8824 -0.0202  0.6192
   24MOL   H184 7590   6.689   3.047   7.088 -1.1867 -0.0827 -0.0364
   24MOL   H185 7591   6.766   3.079   6.936  0.8712 -0.8064  1.1694
   24MOL   H186 7592   6.603   3.295   6.937 -0.7125 -0.3347 -1.0949
   24MOL   H187 7593   6.442   3.265   6.747 -0.8134 -0.4064  0.2902
   24MOL   H188 7594   6.263   3.101   6.745  0.2688 -2.2197  0.1631
   24MOL   H189 7595   6.374   3.003   6.649 -0.1881 -0.0238  0.7519
   24MOL   H190 7596   6.340   3.161   6.593 -2.0424  1.3007  1.1485
   24MOL   H191 7597   6.641   3.049   6.627  0.6871  0.5715  0.6192
   24MOL   H192 7598   6.678   3.214   6.692 -0.0539 -0.2775 -0.4456
   24MOL   H193 7599   6.584   3.193   6.553 -0.3191  0.4721  0.7361
   24MOL   C194 7600   6.476   3.217   7.092 -0.4398  0.2014  0.2460
   24MOL   C195 7601   6.357   3.304   7.053  0.0034 -0.0641  0.1864
   24MOL   O196 7602   6.416   3.425   7.012 -0.5219 -0.0009 -0.0419
   24MOL   C197 7603   6.337   3.533   6.971  0.0859  0.4504  0.3525
   24MOL   C198 7604   6.427   3.660   6.958 -0.2414 -0.5180  0.2739
   24MOL   C199 7605   6.269   3.505   6.828  0.2940 -0.4178  0.3439
   24MOL   H200 7606   6.444   3.115   7.118  1.8387 -0.8171 -0.8610
   24MOL   H201 7607   6.523   3.263   7.179 -2.7213 -0.9860  2.1819
   24MOL   H202 7608   6.309   3.262   6.965 -2.3960  0.4141  1.2381
   24MOL   H203 7609   6.264   3.560   7.048 -1.2017 -0.3695 -0.5761
   24MOL   H204 7610   6.364   3.747   6.940  0.1323  0.5366  3.7562
   24MOL   H205 7611   6.483   3.680   7.049  0.1829  0.1931 -0.1355
   24MOL   H206 7612   6.499   3.659   6.877  1.2236  0.5388  1.5409
   24MOL   H207 7613   6.208   3.590   6.797  1.4683  1.7451  3.6428
   24MOL   H208 7614   6.343   3.504   6.748  0.8491 -1.9212  0.8663
   24MOL   H209 7615   6.207   3.417   6.841  1.2949 -1.6879 -2.9465
   24MOL   C210 7616   6.251   3.325   7.163  0.5907 -0.1628 -0.6051
   24MOL   C211 7617   6.202   3.199   7.229 -0.7221 -0.4136  0.4146
   24MOL   O212 7618   6.148   3.247   7.352  0.1767 -0.5777  0.5189
   24MOL   C213 7619   6.179   3.178   7.475  0.1153 -0.2279  0.6817
   24MOL   C214 7620   6.328   3.177   7.492 -0.3732 -0.2137 -0.7298
   24MOL   C215 7621   6.108   3.264   7.585 -0.2757  0.0361 -0.1118
   24MOL   H216 7622   6.170   3.373   7.109  0.9224  1.2503  0.1172
   24MOL   H217 7623   6.284   3.405   7.229  0.7904 -0.1868 -0.6746
   24MOL   H218 7624   6.282   3.132   7.259 -1.0955 -1.2670 -0.4777
   24MOL   H219 7625   6.136   3.078   7.473 -0.0435 -0.1759  1.2835
   24MOL   H220 7626   6.375   3.094   7.439  0.9256  0.1161 -0.1301
   24MOL   H221 7627   6.360   3.133   7.587  0.8898  1.5779 -0.3004
   24MOL   H222 7628   6.387   3.266   7.471  0.1044 -0.2844  0.2560
   24MOL   H223 7629   6.147   3.366   7.576 -2.2358  0.7670 -0.4724
   24MOL   H224 7630   6.133   3.222   7.682 -3.1329  0.8300  1.0113
   24MOL   H225 7631   6.001   3.267   7.564  0.0714  0.3841 -1.9185
   24MOL   C226 7632   6.099   3.119   7.148  0.0385 -0.5895  0.1165
   24MOL   C227 7633   6.078   2.969   7.178 -0.2153 -0.4607 -0.2214
   24MOL   O228 7634   6.206   2.912   7.147 -0.2438 -0.4593 -0.2168
   24MOL   C229 7635   6.237   2.791   7.212  0.2169  0.4709  0.6932
   24MOL   C230 7636   6.336   2.815   7.325 -0.3055 -0.1927 -0.0340
   24MOL   C231 7637   6.303   2.715   7.098  0.2779  0.9257  0.1424
   24MOL   H232 7638   6.132   3.127   7.044 -0.6704 -3.5216 -0.3832
   24MOL   H233 7639   6.003   3.171   7.157  0.5612  0.2218  1.0785
   24MOL   H234 7640   6.059   2.969   7.285 -0.0350 -2.0417 -0.1771
   24MOL   H235 7641   6.146   2.740   7.244  0.4675 -0.7824 -0.5574
   24MOL   H236 7642   6.419   2.873   7.283  0.7524 -1.5428  0.1366
   24MOL   H237 7643   6.291   2.873   7.405 -1.7270  0.1603 -1.0701
   24MOL   H238 7644   6.381   2.721   7.357  3.2274  1.0028 -1.1596
   24MOL   H239 7645   6.396   2.761   7.064  0.0399  1.1307 -0.2191
   24MOL   H240 7646   6.245   2.682   7.013  2.9131 -1.3369 -0.8681
   24MOL   H241 7647   6.349   2.629   7.147 -0.6476 -0.6764 -1.7567
   24MOL   C242 7648   5.966   2.912   7.094 -0.5170 -0.7242  0.0131
   24MOL   C243 7649   5.819   2.946   7.109  0.6694 -0.9685 -0.0152
   24MOL   O244 7650   5.793   2.931   7.252  0.7363 -0.3252  0.1817
   24MOL   C245 7651   5.693   3.025   7.300 -0.1360  0.2236  0.0044
   24MOL   C246 7652   5.654   2.971   7.442  0.2531 -0.2685 -0.5700
   24MOL   C247 7653   5.745   3.163   7.306 -0.2120  0.6646 -0.1260
   24MOL   H248 7654   5.992   2.938   6.991 -2.0343 -1.7012 -0.6322
   24MOL   H249 7655   5.976   2.804   7.100 -0.8837 -0.5973  3.6083
   24MOL   H250 7656   5.811   3.048   7.071  1.3224 -1.4662 -1.5260
   24MOL   H251 7657   5.598   3.016   7.246  0.3162 -1.9627 -0.4692
   24MOL   H252 7658   5.602   2.876   7.452 -0.9264  0.6254  2.5828
   24MOL   H253 7659   5.735   2.979   7.514 -0.2925 -0.2937  0.0548
   24MOL   H254 7660   5.580   3.045   7.474  0.9575  1.2886 -2.4835
   24MOL   H255 7661   5.746   3.206   7.205  1.1564 -0.4179 -0.5909
   24MOL   H256 7662   5.674   3.227   7.358 -0.7339  2.3632 -2.8254
   24MOL   H257 7663   5.846   3.161   7.348  1.2588 -1.6028 -3.5081
   24MOL   C258 7664   5.727   2.864   7.016 -0.2079 -0.8403  0.0698
   24MOL   C259 7665   5.749   2.911   6.865  0.4376  0.2408 -0.0579
   24MOL   O260 7666   5.695   3.036   6.842  0.1867 -0.1257 -0.3689
   24MOL   C261 7667   5.753   3.128   6.756  0.1320  0.3777 -0.6223
   24MOL   C262 7668   5.643   3.215   6.693 -0.2150 -0.2288 -0.1428
   24MOL   C263 7669   5.856   3.211   6.836 -0.1837 -0.1708 -0.3864
   24MOL   H264 7670   5.754   2.760   7.029 -0.1940 -0.4309  3.5767
   24MOL   H265 7671   5.623   2.869   7.050 -0.7213  0.7563 -1.6261
   24MOL   H266 7672   5.853   2.927   6.835  0.3990 -0.1661 -0.4223
   24MOL   H267 7673   5.812   3.081   6.677  1.1213 -1.7367  1.3164
   24MOL   H268 7674   5.584   3.270   6.766 -0.8864  1.9769 -2.3029
   24MOL   H269 7675   5.566   3.151   6.651 -1.5378  1.4728 -0.3762
   24MOL   H270 7676   5.671   3.292   6.621  1.6969 -0.3795  0.4141
   24MOL   H271 7677   5.817   3.253   6.928  0.0579 -1.3851  0.2807
   24MOL   H272 7678   5.931   3.139   6.868  0.7700 -0.3800 -2.9158
   24MOL   H273 7679   5.911   3.284   6.776  0.5263 -1.4671 -1.3444
   24MOL   C274 7680   5.701   2.811   6.756  0.6707  0.0115  0.5084
   24MOL   C275 7681   5.792   2.798   6.632 -0.0219 -0.2757 -0.6563
   24MOL   O276 7682   5.908   2.744   6.694 -0.2015  0.2143 -0.2673
   24MOL   C277 7683   6.032   2.811   6.667 -0.7006  0.5545  0.3262
   24MOL   C278 7684   6.066   2.793   6.519 -0.0586  0.3189 -0.7128
   24MOL   C279 7685   6.148   2.759   6.752 -0.2035 -0.4339 -0.2364
   24MOL   H280 7686   5.715   2.714   6.804  2.4350 -0.2452 -0.4854
   24MOL   H281 7687   5.594   2.822   6.739  0.7711 -2.0484 -1.7228
   24MOL   H282 7688   5.820   2.898   6.600  1.3239 -0.7110 -0.8819
   24MOL   H283 7689   6.022   2.916   6.692 -0.7846  0.2896  1.4303
   24MOL   H284 7690   6.164   2.826   6.486  0.6739 -0.8977  0.1778
   24MOL   H285 7691   6.063   2.686   6.501  0.2146  0.3207 -0.7746
   24MOL   H286 7692   5.990   2.843   6.459 -0.6833 -0.6651 -0.7458
   24MOL   H287 7693   6.159   2.652   6.770 -1.5838 -0.0721  3.1987
   24MOL   H288 7694   6.114   2.805   6.845  0.3696  0.0873 -0.2830
   24MOL   H289 7695   6.246   2.800   6.729  0.6176 -1.2572  1.7257
   24MOL   C290 7696   5.742   2.706   6.520 -0.0743 -0.2197  0.3594
   24MOL   C291 7697   5.619   2.748   6.451 -0.1320 -0.2863  0.1356
   24MOL   O292 7698   5.647   2.867   6.377 -0.1191  0.2306 -0.1382
   24MOL   C293 7699   5.544   2.965   6.384 -0.8743 -0.2006  0.3979
   24MOL   C294 7700   5.416   2.914   6.311 -0.5223  0.4217  0.1323
   24MOL   C295 7701   5.613   3.091   6.320  0.3379 -0.1440 -0.8111
   24MOL   H296 7702   5.738   2.607   6.563 -0.7127  0.0486  0.9176
   24MOL   H297 7703   5.818   2.692   6.443 -1.0892  5.0596 -1.8197
   24MOL   H298 7704   5.546   2.761   6.531  0.1342  1.2826  0.1325
   24MOL   H299 7705   5.531   2.986   6.490 -1.0486  2.3348 -0.0874
   24MOL   H300 7706   5.448   2.906   6.208 -0.7091 -1.8778  0.2276
   24MOL   H301 7707   5.369   2.826   6.355 -0.2446  1.0359  1.7051
   24MOL   H302 7708   5.347   2.998   6.321 -3.8058 -2.2321  0.5484
   24MOL   H303 7709   5.634   3.069   6.215 -0.1145  2.3602 -1.4560
   24MOL   H304 7710   5.561   3.186   6.315  3.9035  1.9516  0.3041
   24MOL   H305 7711   5.709   3.103   6.371  2.0436 -3.7796 -2.9005
   24MOL   C306 7712   5.572   2.645   6.341 -0.1727  0.1689 -0.0113
   24MOL   C307 7713   5.485   2.533   6.396 -0.3499  0.3861 -0.3275
   24MOL   O308 7714   5.420   2.473   6.285  0.3831  0.1409  0.0669
   24MOL   C309 7715   5.311   2.387   6.314  0.0183 -0.6555  0.4512
   24MOL   C310 7716   5.251   2.334   6.182  0.5363  0.4806 -0.3982
   24MOL   C311 7717   5.353   2.273   6.410  0.5379  0.1730  0.0761
   24MOL   H312 7718   5.661   2.609   6.290 -0.2543  1.1863 -0.8976
   24MOL   H313 7719   5.516   2.694   6.261  1.1504 -1.3211 -1.8887
   24MOL   H314 7720   5.542   2.454   6.445  0.2154 -0.6469 -2.6192
   24MOL   H315 7721   5.243   2.447   6.375 -0.1503 -0.0536 -0.3061
   24MOL   H316 7722   5.153   2.296   6.211  0.3232 -0.1558 -1.8889
   24MOL   H317 7723   5.300   2.259   6.120  0.1070 -1.9504  2.1303
   24MOL   H318 7724   5.228   2.423   6.123 -1.7580  0.1414 -0.0771
   24MOL   H319 7725   5.308   2.178   6.381 -3.4362  1.3857  1.9907
   24MOL   H320 7726   5.315   2.292   6.510 -1.1636 -0.6053 -0.3905
   24MOL   H321 7727   5.460   2.258   6.423  1.1637 -1.1780 -5.2964
   24MOL   H322 7728   5.416   2.573   6.471  0.5057 -0.3196  0.8554
   25MOL     C1 7729   5.995   1.697   4.558  0.0417 -0.0030  0.5223
   25MOL     C2 7730   6.070   1.574   4.617 -0.5704 -0.2044  0.1348
   25MOL     O3 7731   6.145   1.628   4.724  0.4502  0.3022 -0.4837
   25MOL     C4 7732   6.262   1.699   4.694 -0.1066 -0.0346  0.3101
   25MOL     C5 7733   6.371   1.635   4.778 -0.3104 -0.2895  0.1260
   25MOL     C6 7734   6.246   1.846   4.737  0.3063 -0.6416 -0.1380
   25MOL     H7 7735   5.938   1.740   4.640 -2.3050 -2.2566  0.1331
   25MOL     H8 7736   6.069   1.768   4.521 -0.0460  0.1525  0.6502
   25MOL     H9 7737   6.145   1.536   4.548  0.0258 -2.1682  1.8225
   25MOL    H10 7738   6.290   1.698   4.589  2.7982 -0.9947  1.0618
   25MOL    H11 7739   6.457   1.701   4.795 -2.2826  2.3548  0.2418
   25MOL    H12 7740   6.335   1.602   4.875 -1.8799 -1.5756 -0.8755
   25MOL    H13 7741   6.394   1.545   4.722 -1.2349 -0.2089 -0.4031
   25MOL    H14 7742   6.334   1.904   4.709  1.7572 -1.3170  2.8407
   25MOL    H15 7743   6.155   1.889   4.695 -0.6041 -0.5490  1.8845
   25MOL    H16 7744   6.229   1.860   4.843  0.0563  0.2069 -0.2809
   25MOL    H17 7745   5.933   1.658   4.476 -1.6331  0.9210  1.3302
   25MOL    C18 7746   5.988   1.450   4.660  0.6559  0.2836  0.1146
   25MOL    C19 7747   5.925   1.356   4.558  0.3805 -0.7067  0.5308
   25MOL    O20 7748   6.024   1.329   4.459 -0.2988  0.5569 -0.1845
   25MOL    C21 7749   6.133   1.236   4.485  0.0705 -0.5145 -0.9081
   25MOL    C22 7750   6.236   1.239   4.371 -0.5370  0.0453  0.3622
   25MOL    C23 7751   6.079   1.097   4.504 -0.1656 -0.0742 -0.1502
   25MOL    H24 7752   6.050   1.383   4.719 -0.6326 -1.2518 -0.2347
   25MOL    H25 7753   5.914   1.497   4.726 -2.0518 -1.3254 -1.6685
   25MOL    H26 7754   5.891   1.265   4.609 -0.3037 -0.4483  0.5444
   25MOL    H27 7755   6.188   1.258   4.577 -1.2033 -1.0269 -0.0125
   25MOL    H28 7756   6.270   1.341   4.357  0.9863 -0.2807  1.5394
   25MOL    H29 7757   6.320   1.173   4.395 -1.1220 -1.1516 -0.7936
   25MOL    H30 7758   6.188   1.217   4.275 -0.9327 -2.2073  1.0380
   25MOL    H31 7759   6.046   1.047   4.413  1.3857 -0.5686 -0.4477
   25MOL    H32 7760   5.989   1.098   4.566 -0.1288  1.9176 -0.0810
   25MOL    H33 7761   6.159   1.031   4.535 -0.4904  0.1911  1.2565
   25MOL    C34 7762   5.802   1.415   4.485 -0.3180 -0.3485  0.3475
   25MOL    C35 7763   5.678   1.325   4.477  1.0978  0.8229  0.2799
   25MOL    O36 7764   5.696   1.193   4.422  0.1893 -0.4481  0.6369
   25MOL    C37 7765   5.776   1.165   4.310 -0.0021  0.3159  0.4181
   25MOL    C38 7766   5.794   1.017   4.270  0.3440  0.0320  0.1667
   25MOL    C39 7767   5.715   1.234   4.182 -0.0815  0.4580 -0.6175
   25MOL    H40 7768   5.818   1.464   4.389 -2.6015  1.5258  0.8588
   25MOL    H41 7769   5.767   1.499   4.546 -3.8103 -2.4537  1.4150
   25MOL    H42 7770   5.598   1.365   4.415 -0.6465 -1.3584  1.0665
   25MOL    H43 7771   5.876   1.203   4.328  0.5196  0.1020 -1.8878
   25MOL    H44 7772   5.815   0.960   4.361 -0.3680  0.9299  0.8983
   25MOL    H45 7773   5.874   1.000   4.197 -0.6344 -1.4916 -0.5741
   25MOL    H46 7774   5.707   0.975   4.220 -0.0331  2.1233 -0.9691
   25MOL    H47 7775   5.789   1.241   4.103  1.8447 -1.3792  0.9400
   25MOL    H48 7776   5.620   1.201   4.140 -0.5412 -1.3808  1.7522
   25MOL    H49 7777   5.694   1.336   4.216  2.2998  0.3086  1.4803
   25MOL    C50 7778   5.608   1.308   4.609  0.0707  0.1918 -0.3190
   25MOL    C51 7779   5.462   1.275   4.613 -0.2302 -0.2417  0.1031
   25MOL    O52 7780   5.399   1.406   4.577 -0.3529  0.2052 -0.0567
   25MOL    C53 7781   5.277   1.401   4.506  0.3642 -0.6809 -0.4419
   25MOL    C54 7782   5.293   1.376   4.364 -0.3971  0.2081 -0.8008
   25MOL    C55 7783   5.218   1.544   4.520 -0.5119  0.2443 -0.4076
   25MOL    H56 7784   5.655   1.226   4.664 -2.8613 -0.1336  1.8594
   25MOL    H57 7785   5.622   1.400   4.667  2.3198 -0.7977  0.7787
   25MOL    H58 7786   5.445   1.204   4.532  0.3889  0.7929 -0.9504
   25MOL    H59 7787   5.203   1.334   4.551 -0.6867  1.0427  0.4261
   25MOL    H60 7788   5.342   1.456   4.308  0.7905  0.4377  0.5362
   25MOL    H61 7789   5.195   1.372   4.318 -0.3167  0.7100 -1.0274
   25MOL    H62 7790   5.352   1.284   4.361  0.5652  0.8402 -2.3379
   25MOL    H63 7791   5.123   1.558   4.469 -0.7134  1.2031  0.2110
   25MOL    H64 7792   5.290   1.608   4.468 -2.3917  1.0075 -2.1661
   25MOL    H65 7793   5.210   1.586   4.620 -2.8716  0.9515 -0.8584
   25MOL    C66 7794   5.405   1.217   4.739 -0.7770 -0.1636  0.2858
   25MOL    C67 7795   5.466   1.077   4.778 -0.1130  0.9195  0.3220
   25MOL    O68 7796   5.357   0.981   4.802  0.5956  0.4661  0.4754
   25MOL    C69 7797   5.349   0.877   4.707  0.1681 -0.1390  0.6509
   25MOL    C70 7798   5.280   0.755   4.772 -0.6699  0.3312 -0.4899
   25MOL    C71 7799   5.269   0.919   4.579 -0.3034 -0.1920 -0.5948
   25MOL    H72 7800   5.435   1.280   4.822  0.8248 -0.9038  0.2914
   25MOL    H73 7801   5.297   1.214   4.733 -0.6657  0.2513 -3.5972
   25MOL    H74 7802   5.539   1.050   4.701 -1.7935 -1.0637 -0.6281
   25MOL    H75 7803   5.445   0.859   4.658 -0.6883 -1.0223 -0.7478
   25MOL    H76 7804   5.334   0.726   4.862 -0.7965  1.5802  0.0056
   25MOL    H77 7805   5.176   0.777   4.796 -0.3974 -1.3782  2.5170
   25MOL    H78 7806   5.289   0.669   4.706  0.2565 -1.1396  1.4986
   25MOL    H79 7807   5.272   0.844   4.500  0.9575 -2.1720  1.2926
   25MOL    H80 7808   5.314   1.014   4.550  0.0714  0.3833  1.7826
   25MOL    H81 7809   5.164   0.938   4.600 -0.2210  0.8138 -1.0569
   25MOL    C82 7810   5.535   1.086   4.915 -1.0438  0.5810 -0.7989
   25MOL    C83 7811   5.615   0.957   4.966 -0.4338 -0.2061  0.9853
   25MOL    O84 7812   5.723   0.954   4.870 -0.1733  0.0064  0.3785
   25MOL    C85 7813   5.776   0.830   4.836 -0.3602 -0.3189 -0.1048
   25MOL    C86 7814   5.920   0.840   4.803 -0.0095 -0.2074 -0.6124
   25MOL    C87 7815   5.691   0.756   4.731  0.3246  0.2008 -0.0742
   25MOL    H88 7816   5.611   1.165   4.913  0.4848 -0.8277  0.3420
   25MOL    H89 7817   5.457   1.116   4.985  1.0443  0.8411  1.4899
   25MOL    H90 7818   5.548   0.872   4.958  0.0832 -0.5797  0.6248
   25MOL    H91 7819   5.786   0.765   4.923  5.3924  0.5209  0.0248
   25MOL    H92 7820   5.932   0.883   4.703 -1.3944 -1.6874 -1.4476
   25MOL    H93 7821   5.976   0.900   4.874 -1.1335 -0.0096  0.1310
   25MOL    H94 7822   5.961   0.739   4.796  0.8167  0.0592  0.3070
   25MOL    H95 7823   5.730   0.655   4.719 -0.3804 -0.0098 -0.6022
   25MOL    H96 7824   5.594   0.745   4.780  0.9865  0.1479  1.2591
   25MOL    H97 7825   5.689   0.816   4.640 -1.5761  2.8144  1.6123
   25MOL    C98 7826   5.683   0.966   5.105  0.3257  0.2378  0.4146
   25MOL    C99 7827   5.584   0.915   5.216 -0.0370 -0.5180  0.0217
   25MOL   O100 7828   5.498   1.018   5.251  0.7206 -0.1849 -0.4928
   25MOL   C101 7829   5.366   0.973   5.277 -0.2382 -0.1046  0.8769
   25MOL   C102 7830   5.292   0.955   5.139  0.1216  0.0502  0.1291
   25MOL   C103 7831   5.314   1.079   5.371  0.0415  0.0433 -0.7506
   25MOL   H104 7832   5.772   0.903   5.094 -0.8589 -1.1661 -1.4664
   25MOL   H105 7833   5.715   1.068   5.126  1.6250 -0.2361  0.8372
   25MOL   H106 7834   5.534   0.828   5.173  0.2849 -0.4701 -0.4608
   25MOL   H107 7835   5.371   0.878   5.330 -1.6907 -0.0359  1.1637
   25MOL   H108 7836   5.276   1.054   5.096 -1.6071  0.3955  1.5004
   25MOL   H109 7837   5.195   0.907   5.148  0.7059 -1.4367 -1.2808
   25MOL   H110 7838   5.349   0.898   5.066 -1.4832  1.7764 -2.5350
   25MOL   H111 7839   5.389   1.105   5.446 -1.5816 -2.3502  1.8099
   25MOL   H112 7840   5.219   1.046   5.413 -1.0172  2.5752 -1.0737
   25MOL   H113 7841   5.292   1.178   5.332  1.6218  0.9200  0.5113
   25MOL   C114 7842   5.662   0.874   5.344 -0.7539  1.0585 -0.2273
   25MOL   C115 7843   5.762   0.752   5.329  0.6035  0.1276  0.6346
   25MOL   O116 7844   5.849   0.760   5.435  0.2192  0.0406  0.6744
   25MOL   C117 7845   5.959   0.844   5.431 -0.6442 -0.2352 -0.3668
   25MOL   C118 7846   6.072   0.805   5.325 -0.5240 -0.7800  0.3404
   25MOL   C119 7847   6.008   0.857   5.577 -0.4308 -0.5951 -0.8825
   25MOL   H120 7848   5.594   0.844   5.424  1.2442 -2.3678  0.2517
   25MOL   H121 7849   5.714   0.962   5.382 -0.8122  0.9625  0.0741
   25MOL   H122 7850   5.802   0.749   5.227 -0.1576  1.5756  0.2853
   25MOL   H123 7851   5.932   0.948   5.411 -0.4895 -0.5034 -2.0296
   25MOL   H124 7852   6.034   0.805   5.224  0.1250 -0.5238  0.0911
   25MOL   H125 7853   6.123   0.712   5.351 -0.4719 -0.6527  0.6968
   25MOL   H126 7854   6.135   0.894   5.321  0.5616 -1.6580 -3.7292
   25MOL   H127 7855   5.920   0.877   5.638  0.3284 -1.2617  0.4507
   25MOL   H128 7856   6.069   0.947   5.586 -3.2977  1.4545 -1.0865
   25MOL   H129 7857   6.048   0.765   5.619 -1.3954 -0.3569  0.6092
   25MOL   C130 7858   5.690   0.617   5.353 -0.7206  0.0803 -0.4569
   25MOL   C131 7859   5.793   0.504   5.316 -0.1995  0.4019  0.0770
   25MOL   O132 7860   5.793   0.483   5.180  1.1199  0.2109 -0.1986
   25MOL   C133 7861   5.909   0.425   5.125 -0.5130  0.3897  0.1678
   25MOL   C134 7862   5.872   0.351   5.003 -0.0208  0.2032 -0.2779
   25MOL   C135 7863   6.009   0.533   5.089 -0.3370 -0.1922 -0.5363
   25MOL   H136 7864   5.598   0.603   5.296 -1.2534 -1.7254  0.7792
   25MOL   H137 7865   5.665   0.613   5.459  0.3388  0.7699 -0.1834
   25MOL   H138 7866   5.894   0.543   5.333  0.8215 -1.1722 -2.1393
   25MOL   H139 7867   5.953   0.363   5.203 -1.4779 -2.7527 -1.6863
   25MOL   H140 7868   5.958   0.301   4.958  0.2924  0.4612  0.0280
   25MOL   H141 7869   5.833   0.414   4.923  0.8156  0.2203 -0.6787
   25MOL   H142 7870   5.804   0.267   5.017  1.8355 -1.3591 -0.4027
   25MOL   H143 7871   6.101   0.493   5.048 -1.4190 -1.4106 -1.8361
   25MOL   H144 7872   5.961   0.599   5.016  1.0672  0.9545 -0.4530
   25MOL   H145 7873   6.047   0.606   5.162  0.9299 -1.2650 -0.1043
   25MOL   C146 7874   5.747   0.362   5.375  0.2772  0.0477  0.6840
   25MOL   C147 7875   5.839   0.303   5.485  0.2260 -0.2679  0.2324
   25MOL   O148 7876   5.799   0.375   5.604 -0.2940  0.3777 -0.0633
   25MOL   C149 7877   5.897   0.434   5.684 -0.4749  0.0518 -0.5055
   25MOL   C150 7878   5.980   0.330   5.763  0.3737 -0.8130 -0.3314
   25MOL   C151 7879   5.825   0.543   5.769 -0.0680  0.0517 -0.1582
   25MOL   H152 7880   5.740   0.287   5.296  0.2930  1.8776 -1.1307
   25MOL   H153 7881   5.645   0.368   5.413 -0.6502  1.0263 -1.7722
   25MOL   H154 7882   5.947   0.317   5.477 -0.2604  2.7748 -2.0635
   25MOL   H155 7883   5.955   0.503   5.623 -0.5581  2.3850  1.9232
   25MOL   H156 7884   6.033   0.250   5.712 -0.0353 -1.2935  0.0017
   25MOL   H157 7885   5.903   0.278   5.820 -2.1598  3.1919  0.0577
   25MOL   H158 7886   6.044   0.386   5.832 -1.5791  1.1656 -0.0777
   25MOL   H159 7887   5.888   0.603   5.835 -0.5283 -0.2538  0.5665
   25MOL   H160 7888   5.734   0.505   5.816 -0.7407  1.6178 -0.1648
   25MOL   H161 7889   5.784   0.612   5.695 -0.4428  0.7244  0.6662
   25MOL   C162 7890   5.809   0.158   5.511 -1.0445  0.2218  0.1320
   25MOL   C163 7891   5.879   0.058   5.416 -0.4913 -0.0194  0.0763
   25MOL   O164 7892   6.015   0.052   5.457 -0.3206 -0.0728 -0.0752
   25MOL   C165 7893   6.111   0.001   5.367  0.5603  0.0316 -0.0606
   25MOL   C166 7894   6.233   7.762   5.439  0.2939  0.2590 -0.2319
   25MOL   C167 7895   6.150   0.114   5.266 -0.5844  0.2928  0.2378
   25MOL   H168 7896   5.845   0.131   5.611  0.3369  0.8890 -0.1778
   25MOL   H169 7897   5.704   0.131   5.503 -0.6624 -1.5636  0.8591
   25MOL   H170 7898   5.873   0.079   5.309  1.2533  1.3661  0.2282
   25MOL   H171 7899   6.072   7.732   5.318 -0.5165  1.2986 -1.5110
   25MOL   H172 7900   6.227   7.657   5.466  3.0958  0.0797 -0.1879
   25MOL   H173 7901   6.271   7.813   5.527  0.8356 -0.2942 -0.1456
   25MOL   H174 7902   6.319   7.773   5.373 -0.0672 -0.4651 -0.8332
   25MOL   H175 7903   6.065   0.156   5.212 -1.2259  0.9782  1.7567
   25MOL   H176 7904   6.204   0.064   5.185 -1.6725  1.2093 -1.0948
   25MOL   H177 7905   6.206   0.199   5.305 -2.0307  1.4975 -0.2276
   25MOL   C178 7906   5.812   7.736   5.436 -0.5998 -0.2954  0.6463
   25MOL   C179 7907   5.669   7.713   5.379 -0.4495  0.4872  0.4956
   25MOL   O180 7908   5.694   7.702   5.242  0.2749  0.0032  0.0333
   25MOL   C181 7909   5.601   7.776   5.165  0.1856 -0.2621  0.0664
   25MOL   C182 7910   5.457   7.726   5.138  0.3082  0.1010 -0.4837
   25MOL   C183 7911   5.668   7.788   5.025 -0.0006  0.1551  0.6096
   25MOL   H184 7912   5.814   7.706   5.541  1.4020 -0.3032  0.6194
   25MOL   H185 7913   5.875   7.662   5.387 -0.9011  0.4416 -0.8732
   25MOL   H186 7914   5.607   7.802   5.389  0.2481  0.9255  0.9374
   25MOL   H187 7915   5.595   0.062   5.188 -1.5234 -0.3733  0.1863
   25MOL   H188 7916   5.468   7.632   5.085  0.1820  0.1614 -0.6154
   25MOL   H189 7917   5.408   7.807   5.083 -2.7052  1.2623  3.6367
   25MOL   H190 7918   5.406   7.705   5.232  1.7298 -0.5617  0.1397
   25MOL   H191 7919   5.701   7.691   4.989 -1.9628 -0.0967 -0.5768
   25MOL   H192 7920   5.757   0.031   5.035  0.0414  0.8121 -3.0403
   25MOL   H193 7921   5.605   0.009   4.947 -1.8741 -3.1796  0.2931
   25MOL   C194 7922   5.607   7.587   5.429  0.2195 -0.7087 -0.0775
   25MOL   C195 7923   5.558   7.583   5.572  0.1458  0.2718 -0.1306
   25MOL   O196 7924   5.522   7.459   5.620  0.2910 -0.5458 -0.2075
   25MOL   C197 7925   5.617   7.393   5.708  0.2781 -0.0568  1.1538
   25MOL   C198 7926   5.589   7.412   5.852  0.1543 -0.3226  0.1774
   25MOL   C199 7927   5.600   7.244   5.667  0.2954 -0.0745  0.1043
   25MOL   H200 7928   5.534   7.536   5.366  0.4714  0.7102 -1.5549
   25MOL   H201 7929   5.684   7.511   5.423  2.0090  1.1954 -1.9528
   25MOL   H202 7930   5.633   7.629   5.637 -0.5073  0.5156  0.4445
   25MOL   H203 7931   5.719   7.420   5.682  0.5689 -1.3133  0.9750
   25MOL   H204 7932   5.482   7.404   5.869  0.0237  1.0630  0.0331
   25MOL   H205 7933   5.646   7.350   5.921  2.7600  0.1070 -1.4835
   25MOL   H206 7934   5.598   7.514   5.889 -1.0177 -0.4395  0.8059
   25MOL   H207 7935   5.689   7.199   5.708  0.3363 -1.3197 -1.3145
   25MOL   H208 7936   5.514   7.187   5.702  0.9494 -1.6638 -0.8250
   25MOL   H209 7937   5.593   7.232   5.559  0.6524  0.2263  0.0470
   25MOL   C210 7938   5.424   7.661   5.581 -0.1538 -0.5529 -0.1302
   25MOL   C211 7939   5.403   7.726   5.721  0.3976 -0.4216 -0.0724
   25MOL   O212 7940   5.362   0.047   5.717 -0.7743  0.0738 -0.5397
   25MOL   C213 7941   5.459   0.154   5.709  0.5527  0.0954 -0.2763
   25MOL   C214 7942   5.440   0.235   5.572 -0.2668  0.4502  0.0273
   25MOL   C215 7943   5.449   0.239   5.835  0.1023 -0.1789 -0.0021
   25MOL   H216 7944   5.334   7.604   5.556 -0.4247  0.2464 -0.9625
   25MOL   H217 7945   5.440   7.742   5.510  0.0990  0.1128  0.6876
   25MOL   H218 7946   5.491   7.726   5.785  0.7214 -0.1617 -0.5125
   25MOL   H219 7947   5.561   0.116   5.704  1.0240  1.4971 -2.1040
   25MOL   H220 7948   5.529   0.298   5.566  1.0378 -1.1551  2.0567
   25MOL   H221 7949   5.353   0.297   5.595 -0.0091 -0.0306  2.4430
   25MOL   H222 7950   5.434   0.175   5.481  0.6701  0.1060  0.1878
   25MOL   H223 7951   5.510   0.328   5.821 -0.6165  0.2475 -0.4378
   25MOL   H224 7952   5.492   0.190   5.923 -2.9630  0.9363  2.2475
   25MOL   H225 7953   5.345   0.270   5.849 -0.6463 -0.9334 -3.4614
   25MOL   C226 7954   5.281   7.666   5.785 -0.3818  0.0704  0.6890
   25MOL   C227 7955   5.250   7.690   5.935 -0.1661  0.3205 -0.0945
   25MOL   O228 7956   5.363   7.643   6.005 -0.5290 -0.2025  0.0119
   25MOL   C229 7957   5.395   7.692   6.135 -0.0908 -0.4944  0.2369
   25MOL   C230 7958   5.453   0.012   6.117  0.0913  0.2075 -0.4519
   25MOL   C231 7959   5.508   7.600   6.183 -0.1221 -0.4159 -0.0533
   25MOL   H232 7960   5.293   7.557   5.787 -0.8433  0.0092  0.2827
   25MOL   H233 7961   5.196   7.693   5.722 -0.3150 -0.4631  0.3674
   25MOL   H234 7962   5.235   7.798   5.938 -0.9883  0.1832  3.0918
   25MOL   H235 7963   5.303   7.686   6.192 -0.6111  1.3754 -0.3488
   25MOL   H236 7964   5.385   0.094   6.093  1.9658  2.0703  0.4051
   25MOL   H237 7965   5.488   0.046   6.215 -0.1328 -0.3890 -0.1627
   25MOL   H238 7966   5.527   0.005   6.038 -1.3142 -1.2903 -1.6613
   25MOL   H239 7967   5.600   7.601   6.124  0.7471 -0.4618  1.2816
   25MOL   H240 7968   5.473   7.497   6.187 -0.1776 -0.3871  0.1496
   25MOL   H241 7969   5.525   7.630   6.286 -3.0652  2.1454 -0.2250
   25MOL   C242 7970   5.122   7.617   5.977  0.5517  0.4291 -0.1462
   25MOL   C243 7971   4.996   7.675   5.914 -0.1147  0.8773  0.1218
   25MOL   O244 7972   4.977   7.805   5.956 -0.4104 -0.0323 -0.3866
   25MOL   C245 7973   4.962   0.091   5.856 -0.2883  0.6298 -0.1085
   25MOL   C246 7974   4.825   0.087   5.784 -0.5964  1.3145 -0.0079
   25MOL   C247 7975   4.984   0.227   5.931  0.2714  0.3779 -0.2842
   25MOL   H248 7976   5.148   7.513   5.958  2.4399  1.0702 -1.2009
   25MOL   H249 7977   5.098   7.619   6.083  0.0798  1.1051 -0.2606
   25MOL   H250 7978   5.007   7.672   5.806 -2.1833  0.1214 -0.0973
   25MOL   H251 7979   5.046   0.072   5.789  1.5108  1.2522  1.9371
   25MOL   H252 7980   4.743   0.123   5.846  0.0076  3.9104 -0.6464
   25MOL   H253 7981   4.840   0.159   5.703  4.0648 -0.7897 -1.1906
   25MOL   H254 7982   4.803   7.814   5.732  1.1952  0.4859  0.6825
   25MOL   H255 7983   4.992   0.306   5.857 -0.3079  0.2820 -0.4439
   25MOL   H256 7984   4.919   0.253   6.014  0.6868  0.8038 -0.0815
   25MOL   H257 7985   5.081   0.217   5.981  0.5862  0.9149 -0.7739
   25MOL   C258 7986   4.873   7.598   5.953 -0.2510 -0.1730  0.3586
   25MOL   C259 7987   4.841   7.476   5.870  0.0883  0.4865  0.0175
   25MOL   O260 7988   4.813   7.520   5.742  0.0233 -0.3625  0.1980
   25MOL   C261 7989   4.881   7.445   5.639  0.1234  0.2541  0.3362
   25MOL   C262 7990   4.811   7.488   5.507 -0.9291 -0.3815 -0.0626
   25MOL   C263 7991   5.028   7.475   5.631 -0.5846 -0.0971  0.4945
   25MOL   H264 7992   4.880   7.569   6.058 -0.2268 -1.1973  0.0826
   25MOL   H265 7993   4.788   7.666   5.943  0.8794  1.8212  3.3893
   25MOL   H266 7994   4.930   7.413   5.866 -0.0401  0.3190 -0.2254
   25MOL   H267 7995   4.853   7.340   5.637  0.6446  0.1245 -0.3653
   25MOL   H268 7996   4.705   7.461   5.508 -1.0468  0.0619 -0.4814
   25MOL   H269 7997   4.862   7.439   5.425  1.6891  4.7047 -1.7308
   25MOL   H270 7998   4.834   7.593   5.490 -2.6260  0.2549  1.2963
   25MOL   H271 7999   5.049   7.579   5.607 -0.1770 -0.3544 -0.2812
   25MOL   H272 8000   5.076   7.435   5.721  0.6701  0.8560  0.2463
   25MOL   H273 8001   5.062   7.414   5.547 -1.3310  0.6298 -0.3419
   25MOL   C274 8002   4.727   7.381   5.928 -0.3282 -0.1938  0.4257
   25MOL   C275 8003   4.753   7.323   6.073  0.0878 -0.2594  0.0180
   25MOL   O276 8004   4.664   7.211   6.088 -0.0200  0.0348 -0.3556
   25MOL   C277 8005   4.522   7.243   6.093  0.5673 -0.2112 -0.5286
   25MOL   C278 8006   4.462   7.150   6.193 -0.1391 -0.2611 -0.2155
   25MOL   C279 8007   4.455   7.208   5.964  0.1252  0.4861 -0.0414
   25MOL   H280 8008   4.634   7.438   5.934  0.4125  1.3592 -2.0229
   25MOL   H281 8009   4.704   7.310   5.849  0.1096  1.9892 -1.7379
   25MOL   H282 8010   4.729   7.391   6.154  3.4230  0.8810  0.1451
   25MOL   H283 8011   4.508   7.348   6.120 -0.9543 -0.2005 -1.2680
   25MOL   H284 8012   4.357   7.168   6.213 -0.0690 -0.5042  0.4118
   25MOL   H285 8013   4.485   7.050   6.154  0.5720 -0.1212 -0.1722
   25MOL   H286 8014   4.510   7.159   6.291 -2.0129 -0.6629  0.7508
   25MOL   H287 8015   4.480   7.276   5.883  0.0095  1.1937  0.5191
   25MOL   H288 8016   4.347   7.198   5.975  0.2018  0.0719  0.3556
   25MOL   H289 8017   4.495   7.111   5.931 -0.2467 -0.6856  2.8231
   25MOL   C290 8018   4.894   7.272   6.117  0.0412  0.5777 -0.5811
   25MOL   C291 8019   4.963   7.147   6.043  0.0419 -0.3718  0.1457
   25MOL   O292 8020   5.016   7.191   5.921 -0.1470  0.3426  0.1585
   25MOL   C293 8021   5.058   7.098   5.823 -0.2258 -0.4413  1.0221
   25MOL   C294 8022   5.200   7.141   5.776 -0.6684 -0.0832  0.0353
   25MOL   C295 8023   4.967   7.081   5.700  0.2563 -0.0079  0.2002
   25MOL   H296 8024   4.898   7.248   6.223 -0.1255 -1.3955 -1.0077
   25MOL   H297 8025   4.967   7.352   6.101  0.4695  0.7310  1.9348
   25MOL   H298 8026   4.884   7.073   6.035  0.4007 -0.8563  1.0220
   25MOL   H299 8027   5.078   6.999   5.862 -1.5015 -0.1716  2.4155
   25MOL   H300 8028   5.196   7.248   5.756  1.2198 -0.1497 -0.8476
   25MOL   H301 8029   5.271   7.124   5.857 -0.4654 -0.3197 -0.1916
   25MOL   H302 8030   5.239   7.093   5.687 -0.3360 -1.2468  0.8066
   25MOL   H303 8031   4.959   6.977   5.670 -0.9850 -0.1287  0.9021
   25MOL   H304 8032   4.866   7.100   5.737  0.9454 -0.8181  2.6101
   25MOL   H305 8033   4.982   7.149   5.616  0.5151  0.2315  0.4374
   25MOL   C306 8034   5.083   7.089   6.121 -0.1708 -0.7154 -0.1765
   25MOL   C307 8035   5.208   7.176   6.154 -0.5082 -0.2012 -0.3223
   25MOL   O308 8036   5.296   7.103   6.240  0.4211 -0.4918 -0.4315
   25MOL   C309 8037   5.416   7.175   6.275  1.5010  0.0909  0.5091
   25MOL   C310 8038   5.473   7.106   6.399  0.3388 -0.9815  0.0960
   25MOL   C311 8039   5.520   7.175   6.157 -0.3226  0.0681  0.2918
   25MOL   H312 8040   5.106   6.989   6.084 -1.8344 -1.1478 -0.0883
   25MOL   H313 8041   5.048   7.066   6.222  0.9397 -0.8977  0.1699
   25MOL   H314 8042   5.253   7.208   6.060  0.6731  1.2011  0.7094
   25MOL   H315 8043   5.395   7.280   6.296 -0.2556 -0.2830  0.7137
   25MOL   H316 8044   5.567   7.158   6.416 -0.7595  1.3672 -0.8073
   25MOL   H317 8045   5.486   6.998   6.390  2.9029 -0.5697 -1.5767
   25MOL   H318 8046   5.407   7.121   6.485  0.9609 -1.7227  0.7058
   25MOL   H319 8047   5.542   7.071   6.132 -1.5139 -0.2329  0.4402
   25MOL   H320 8048   5.613   7.220   6.191 -0.3204  2.0245 -2.0975
   25MOL   H321 8049   5.479   7.219   6.066  3.2053  2.8781 -0.0346
   25MOL   H322 8050   5.179   7.276   6.184 -0.2747 -0.6611  1.4947
   26MOL     C1 8051   6.299   4.023   7.083 -0.8514 -0.0569  0.6072
   26MOL     C2 8052   6.289   3.995   7.233  0.0808 -0.8557  0.2252
   26MOL     O3 8053   6.356   4.103   7.302 -0.5173 -0.0677 -0.4889
   26MOL     C4 8054   6.494   4.093   7.313 -0.5901 -0.1185  0.7470
   26MOL     C5 8055   6.519   4.063   7.458 -0.5480  0.2062  0.9061
   26MOL     C6 8056   6.556   4.221   7.255  0.5253  0.0720 -0.0920
   26MOL     H7 8057   6.246   3.943   7.031  0.1673 -2.2567  2.8532
   26MOL     H8 8058   6.252   4.113   7.043  0.2054  0.2555  0.0385
   26MOL     H9 8059   6.327   3.903   7.275 -4.2810 -2.8001  0.1888
   26MOL    H10 8060   6.526   4.012   7.247 -0.8308  1.2620 -1.1262
   26MOL    H11 8061   6.626   4.063   7.480 -0.0853 -0.8053 -1.1432
   26MOL    H12 8062   6.467   4.127   7.527 -0.4494 -0.2659  1.4231
   26MOL    H13 8063   6.477   3.967   7.488 -0.5252  0.0242  0.3754
   26MOL    H14 8064   6.567   4.304   7.324  2.3938  0.1412 -0.4546
   26MOL    H15 8065   6.660   4.200   7.231 -0.1451 -1.4422 -1.8350
   26MOL    H16 8066   6.503   4.239   7.161  0.6446 -0.6991 -0.3073
   26MOL    H17 8067   6.400   4.018   7.042 -1.3091 -1.5032 -0.3674
   26MOL    C18 8068   6.132   4.013   7.265  0.4546 -0.0713  0.4398
   26MOL    C19 8069   6.091   3.923   7.387 -0.9265 -0.4449 -0.2069
   26MOL    O20 8070   6.137   3.792   7.370  0.0243 -0.1193 -0.3372
   26MOL    C21 8071   6.207   3.736   7.478  0.4544 -0.3656  0.9764
   26MOL    C22 8072   6.294   3.620   7.415 -0.3383  0.2608  0.2459
   26MOL    C23 8073   6.127   3.681   7.596  0.1256  0.4481  0.7185
   26MOL    H24 8074   6.117   4.120   7.275  0.2571 -0.1197  0.6726
   26MOL    H25 8075   6.073   3.996   7.175  1.2637  1.3430 -0.3669
   26MOL    H26 8076   6.145   3.966   7.471  0.0109  0.1379 -1.0938
   26MOL    H27 8077   6.283   3.809   7.505 -0.7085  1.7986 -1.3969
   26MOL    H28 8078   6.351   3.569   7.492 -0.8423  0.7137  0.9326
   26MOL    H29 8079   6.221   3.552   7.371  0.3674  0.1825 -0.8346
   26MOL    H30 8080   6.363   3.664   7.342  1.0146  0.6119  1.7178
   26MOL    H31 8081   6.073   3.763   7.643  0.3518  1.0304 -0.0237
   26MOL    H32 8082   6.194   3.628   7.664 -0.2841 -0.6346  0.2847
   26MOL    H33 8083   6.041   3.627   7.556 -0.3778  0.2163  2.0876
   26MOL    C34 8084   5.939   3.931   7.419 -0.3755  0.1057  0.3787
   26MOL    C35 8085   5.890   4.019   7.528 -0.2101 -0.2745  0.4585
   26MOL    O36 8086   5.959   4.142   7.504  0.2034  0.2845  0.5651
   26MOL    C37 8087   6.025   4.214   7.600  0.1171  0.8363 -0.4924
   26MOL    C38 8088   6.152   4.268   7.539 -1.0091 -0.3300 -0.1449
   26MOL    C39 8089   5.930   4.319   7.667  0.4452  0.2799 -0.0325
   26MOL    H40 8090   5.914   3.825   7.433 -0.8032  0.1892  0.2283
   26MOL    H41 8091   5.890   3.947   7.323  1.8425  1.2331 -0.6060
   26MOL    H42 8092   5.921   3.981   7.625 -1.5297  1.2500  1.5235
   26MOL    H43 8093   6.059   4.138   7.671 -2.3736 -0.5104 -0.7077
   26MOL    H44 8094   6.228   4.193   7.515 -0.1331 -0.2354  2.1849
   26MOL    H45 8095   6.201   4.323   7.619  2.8731 -2.3455 -1.0032
   26MOL    H46 8096   6.132   4.327   7.450  2.9008 -1.4150 -1.8926
   26MOL    H47 8097   5.912   4.395   7.592 -0.3366 -0.2406 -0.3841
   26MOL    H48 8098   5.831   4.280   7.692  0.1165  0.7694 -0.5845
   26MOL    H49 8099   5.979   4.362   7.754  1.8951 -0.5064 -0.4463
   26MOL    C50 8100   5.732   4.028   7.531 -0.3424 -0.0886 -0.4478
   26MOL    C51 8101   5.654   3.901   7.567  0.2700  0.1931  1.0857
   26MOL    O52 8102   5.521   3.938   7.585  0.6457  0.5975  1.1656
   26MOL    C53 8103   5.429   3.910   7.472 -0.4924 -0.2848 -0.5171
   26MOL    C54 8104   5.296   3.985   7.482  0.4769  0.1758 -1.0256
   26MOL    C55 8105   5.410   3.763   7.449 -0.2058  0.0570  0.0469
   26MOL    H56 8106   5.701   4.101   7.606  0.0068  0.4436 -0.8229
   26MOL    H57 8107   5.699   4.064   7.434 -1.1894  0.8801  0.1952
   26MOL    H58 8108   5.669   3.833   7.483 -0.3170  0.5474  0.6916
   26MOL    H59 8109   5.470   3.947   7.378 -1.5639 -1.9011 -1.6558
   26MOL    H60 8110   5.216   3.957   7.414  0.2025 -0.3633 -0.4884
   26MOL    H61 8111   5.312   4.093   7.474  0.0878  0.4083  1.1184
   26MOL    H62 8112   5.258   3.972   7.583  1.9595 -3.5057 -0.8558
   26MOL    H63 8113   5.507   3.715   7.459 -1.5832 -3.0666 -0.7496
   26MOL    H64 8114   5.364   3.741   7.352 -1.4374  0.3702  0.5523
   26MOL    H65 8115   5.335   3.728   7.520 -0.6419  0.0608 -0.4057
   26MOL    C66 8116   5.693   3.841   7.704  0.2559  0.0497 -0.3473
   26MOL    C67 8117   5.610   3.722   7.766  0.2002 -0.3827  0.5680
   26MOL    O68 8118   5.606   3.627   7.661  0.3459  0.3958 -0.9089
   26MOL    C69 8119   5.605   3.495   7.703 -0.6164 -0.0959  0.1852
   26MOL    C70 8120   5.526   3.412   7.609  0.8222  0.4011  0.0739
   26MOL    C71 8121   5.753   3.465   7.720  0.0810 -0.1905  0.7042
   26MOL    H72 8122   5.795   3.802   7.698 -0.0308 -0.6220 -1.0195
   26MOL    H73 8123   5.691   3.920   7.778  0.0072 -1.5702  1.4248
   26MOL    H74 8124   5.670   3.693   0.031 -0.1020 -2.2584  0.1715
   26MOL    H75 8125   5.558   3.491   7.801 -1.4419  2.1780 -0.0745
   26MOL    H76 8126   5.419   3.422   7.629  0.9209  1.8717 -0.0791
   26MOL    H77 8127   5.528   3.435   7.503 -0.4927 -0.1632 -0.0797
   26MOL    H78 8128   5.549   3.305   7.616  0.6493  0.3712  0.1836
   26MOL    H79 8129   5.790   3.495   7.819 -0.4592 -0.4916  0.9975
   26MOL    H80 8130   5.807   3.521   7.644 -0.8000 -0.9789 -0.5187
   26MOL    H81 8131   5.769   3.359   7.701 -0.6601  0.1700 -2.1190
   26MOL    C82 8132   5.472   3.763   7.819 -0.0412 -0.0986  0.0602
   26MOL    C83 8133   5.458   3.873   0.106  0.2980 -0.0467  0.4363
   26MOL    O84 8134   5.318   3.905   0.132 -0.1933 -0.4853 -0.5447
   26MOL    C85 8135   5.269   4.011   0.057 -0.1021 -0.4811  0.5113
   26MOL    C86 8136   5.293   4.151   0.113  0.1166  0.1756  0.0094
   26MOL    C87 8137   5.121   3.993   0.050  0.5569 -0.2419 -0.4454
   26MOL    H88 8138   5.415   3.779   7.728 -2.0326 -0.9255  1.1321
   26MOL    H89 8139   5.430   3.677   0.051  0.5102  0.4165  1.3890
   26MOL    H90 8140   5.513   3.956   0.063  0.2307 -0.3862 -0.3032
   26MOL    H91 8141   5.312   4.010   7.777 -2.3679 -1.5803 -0.4903
   26MOL    H92 8142   5.237   4.230   0.063 -0.7405  0.4342  1.3764
   26MOL    H93 8143   5.255   4.151   0.215 -0.8050  0.5178 -0.3329
   26MOL    H94 8144   5.399   4.177   0.125  0.1984 -0.5219  0.7650
   26MOL    H95 8145   5.073   4.038   0.137 -0.4696 -0.8473 -0.6813
   26MOL    H96 8146   5.076   4.055   7.792  1.2618  0.2918 -0.4271
   26MOL    H97 8147   5.085   3.891   0.041  0.8619 -0.5773  1.8755
   26MOL    C98 8148   5.522   3.832   0.236 -0.1007 -0.2659  0.2747
   26MOL    C99 8149   5.565   3.950   0.332 -0.4286  0.3029 -0.1694
   26MOL   O100 8150   5.663   4.011   0.250  0.1090 -0.0119  0.1471
   26MOL   C101 8151   5.667   4.153   0.250 -0.2145  0.0099 -0.4682
   26MOL   C102 8152   5.674   4.208   0.107 -0.1445  0.3234  0.0566
   26MOL   C103 8153   5.788   4.193   0.337  0.2156 -0.0570  0.0395
   26MOL   H104 8154   5.462   3.760   0.291  0.1412  0.1859  1.1346
   26MOL   H105 8155   5.617   3.780   0.221  0.1127  0.2002 -0.0285
   26MOL   H106 8156   5.473   4.008   0.345  0.2580  1.2063  0.7632
   26MOL   H107 8157   5.570   4.183   0.289  0.1754  0.7076 -0.0365
   26MOL   H108 8158   5.588   4.187   0.043  1.1869 -2.4750 -0.9137
   26MOL   H109 8159   5.760   4.164   0.057  0.5210  3.1224 -1.3080
   26MOL   H110 8160   5.675   4.316   0.112 -1.1461  0.3388  0.1262
   26MOL   H111 8161   5.762   4.189   0.442  0.0001  2.5440  0.1130
   26MOL   H112 8162   5.817   4.297   0.320 -0.7020  0.3927  1.1872
   26MOL   H113 8163   5.874   4.128   0.318  0.6859  1.3645 -3.1499
   26MOL   C114 8164   5.615   3.898   0.473  0.2754  0.8127 -0.3505
   26MOL   C115 8165   5.494   3.859   0.566  0.4437 -0.1633 -0.2632
   26MOL   O116 8166   5.545   3.769   0.663  0.9661  0.0618  0.0830
   26MOL   C117 8167   5.539   3.629   0.631 -0.6235 -0.3656  0.1358
   26MOL   C118 8168   5.419   3.557   0.695  0.2361  0.4201  0.6727
   26MOL   C119 8169   5.669   3.569   0.687 -0.8839  0.5872  0.8881
   26MOL   H120 8170   5.674   3.970   0.530 -1.0940 -0.0375  2.2355
   26MOL   H121 8171   5.687   3.817   0.460 -1.2719 -0.3910 -1.6999
   26MOL   H122 8172   5.424   3.802   0.504  1.6679 -1.9278 -0.0503
   26MOL   H123 8173   5.544   3.612   0.523  1.0286 -0.2690  0.1845
   26MOL   H124 8174   5.328   3.605   0.659  0.3693  0.0997 -0.1156
   26MOL   H125 8175   5.424   3.563   0.803 -1.8491  3.0661  0.6724
   26MOL   H126 8176   5.400   3.453   0.670 -1.1232  0.6046  0.9200
   26MOL   H127 8177   5.687   3.580   0.793 -0.6828  0.6595  0.8457
   26MOL   H128 8178   5.748   3.613   0.625  0.8832 -3.6687 -0.0222
   26MOL   H129 8179   5.671   3.462   0.666 -0.8240  1.0475 -1.6840
   26MOL   C130 8180   5.429   3.985   0.635  0.2573  0.3961  0.2076
   26MOL   C131 8181   5.298   3.962   0.719 -0.8600 -0.0281  0.3594
   26MOL   O132 8182   5.186   3.991   0.638 -0.5458 -0.5448 -0.3575
   26MOL   C133 8183   5.152   3.918   0.523 -0.7622  0.4272 -0.3409
   26MOL   C134 8184   5.058   3.805   0.564  0.4625  0.1385  0.1191
   26MOL   C135 8185   5.090   4.033   0.435 -0.2083 -0.0736  0.3168
   26MOL   H136 8186   5.416   4.060   0.557 -0.4707  0.4359  0.3609
   26MOL   H137 8187   5.495   4.040   0.701  1.4243 -1.5524  0.6895
   26MOL   H138 8188   5.292   3.858   0.751 -0.1411  0.5035  2.2962
   26MOL   H139 8189   5.231   3.880   0.459  1.3188  2.6197  0.8553
   26MOL   H140 8190   4.985   3.834   0.639  0.2272  1.7107 -0.6931
   26MOL   H141 8191   5.105   3.713   0.599 -0.3813 -0.6497 -0.8054
   26MOL   H142 8192   5.006   3.769   0.475 -0.5670 -1.4775  1.3476
   26MOL   H143 8193   5.163   4.112   0.418  0.2019 -1.0576 -2.8694
   26MOL   H144 8194   5.051   4.000   0.339  2.7101 -1.1722 -0.5482
   26MOL   H145 8195   5.004   4.087   0.475  0.1508  1.3480 -0.7831
   26MOL   C146 8196   5.289   4.036   0.852 -0.3961 -0.2165  0.0984
   26MOL   C147 8197   5.148   4.023   0.924 -0.3899 -0.3251 -0.3523
   26MOL   O148 8198   5.162   4.018   1.067 -0.1491  0.3059  0.5775
   26MOL   C149 8199   5.205   3.889   1.122  0.1998 -1.3042  0.3807
   26MOL   C150 8200   5.074   3.816   1.160  0.9142  0.4134  0.2838
   26MOL   C151 8201   5.294   3.935   1.233 -0.1592 -0.3680  0.0696
   26MOL   H152 8202   5.310   4.142   0.849  4.4737 -1.1176 -1.0901
   26MOL   H153 8203   5.368   3.998   0.917  1.3196  1.9772 -0.6761
   26MOL   H154 8204   5.088   3.940   0.888  0.4555 -0.6412 -1.0382
   26MOL   H155 8205   5.267   3.841   1.046  1.6807 -1.7877  1.8679
   26MOL   H156 8206   5.089   3.713   1.192 -0.8984 -0.4875 -1.6850
   26MOL   H157 8207   5.005   3.819   1.075  2.2584 -1.4700 -0.9116
   26MOL   H158 8208   5.028   3.856   1.250  2.7166  1.0708  0.9261
   26MOL   H159 8209   5.389   3.982   1.207 -1.0502  1.8401  0.7134
   26MOL   H160 8210   5.315   3.847   1.294 -2.8376 -0.4713  0.8904
   26MOL   H161 8211   5.240   3.993   1.308  1.4280  0.1278  0.8478
   26MOL   C162 8212   5.066   4.158   0.901 -0.6285  0.0245 -0.0434
   26MOL   C163 8213   4.913   4.138   0.920  0.0132  0.1661 -0.4981
   26MOL   O164 8214   4.853   4.263   0.944 -0.4450  0.0389 -0.5756
   26MOL   C165 8215   4.796   4.288   1.069  0.8396 -0.1550  0.3289
   26MOL   C166 8216   4.739   4.427   1.064  0.0625  0.1870 -0.2220
   26MOL   C167 8217   4.907   4.272   1.179  0.5833 -0.6135 -0.7047
   26MOL   H168 8218   5.102   4.237   0.966 -2.2338  1.3390 -0.7090
   26MOL   H169 8219   5.090   4.196   0.802 -0.8853  0.4613  0.0588
   26MOL   H170 8220   4.902   4.069   1.004  0.7963 -1.2695 -1.5407
   26MOL   H171 8221   4.714   4.219   1.090  0.1846  0.0757 -1.3818
   26MOL   H172 8222   4.670   4.457   1.143  0.1940  0.9332 -0.3878
   26MOL   H173 8223   4.682   4.448   0.974 -0.9828 -1.7583 -0.0482
   26MOL   H174 8224   4.821   4.498   1.073  1.4784 -1.0682 -2.5112
   26MOL   H175 8225   4.972   4.360   1.176  0.9667 -0.8627  0.1066
   26MOL   H176 8226   4.971   4.184   1.181  0.9947 -0.3098 -0.4275
   26MOL   H177 8227   4.858   4.277   1.277  3.4535 -1.9191  0.8485
   26MOL   C178 8228   4.848   4.076   0.795  0.8401 -0.3166  0.0835
   26MOL   C179 8229   4.702   4.016   0.813 -0.1679  0.5927 -0.2485
   26MOL   O180 8230   4.656   3.963   0.697 -0.3519  0.5345  0.1622
   26MOL   C181 8231   4.610   4.057   0.606 -0.0120  0.3326  0.1195
   26MOL   C182 8232   4.464   4.038   0.572  0.4355 -0.3518 -0.0237
   26MOL   C183 8233   4.698   4.028   0.488 -0.2152  0.0776  0.2390
   26MOL   H184 8234   4.913   3.995   0.764 -0.1337 -1.1753  0.2750
   26MOL   H185 8235   4.839   4.157   0.723  2.8786 -1.0290 -0.9903
   26MOL   H186 8236   4.644   4.096   0.858 -3.1167 -2.5447  1.8594
   26MOL   H187 8237   4.630   4.158   0.640  0.0962  0.2221  0.3824
   26MOL   H188 8238   4.407   4.051   0.664  2.7529  0.3474  1.3528
   26MOL   H189 8239   4.425   3.945   0.531 -0.9561  0.5172 -0.6723
   26MOL   H190 8240   4.431   4.120   0.509  2.2470 -0.4393 -1.1350
   26MOL   H191 8241   4.678   3.932   0.439  0.5800 -0.0301  0.1128
   26MOL   H192 8242   4.805   4.032   0.509 -0.5231  1.7400  1.5615
   26MOL   H193 8243   4.682   4.113   0.422  0.9306  2.1517  2.5844
   26MOL   C194 8244   4.702   3.899   0.909 -0.1731 -0.4632  0.0588
   26MOL   C195 8245   4.563   3.841   0.946 -0.0338 -0.3576  0.4832
   26MOL   O196 8246   4.485   3.947   1.013 -0.0593  0.7582 -0.2047
   26MOL   C197 8247   4.343   3.922   1.035 -0.5889  0.1392  0.8087
   26MOL   C198 8248   4.275   4.032   1.119 -0.0867 -0.1725  0.6122
   26MOL   C199 8249   4.267   3.907   0.903 -0.7286 -0.1073  0.0188
   26MOL   H200 8250   4.776   3.827   0.873 -1.2564 -0.9065 -1.3174
   26MOL   H201 8251   4.747   3.933   1.002  0.1033  2.7448 -1.1775
   26MOL   H202 8252   4.505   3.802   0.862  1.1990  0.1821 -0.6247
   26MOL   H203 8253   4.325   3.823   1.077  0.4332  0.0986  1.1600
   26MOL   H204 8254   4.271   4.135   1.084 -2.4721  0.1924  1.8313
   26MOL   H205 8255   4.182   4.010   1.173  0.1285 -1.3407  0.5352
   26MOL   H206 8256   4.342   4.036   1.205 -1.3570  0.8542  1.5877
   26MOL   H207 8257   4.269   4.002   0.848 -0.5494 -0.2192 -0.1703
   26MOL   H208 8258   4.297   3.825   0.837 -1.1598 -0.3974  0.1847
   26MOL   H209 8259   4.163   3.900   0.932 -0.6545 -1.8003 -0.0833
   26MOL   C210 8260   4.569   3.709   1.024 -0.2420 -0.7010 -0.0987
   26MOL   C211 8261   4.678   3.604   0.990  0.1392  0.8997  0.0590
   26MOL   O212 8262   4.660   3.485   1.078 -0.2337 -0.0808 -0.3316
   26MOL   C213 8263   4.763   3.462   1.177  0.9824 -0.3562 -0.5113
   26MOL   C214 8264   4.777   3.586   1.269 -0.4502 -0.4843 -0.1515
   26MOL   C215 8265   4.720   3.334   1.250  0.2028 -0.0565 -0.0013
   26MOL   H216 8266   4.473   3.658   1.027 -0.7020  0.2147  0.9606
   26MOL   H217 8267   4.585   3.744   1.126 -1.4191  1.3152 -0.5821
   26MOL   H218 8268   4.783   3.634   0.991  0.2221  0.6063  0.1557
   26MOL   H219 8269   4.855   3.436   1.124  0.2842 -2.7583 -0.6300
   26MOL   H220 8270   4.678   3.630   1.283 -1.1291 -1.9144 -0.3378
   26MOL   H221 8271   4.833   3.656   1.206 -0.0273 -0.5945  0.1026
   26MOL   H222 8272   4.819   3.583   1.369  1.4553 -1.9180 -0.9613
   26MOL   H223 8273   4.702   3.263   1.170  0.1748  0.8281 -0.7835
   26MOL   H224 8274   4.624   3.356   1.298 -0.2932  4.2819 -2.6997
   26MOL   H225 8275   4.789   3.301   1.327  1.0571 -0.4543 -0.9307
   26MOL   C226 8276   4.653   3.549   0.842  0.5970 -0.4654 -0.2610
   26MOL   C227 8277   4.755   3.442   0.810  0.0072 -0.3273 -0.3572
   26MOL   O228 8278   4.885   3.497   0.794 -0.5505  0.4112 -0.1133
   26MOL   C229 8279   4.993   3.429   0.855 -0.5654  0.0577  0.1603
   26MOL   C230 8280   5.076   3.536   0.934 -0.4117  0.3587  0.0344
   26MOL   C231 8281   5.073   3.360   0.748  0.1870  0.1825 -0.0762
   26MOL   H232 8282   4.649   3.629   0.768  1.8113 -0.2047 -0.0596
   26MOL   H233 8283   4.551   3.513   0.836 -0.1174  1.2806  1.1151
   26MOL   H234 8284   4.745   3.363   0.884 -0.1875 -0.4574 -0.5201
   26MOL   H235 8285   4.954   3.355   0.924 -0.8221 -1.0606 -1.1534
   26MOL   H236 8286   5.173   3.501   0.971 -1.2117  1.9587  3.9018
   26MOL   H237 8287   5.087   3.620   0.865  1.4765  0.5055  0.4691
   26MOL   H238 8288   5.007   3.573   1.009 -2.7459  0.7813 -2.2299
   26MOL   H239 8289   5.139   3.435   0.703 -0.9182  1.5467  0.5162
   26MOL   H240 8290   5.008   3.326   0.668 -0.3370  2.4718 -0.6653
   26MOL   H241 8291   5.136   3.277   0.780 -0.3125 -0.6658 -1.2445
   26MOL   C242 8292   4.726   3.371   0.673  0.5006 -0.1473  0.8016
   26MOL   C243 8293   4.579   3.328   0.641  0.3080 -0.4812  0.3657
   26MOL   O244 8294   4.558   3.219   0.738 -0.3123  0.0808 -0.6857
   26MOL   C245 8295   4.438   3.216   0.813  0.5592 -0.4970  0.5587
   26MOL   C246 8296   4.376   3.073   0.799  0.1196 -0.3887  0.1035
   26MOL   C247 8297   4.457   3.242   0.962 -0.0386  0.4748 -0.7250
   26MOL   H248 8298   4.751   3.436   0.590  1.9369 -0.2147  1.1701
   26MOL   H249 8299   4.799   3.291   0.665 -0.8161 -1.4094  1.0887
   26MOL   H250 8300   4.507   3.408   0.655  0.7107 -0.0895  0.2196
   26MOL   H251 8301   4.374   3.297   0.780 -1.3582 -2.4015 -0.4722
   26MOL   H252 8302   4.297   3.079   0.874 -1.4434  0.1808 -1.5402
   26MOL   H253 8303   4.322   3.052   0.707 -1.1598 -0.1398  0.7765
   26MOL   H254 8304   4.447   2.993   0.819 -0.5705 -0.8594  0.7176
   26MOL   H255 8305   4.525   3.172   1.010 -1.9601 -0.8710  0.0787
   26MOL   H256 8306   4.502   3.337   0.989 -1.8349  0.8606  1.0700
   26MOL   H257 8307   4.368   3.239   1.025 -0.1505 -1.3230 -0.9432
   26MOL   C258 8308   4.567   3.266   0.503  0.4074  0.0879 -0.1041
   26MOL   C259 8309   4.566   3.364   0.390  0.3064  0.0258 -0.1307
   26MOL   O260 8310   4.450   3.439   0.402 -0.4501 -0.7517 -0.2017
   26MOL   C261 8311   4.467   3.575   0.356  0.6269 -0.0754  0.4387
   26MOL   C262 8312   4.325   3.634   0.332 -0.6329 -0.3067 -0.5257
   26MOL   C263 8313   4.524   3.666   0.469 -0.5209  0.0650  0.7409
   26MOL   H264 8314   4.633   3.181   0.486 -0.7871 -0.9626  0.4627
   26MOL   H265 8315   4.473   3.211   0.499 -0.8313  2.0996  0.6213
   26MOL   H266 8316   4.652   3.430   0.404  0.3718  0.3892 -2.1958
   26MOL   H267 8317   4.522   3.588   0.263  1.2103  0.8521  0.9062
   26MOL   H268 8318   4.334   3.733   0.288  1.3056 -1.5155 -2.9705
   26MOL   H269 8319   4.262   3.645   0.420 -1.5622  0.0905 -1.2283
   26MOL   H270 8320   4.261   3.583   0.259  1.4446 -1.1157 -1.8421
   26MOL   H271 8321   4.547   3.765   0.431 -0.0224  0.5329  2.2361
   26MOL   H272 8322   4.453   3.679   0.551 -0.2511 -1.1103  1.1781
   26MOL   H273 8323   4.614   3.624   0.512 -0.4030  0.4156  0.8380
   26MOL   C274 8324   4.587   3.299   0.244 -0.4787 -0.2409  0.1086
   26MOL   C275 8325   4.725   3.241   0.225  0.1518  0.1642 -0.3688
   26MOL   O276 8326   4.738   3.197   0.089 -0.4355 -0.3043 -0.2435
   26MOL   C277 8327   4.716   3.064   0.064 -0.1969  0.4332  0.1817
   26MOL   C278 8328   4.852   3.006   0.004 -0.1559  0.2924  0.0400
   26MOL   C279 8329   4.599   3.061   7.788 -0.0759 -0.0863  0.3269
   26MOL   H280 8330   4.510   3.228   0.211  1.7209 -2.3733 -0.5856
   26MOL   H281 8331   4.577   3.381   0.173  0.8523 -1.4263 -1.4988
   26MOL   H282 8332   4.727   3.151   0.286  2.2204 -0.1415 -0.8551
   26MOL   H283 8333   4.702   3.007   0.156 -1.1320  1.0363  0.4285
   26MOL   H284 8334   4.920   2.988   0.087  0.7239  1.6359 -0.3718
   26MOL   H285 8335   4.823   2.909   7.783 -0.1380  0.9402 -1.5362
   26MOL   H286 8336   4.892   3.067   7.743 -2.2446  2.0124  0.2941
   26MOL   H287 8337   4.573   2.957   7.767  0.0858 -0.0666  0.0405
   26MOL   H288 8338   4.627   3.110   7.695  3.7316  2.8293  2.8503
   26MOL   H289 8339   4.512   3.120   7.817 -0.6138 -0.3451 -0.7195
   26MOL   C290 8340   4.842   3.341   0.249 -0.0518  0.1381  0.1716
   26MOL   C291 8341   4.981   3.289   0.222  0.9459  0.2446 -0.7123
   26MOL   O292 8342   5.077   3.392   0.244  0.3255  0.1302  0.4241
   26MOL   C293 8343   5.095   3.479   0.138  0.2864 -1.1627  0.3251
   26MOL   C294 8344   5.180   3.407   0.032  0.3741 -0.2754 -0.6452
   26MOL   C295 8345   5.170   3.607   0.190 -0.3611  0.5599 -0.5522
   26MOL   H296 8346   4.845   3.364   0.355  0.6557 -1.1009  0.4212
   26MOL   H297 8347   4.814   3.435   0.200 -1.4393 -0.4383 -0.1426
   26MOL   H298 8348   4.983   3.264   0.116 -0.1287  2.2643 -1.2432
   26MOL   H299 8349   5.000   3.515   0.097  0.8594  2.2840  1.9052
   26MOL   H300 8350   5.118   3.338   7.794 -0.8856  0.8044 -0.6180
   26MOL   H301 8351   5.225   3.477   7.783 -0.4633 -0.2543 -1.1784
   26MOL   H302 8352   5.261   3.347   0.073  1.0148  0.6248 -0.5852
   26MOL   H303 8353   5.125   3.635   0.285 -1.9705 -1.4440 -0.6932
   26MOL   H304 8354   5.271   3.580   0.218 -0.8849  1.4383  2.3123
   26MOL   H305 8355   5.171   3.681   0.110 -1.9151 -0.9274 -1.9909
   26MOL   C306 8356   5.015   3.172   0.316  0.4833  0.2500  0.7553
   26MOL   C307 8357   5.158   3.137   0.344 -0.3972 -0.0523 -0.0546
   26MOL   O308 8358   5.156   3.018   0.423  0.0976  0.0652 -0.2583
   26MOL   C309 8359   5.277   2.985   0.483 -0.2648  0.7601 -0.2639
   26MOL   C310 8360   5.252   2.900   0.607  0.3908 -0.0887 -0.4317
   26MOL   C311 8361   5.383   2.930   0.396  0.3052  0.5369  0.2416
   26MOL   H312 8362   4.960   3.081   0.290 -0.0177 -0.0330  2.7437
   26MOL   H313 8363   4.968   3.193   0.412  1.8389  1.1016  1.2398
   26MOL   H314 8364   5.204   3.115   0.247 -2.0855 -1.2090 -0.6063
   26MOL   H315 8365   5.306   3.080   0.528 -2.0982  0.7542  0.9756
   26MOL   H316 8366   5.339   2.914   0.670  0.5964  0.2290 -0.7866
   26MOL   H317 8367   5.237   2.796   0.579 -1.0444  0.2284 -0.9154
   26MOL   H318 8368   5.167   2.929   0.670  0.2507 -1.8020  0.2021
   26MOL   H319 8369   5.345   2.836   0.354 -0.7834  0.9096  0.3609
   26MOL   H320 8370   5.475   2.900   0.446  0.0284 -0.7416  0.0135
   26MOL   H321 8371   5.411   2.999   0.317  1.2701 -1.2655 -1.0403
   26MOL   H322 8372   5.219   3.221   0.379  3.1552 -2.6924  0.4279
   27MOL     C1 8373   3.683   0.406   3.952  0.1027 -0.7222  0.0500
   27MOL     C2 8374   3.622   0.494   4.058  0.0111  0.3265  0.1959
   27MOL     O3 8375   3.589   0.617   4.005 -0.0048 -0.0203 -0.3878
   27MOL     C4 8376   3.688   0.725   4.014  0.3422 -0.0678  0.5544
   27MOL     C5 8377   3.623   0.847   4.075  0.4907 -0.4047  0.4244
   27MOL     C6 8378   3.728   0.752   3.870  0.3075 -0.5300 -0.4960
   27MOL     H7 8379   3.781   0.454   3.948 -0.2824 -0.0115 -0.8685
   27MOL     H8 8380   3.693   0.298   3.965 -0.1292 -0.6141  1.1759
   27MOL     H9 8381   3.687   0.503   4.145 -0.1528  0.5282  0.3005
   27MOL    H10 8382   3.775   0.695   4.073  0.1221 -0.9070  0.4695
   27MOL    H11 8383   3.681   0.939   4.081  1.8270 -1.0349 -2.2686
   27MOL    H12 8384   3.528   0.867   4.025  0.6799 -1.8048 -0.5325
   27MOL    H13 8385   3.604   0.816   4.178 -1.3613 -0.8022 -0.0095
   27MOL    H14 8386   3.818   0.695   3.850  2.4702  1.5574  2.7474
   27MOL    H15 8387   3.636   0.744   3.813 -0.1262 -2.4821  0.4440
   27MOL    H16 8388   3.766   0.854   3.872 -1.6699  0.2632 -1.4402
   27MOL    H17 8389   3.637   0.413   3.854  0.0921  0.8533  0.1514
   27MOL    C18 8390   3.497   0.426   4.107  0.0624  0.2046  0.0728
   27MOL    C19 8391   3.446   0.472   4.246 -0.6881 -0.7852  0.3109
   27MOL    O20 8392   3.555   0.459   4.342  0.4255 -0.0188  0.0444
   27MOL    C21 8393   3.555   0.525   4.469 -0.6629 -0.2297 -0.3618
   27MOL    C22 8394   3.680   0.625   4.474 -0.5225  0.4776 -0.0931
   27MOL    C23 8395   3.574   0.404   4.571  0.2095 -0.0449 -0.9169
   27MOL    H24 8396   3.413   0.444   4.040 -1.4308 -1.2245  1.4980
   27MOL    H25 8397   3.514   0.319   4.110 -1.4115 -0.1749 -2.8939
   27MOL    H26 8398   3.428   0.579   4.238 -1.0357 -0.9464 -1.2385
   27MOL    H27 8399   3.462   0.577   4.493 -0.2297  0.1080  0.5825
   27MOL    H28 8400   3.693   0.668   4.573  1.1222  0.2660 -0.2061
   27MOL    H29 8401   3.772   0.568   4.460 -0.9111 -0.0448 -0.5482
   27MOL    H30 8402   3.687   0.709   4.404  0.3372  0.0580 -0.5130
   27MOL    H31 8403   3.489   0.337   4.573 -1.1788  1.7058  1.7012
   27MOL    H32 8404   3.587   0.438   4.674 -1.2604  2.0802 -1.3911
   27MOL    H33 8405   3.667   0.354   4.542  0.1287  0.5116 -2.1914
   27MOL    C34 8406   3.328   0.388   4.294 -1.1170  0.2719  0.4835
   27MOL    C35 8407   3.200   0.374   4.198 -0.3179  0.8233  0.1621
   27MOL    O36 8408   3.110   0.276   4.258 -0.0091 -0.3936  0.1955
   27MOL    C37 8409   3.035   0.192   4.175 -0.0168 -0.6909  0.8779
   27MOL    C38 8410   3.117   0.076   4.120 -0.2894  0.0210 -0.1277
   27MOL    C39 8411   2.927   0.150   4.259  0.2102 -0.2613 -0.0288
   27MOL    H40 8412   3.296   0.436   4.386  2.0442  1.1759  1.1861
   27MOL    H41 8413   3.371   0.291   4.320  1.8155  1.1929 -0.7687
   27MOL    H42 8414   3.236   0.328   4.107  1.0432  1.4427  0.3803
   27MOL    H43 8415   2.992   0.238   4.086  2.3970 -2.6873 -1.3687
   27MOL    H44 8416   3.205   0.100   4.060 -1.5199 -0.7844 -2.2819
   27MOL    H45 8417   3.065   7.813   4.074 -0.6494 -1.8731  3.5526
   27MOL    H46 8418   3.159   0.024   4.206  0.8948  0.9841 -0.0969
   27MOL    H47 8419   2.874   0.224   4.319  2.7922  1.0645  0.6921
   27MOL    H48 8420   2.843   0.108   4.204 -0.3709 -1.9635  2.0738
   27MOL    H49 8421   2.951   0.075   4.335  0.1604  1.2904  1.5469
   27MOL    C50 8422   3.115   0.505   4.189 -0.2625 -0.8794 -0.1383
   27MOL    C51 8423   3.019   0.520   4.066  0.2233 -0.0044  0.6862
   27MOL    O52 8424   3.102   0.494   3.946  0.1854  0.4152 -0.2029
   27MOL    C53 8425   3.045   0.428   3.836  0.2924  0.5035 -0.6636
   27MOL    C54 8426   3.156   0.388   3.740  0.2145 -0.2567 -0.8071
   27MOL    C55 8427   2.928   0.508   3.781 -0.0210  0.0419  0.0039
   27MOL    H56 8428   3.077   0.517   4.291  1.4512  0.6902  0.3378
   27MOL    H57 8429   3.181   0.591   4.182  0.2340 -1.1831  0.6972
   27MOL    H58 8430   2.931   0.456   4.068 -0.5723  1.0503 -0.1337
   27MOL    H59 8431   2.992   0.341   3.874  0.8232 -0.3894 -1.9417
   27MOL    H60 8432   3.209   0.474   3.700 -0.1508  0.3716  0.0337
   27MOL    H61 8433   3.119   0.323   3.661  0.3871  1.0276 -1.9501
   27MOL    H62 8434   3.219   0.315   3.792 -0.4343 -1.1986 -1.3176
   27MOL    H63 8435   2.953   0.613   3.767 -0.4748  0.8095  4.1589
   27MOL    H64 8436   2.837   0.509   3.840 -0.5114 -0.1364 -0.7474
   27MOL    H65 8437   2.907   0.470   3.681 -1.1670  2.6355 -0.7719
   27MOL    C66 8438   2.967   0.660   4.057  0.2108 -0.5050 -0.4590
   27MOL    C67 8439   2.886   0.721   4.173  0.1489  0.1070  0.3756
   27MOL    O68 8440   2.776   0.632   4.207 -1.0414  0.9970 -0.0160
   27MOL    C69 8441   2.767   0.596   4.343 -0.9195  0.7921 -0.2672
   27MOL    C70 8442   2.738   0.710   4.446 -0.1277 -0.2965  0.4657
   27MOL    C71 8443   2.645   0.497   4.343 -0.2929  0.3381 -0.0678
   27MOL    H72 8444   3.051   0.727   4.041 -0.5668  0.7190  0.4581
   27MOL    H73 8445   2.904   0.667   3.968  0.5551 -0.6559 -0.7138
   27MOL    H74 8446   2.946   0.729   4.264 -0.2124  0.6140  0.5717
   27MOL    H75 8447   2.856   0.542   4.375 -1.5170  1.2982  2.3468
   27MOL    H76 8448   2.637   0.747   4.430 -0.4356 -1.3860 -0.1704
   27MOL    H77 8449   2.739   0.672   4.548  0.3486 -1.5793 -0.0074
   27MOL    H78 8450   2.802   0.798   4.438  0.2155 -0.4722  1.1685
   27MOL    H79 8451   2.662   0.407   4.285 -2.3214  0.1304 -0.3807
   27MOL    H80 8452   2.547   0.540   4.320 -0.6560 -0.0691  0.6755
   27MOL    H81 8453   2.628   0.455   4.443 -1.5397  1.0304  0.0216
   27MOL    C82 8454   2.818   0.853   4.130  0.8044  0.6774  0.8071
   27MOL    C83 8455   2.873   0.977   4.210  1.1103  0.8319 -0.3965
   27MOL    O84 8456   3.014   0.976   4.180 -0.0514  0.5626  0.1581
   27MOL    C85 8457   3.111   1.021   4.271 -0.6101 -0.6635  0.9772
   27MOL    C86 8458   3.236   1.031   4.187 -0.3867 -0.2347  0.4801
   27MOL    C87 8459   3.153   0.919   4.387  0.2206 -0.2186 -0.4626
   27MOL    H88 8460   2.827   0.870   4.023  0.1750  1.6897  0.9111
   27MOL    H89 8461   2.713   0.859   4.158  0.5157 -1.4765  0.2354
   27MOL    H90 8462   2.875   0.964   4.318  0.2925  2.9278 -0.0980
   27MOL    H91 8463   3.087   1.121   4.307 -1.4690 -0.4523 -0.1704
   27MOL    H92 8464   3.217   1.096   4.101  1.4556  1.6461  1.4466
   27MOL    H93 8465   3.318   1.079   4.241 -0.4641 -0.5347  0.8584
   27MOL    H94 8466   3.259   0.929   4.158  2.8053  0.7211 -0.6051
   27MOL    H95 8467   3.073   0.905   4.459  1.2541  0.8565  0.9158
   27MOL    H96 8468   3.187   0.819   4.359  2.7304  0.0866  1.3287
   27MOL    H97 8469   3.234   0.964   4.445  0.1612 -0.3310 -0.2944
   27MOL    C98 8470   2.821   1.113   4.163 -0.1777  0.2345  0.9006
   27MOL    C99 8471   2.669   1.125   4.181  0.3762 -0.8618 -0.5293
   27MOL   O100 8472   2.588   1.061   4.080  0.6521 -0.5451 -0.2271
   27MOL   C101 8473   2.601   1.111   3.944 -0.8116  0.6454  0.0384
   27MOL   C102 8474   2.470   1.187   3.908 -0.3435  1.0300  0.3672
   27MOL   C103 8475   2.637   1.002   3.845  0.1450  0.1563  0.4000
   27MOL   H104 8476   2.871   1.184   4.229 -1.0849  1.8579 -0.1347
   27MOL   H105 8477   2.867   1.134   4.067 -0.1227  0.7517  1.0343
   27MOL   H106 8478   2.656   1.069   4.274 -2.4264 -0.3407 -0.5553
   27MOL   H107 8479   2.675   1.191   3.951  0.8744 -0.9853  1.1073
   27MOL   H108 8480   2.461   1.275   3.971 -2.7917  0.0348  1.4892
   27MOL   H109 8481   2.377   1.130   3.913  1.2805 -1.7905 -0.2275
   27MOL   H110 8482   2.474   1.218   3.804 -2.5937 -0.6226 -0.2618
   27MOL   H111 8483   2.626   1.027   3.740 -0.8801 -0.0084  0.4551
   27MOL   H112 8484   2.576   0.911   3.856 -4.0034  2.8151  0.5949
   27MOL   H113 8485   2.744   0.986   3.846  0.4468  2.1252 -0.1714
   27MOL   C114 8486   2.637   1.264   4.217 -0.4376 -0.2998 -0.2146
   27MOL   C115 8487   2.490   1.285   4.272  0.2582  0.3158 -0.1501
   27MOL   O116 8488   2.462   1.203   4.388  0.1821  0.8525  0.0559
   27MOL   C117 8489   2.361   1.104   4.372 -0.0145 -0.7146 -0.5633
   27MOL   C118 8490   2.227   1.161   4.415 -0.2209 -0.0824 -0.0531
   27MOL   C119 8491   2.403   0.991   4.463  0.0547 -0.4816 -0.2436
   27MOL   H120 8492   2.647   1.332   4.132 -1.2805 -0.8186 -0.7267
   27MOL   H121 8493   2.711   1.303   4.288 -1.5065  1.8342 -0.2320
   27MOL   H122 8494   2.423   1.270   4.187  0.2867  3.1015 -0.7047
   27MOL   H123 8495   2.359   1.064   4.270  3.6138  0.0054 -0.9876
   27MOL   H124 8496   2.205   1.259   4.371  1.4334  0.0496 -0.6172
   27MOL   H125 8497   2.223   1.183   4.522 -0.8360  1.2685 -0.3388
   27MOL   H126 8498   2.148   1.087   4.405  1.3088 -1.9400  1.3281
   27MOL   H127 8499   2.365   0.898   4.421  0.8023 -0.0281 -1.9607
   27MOL   H128 8500   2.358   0.996   4.562 -2.2673 -2.6975 -1.1176
   27MOL   H129 8501   2.511   0.978   4.461  0.3243  1.4043  0.9371
   27MOL   C130 8502   2.477   1.430   4.321  0.0070 -0.7061  0.0822
   27MOL   C131 8503   2.469   1.538   4.217 -0.6789  0.1094  0.6924
   27MOL   O132 8504   2.592   1.558   4.144 -0.0363  0.0115 -0.6100
   27MOL   C133 8505   2.593   1.622   4.016  0.1466  0.1661 -1.0122
   27MOL   C134 8506   2.708   1.717   4.003 -0.1582 -0.2962  0.3059
   27MOL   C135 8507   2.581   1.513   3.910  0.4877  0.0077  0.3789
   27MOL   H136 8508   2.552   1.451   4.398  1.2847  1.7799 -1.7738
   27MOL   H137 8509   2.386   1.441   4.379  0.7931 -0.0742  1.2035
   27MOL   H138 8510   2.397   1.518   4.137  0.9739  0.6252 -0.9428
   27MOL   H139 8511   2.507   1.684   3.992 -1.7824 -1.5839  1.0897
   27MOL   H140 8512   2.700   1.760   3.903  2.9320 -1.2725 -0.4264
   27MOL   H141 8513   2.797   1.655   4.014 -0.2210 -0.1537  1.6783
   27MOL   H142 8514   2.703   1.796   4.078 -1.0352 -0.1866  0.1393
   27MOL   H143 8515   2.474   1.496   3.900  0.4599 -0.3051  1.2055
   27MOL   H144 8516   2.611   1.542   3.809  0.0572  0.4680  0.3840
   27MOL   H145 8517   2.651   1.432   3.932  0.4575  0.1638  1.0375
   27MOL   C146 8518   2.447   1.678   4.279 -0.3854  0.8972 -0.0941
   27MOL   C147 8519   2.344   1.697   4.397 -0.2996  0.5376 -0.1726
   27MOL   O148 8520   2.341   1.832   4.436  0.3378  0.5700  0.1956
   27MOL   C149 8521   2.441   1.874   4.523 -0.3657  0.2700 -0.1552
   27MOL   C150 8522   2.389   1.873   4.669 -0.2016  0.2847 -0.5583
   27MOL   C151 8523   2.491   2.012   4.466 -0.3436 -0.1416  0.6001
   27MOL   H152 8524   2.409   1.750   4.206  0.2946  0.5511 -0.7893
   27MOL   H153 8525   2.540   1.728   4.303  0.0405 -0.1220  0.3762
   27MOL   H154 8526   2.365   1.626   4.477  1.4849 -0.5432 -1.5667
   27MOL   H155 8527   2.530   1.812   4.512  0.7138  1.4993  1.3118
   27MOL   H156 8528   2.475   1.883   4.735 -0.2727 -3.1973  0.1530
   27MOL   H157 8529   2.339   1.778   4.686  1.2533 -0.1949  1.1646
   27MOL   H158 8530   2.312   1.944   4.699 -2.0975 -1.3191 -1.5423
   27MOL   H159 8531   2.532   1.992   4.367  0.1928  0.4082  0.7028
   27MOL   H160 8532   2.571   2.063   4.522 -1.7597  1.1588  1.4722
   27MOL   H161 8533   2.414   2.088   4.453 -0.7559 -1.0376 -2.3787
   27MOL   C162 8534   2.197   1.672   4.353  0.5744  0.0611  0.1612
   27MOL   C163 8535   2.098   1.678   4.468  0.2384 -0.0839 -0.7230
   27MOL   O164 8536   1.970   1.652   4.411 -0.3620 -0.0172 -0.4014
   27MOL   C165 8537   1.889   1.761   4.385  0.4069  1.1378  0.6645
   27MOL   C166 8538   1.815   1.819   4.508  0.1380  0.0144  0.2331
   27MOL   C167 8539   1.796   1.723   4.275  0.1783  0.9176  0.0219
   27MOL   H168 8540   2.162   1.736   4.271  1.0004  0.3402  0.1995
   27MOL   H169 8541   2.199   1.571   4.312  0.4988  0.3958 -0.6764
   27MOL   H170 8542   2.100   1.776   4.516  0.1703  0.7005 -2.2776
   27MOL   H171 8543   1.953   1.833   4.333  0.7814 -0.8484 -1.7329
   27MOL   H172 8544   1.881   1.853   4.587  1.3395  1.5213 -1.3731
   27MOL   H173 8545   1.727   1.766   4.544  1.2468 -1.0360  1.4490
   27MOL   H174 8546   1.765   1.911   4.476  0.4832 -0.6942 -2.4888
   27MOL   H175 8547   1.742   1.636   4.313  0.5206  0.5754 -0.2582
   27MOL   H176 8548   1.840   1.689   4.182  0.4540  0.7878  0.1990
   27MOL   H177 8549   1.715   1.790   4.247 -0.9281 -0.2418  0.3808
   27MOL   C178 8550   2.136   1.558   4.559 -0.2875 -0.6727  0.6847
   27MOL   C179 8551   2.053   1.536   4.689  0.0399 -0.0214  0.0337
   27MOL   O180 8552   2.069   1.405   4.756 -0.1322  0.4445 -0.5207
   27MOL   C181 8553   2.019   1.290   4.690 -0.5666  0.9633 -0.1725
   27MOL   C182 8554   1.872   1.262   4.728 -0.0539  0.1552 -0.5198
   27MOL   C183 8555   2.109   1.181   4.751  0.5240  0.4923 -0.1037
   27MOL   H184 8556   2.237   1.544   4.599  0.8763  0.6352 -1.6638
   27MOL   H185 8557   2.126   1.468   4.499  1.5290 -2.0621  2.4044
   27MOL   H186 8558   1.947   1.557   4.670 -0.5014 -1.3677  1.4384
   27MOL   H187 8559   2.031   1.288   4.582  0.3056  1.3255 -0.0828
   27MOL   H188 8560   1.792   1.330   4.700 -0.4487 -0.8385 -1.8645
   27MOL   H189 8561   1.867   1.254   4.837 -1.0138  2.0737 -0.3984
   27MOL   H190 8562   1.847   1.161   4.695 -1.5759  0.7848 -1.3637
   27MOL   H191 8563   2.094   1.082   4.709 -0.4357  1.4900 -2.1502
   27MOL   H192 8564   2.094   1.177   4.859  2.6851  0.7178  0.2316
   27MOL   H193 8565   2.214   1.207   4.745  0.7008 -0.2256 -0.1330
   27MOL   C194 8566   2.102   1.640   4.801  0.0273 -0.1374 -0.2193
   27MOL   C195 8567   2.018   1.639   4.931 -0.2687  0.0368  0.3335
   27MOL   O196 8568   2.034   1.762   4.992  0.0685 -0.1040 -0.0935
   27MOL   C197 8569   1.920   1.841   5.011 -0.0407 -0.3559  0.3481
   27MOL   C198 8570   1.952   1.950   5.118 -1.0951  0.0179 -0.8500
   27MOL   C199 8571   1.873   1.913   4.882 -0.4052 -0.3297 -0.6602
   27MOL   H200 8572   2.204   1.619   4.832  0.4169  1.9983  0.0429
   27MOL   H201 8573   2.124   1.742   4.771 -0.5614 -0.8377 -3.1867
   27MOL   H202 8574   1.913   1.620   4.911  0.2008 -1.0476 -1.2004
   27MOL   H203 8575   1.837   1.783   5.050 -0.9534  1.0368  0.5157
   27MOL   H204 8576   1.866   2.017   5.133 -1.3573  0.0400 -2.3439
   27MOL   H205 8577   1.986   1.888   5.200 -3.1723  1.9803  1.5922
   27MOL   H206 8578   2.031   2.015   5.081  0.0850 -0.3412  1.0097
   27MOL   H207 8579   1.854   1.834   4.811 -0.5386 -1.7985  0.9684
   27MOL   H208 8580   1.791   1.984   4.891 -1.9191 -1.9301 -1.6288
   27MOL   H209 8581   1.958   1.972   4.848 -0.0606 -0.8941 -0.7785
   27MOL   C210 8582   2.067   1.532   5.034 -0.2168 -0.1646 -0.5106
   27MOL   C211 8583   1.978   1.510   5.163  0.0480  0.1941  0.5308
   27MOL   O212 8584   1.835   1.520   5.130 -0.4147 -0.0463  0.3436
   27MOL   C213 8585   1.742   1.487   5.231  0.5905 -0.4135 -0.1505
   27MOL   C214 8586   1.642   1.598   5.251  0.6545  0.4063 -0.2673
   27MOL   C215 8587   1.679   1.356   5.188 -0.1376  0.0576 -0.4810
   27MOL   H216 8588   2.171   1.556   5.058 -0.7716  2.2286 -0.3451
   27MOL   H217 8589   2.080   1.439   4.979 -0.8762 -0.5606  0.0078
   27MOL   H218 8590   2.001   1.589   5.234  0.1220  0.2802  0.4113
   27MOL   H219 8591   1.787   1.486   5.330  2.7289 -0.5950 -1.0991
   27MOL   H220 8592   1.596   1.628   5.157  1.6307 -0.4492 -1.0203
   27MOL   H221 8593   1.713   1.678   5.274 -0.6378  1.6936 -0.6892
   27MOL   H222 8594   1.563   1.560   5.317 -1.0065 -0.8248 -2.8952
   27MOL   H223 8595   1.664   1.352   5.081  0.2026 -0.4217 -0.5115
   27MOL   H224 8596   1.582   1.344   5.237  0.7535  3.5447  2.4360
   27MOL   H225 8597   1.750   1.281   5.223  0.9919  1.6934  0.8190
   27MOL   C226 8598   2.016   1.375   5.229 -0.4267 -0.3697  0.1071
   27MOL   C227 8599   2.165   1.357   5.270 -0.7673  1.3176 -0.0723
   27MOL   O228 8600   2.201   1.215   5.257 -0.2401  0.1282 -0.3177
   27MOL   C229 8601   2.342   1.198   5.221  0.5513  0.0039  0.0616
   27MOL   C230 8602   2.348   1.200   5.067 -0.3800  1.4362  0.1916
   27MOL   C231 8603   2.380   1.060   5.273  0.1769 -0.7218 -0.5585
   27MOL   H232 8604   1.989   1.300   5.154  0.2655  2.0052 -2.6005
   27MOL   H233 8605   1.960   1.347   5.318 -0.1805 -0.3649  0.2615
   27MOL   H234 8606   2.229   1.420   5.208  1.0766 -1.1444 -0.7356
   27MOL   H235 8607   2.413   1.272   5.260  0.3803  1.4066 -2.1770
   27MOL   H236 8608   2.311   1.289   5.017 -0.8063  0.8497 -0.5376
   27MOL   H237 8609   2.451   1.182   5.036 -0.3400  0.6262  0.7802
   27MOL   H238 8610   2.288   1.121   5.023 -0.6897  1.2094  1.0191
   27MOL   H239 8611   2.477   1.031   5.232  0.6120  0.7114 -0.5494
   27MOL   H240 8612   2.303   0.996   5.229 -0.8594 -1.9416  2.8547
   27MOL   H241 8613   2.377   1.058   5.382  0.8564 -0.6877 -0.5348
   27MOL   C242 8614   2.183   1.399   5.417 -0.3069  0.7372  0.8758
   27MOL   C243 8615   2.116   1.304   5.524 -0.1647 -1.0099  0.0990
   27MOL   O244 8616   2.049   1.385   5.618  0.2465 -0.3246  0.1731
   27MOL   C245 8617   1.914   1.420   5.591  0.2705 -0.2039 -0.6062
   27MOL   C246 8618   1.816   1.298   5.586  0.1392 -0.4964  0.0269
   27MOL   C247 8619   1.887   1.537   5.681 -0.0702 -0.8368 -0.2816
   27MOL   H248 8620   2.289   1.405   5.442  0.2056  0.9461 -1.2546
   27MOL   H249 8621   2.143   1.500   5.423 -1.0210  0.4099  1.7406
   27MOL   H250 8622   2.042   1.243   5.472  0.4038 -0.6442 -1.1610
   27MOL   H251 8623   1.919   1.463   5.491 -1.5503  1.5492  0.0293
   27MOL   H252 8624   1.833   1.220   5.512 -1.2252  0.1191 -0.9478
   27MOL   H253 8625   1.816   1.246   5.682 -4.4719 -2.1825 -0.7685
   27MOL   H254 8626   1.714   1.333   5.575 -0.2044 -1.1301  1.0604
   27MOL   H255 8627   1.788   1.575   5.656  0.6000 -0.0836 -1.8074
   27MOL   H256 8628   1.910   1.505   5.783  2.6153  2.0837  0.0731
   27MOL   H257 8629   1.947   1.624   5.658  0.4013 -0.8258  0.9403
   27MOL   C258 8630   2.212   1.220   5.617 -0.4103  0.3181 -0.1431
   27MOL   C259 8631   2.142   1.117   5.704 -0.3200  0.1793 -0.4658
   27MOL   O260 8632   2.238   1.086   5.802 -0.5182  0.1719  0.5276
   27MOL   C261 8633   2.268   1.176   5.906  1.2834 -0.2386 -0.0837
   27MOL   C262 8634   2.231   1.105   6.042 -0.0296 -0.9164  0.2294
   27MOL   C263 8635   2.413   1.190   5.896 -0.1291 -0.3846 -0.5076
   27MOL   H264 8636   2.284   1.167   5.555 -0.8206 -0.2085 -0.1675
   27MOL   H265 8637   2.267   1.294   5.675  2.3078 -0.0365 -2.1471
   27MOL   H266 8638   2.059   1.170   5.750  1.8475  2.3919  1.0595
   27MOL   H267 8639   2.217   1.272   5.901  0.8580 -0.4554  0.0757
   27MOL   H268 8640   2.138   1.049   6.048 -0.6377 -0.3895 -2.9956
   27MOL   H269 8641   2.232   1.176   6.125  2.0749 -0.8034  0.1271
   27MOL   H270 8642   2.308   1.035   6.074 -0.6240 -1.8057 -0.2508
   27MOL   H271 8643   2.460   1.092   5.907  0.8519  0.1886  0.4598
   27MOL   H272 8644   2.449   1.231   5.802 -0.7726  3.0971  0.6963
   27MOL   H273 8645   2.462   1.253   5.970 -0.9025 -0.5012  0.1222
   27MOL   C274 8646   2.088   0.991   5.620 -0.5543 -0.5051 -0.2795
   27MOL   C275 8647   1.997   0.908   5.698 -0.2815 -0.2350 -0.1670
   27MOL   O276 8648   1.873   0.974   5.709 -0.0968 -0.1846  0.2808
   27MOL   C277 8649   1.808   0.952   5.835  0.3095 -0.0048  0.0546
   27MOL   C278 8650   1.659   0.959   5.812  0.1436  0.4560  0.1873
   27MOL   C279 8651   1.861   1.060   5.932 -0.1597 -0.6618 -0.7626
   27MOL   H280 8652   2.037   1.028   5.531  0.9881 -0.4139 -1.1382
   27MOL   H281 8653   2.183   0.943   5.596  1.0067  2.0169  0.7273
   27MOL   H282 8654   2.039   0.898   5.798 -2.3274  0.5894  0.7997
   27MOL   H283 8655   1.833   0.852   5.870  2.1345 -0.2180 -1.7427
   27MOL   H284 8656   1.605   0.954   5.906 -1.1103  0.4089 -0.5229
   27MOL   H285 8657   1.623   1.053   5.769  2.4613  0.2533 -2.3631
   27MOL   H286 8658   1.630   0.868   5.760  0.9661 -0.1253  0.7385
   27MOL   H287 8659   1.969   1.058   5.943 -0.2116 -1.5026 -0.3693
   27MOL   H288 8660   1.811   1.051   6.029 -0.5306 -0.4627 -0.9352
   27MOL   H289 8661   1.843   1.157   5.886 -0.0473  0.9099  2.3791
   27MOL   C290 8662   1.972   0.772   5.622  0.2927  0.4010 -0.0447
   27MOL   C291 8663   2.089   0.669   5.628 -0.9614  0.0753 -0.0446
   27MOL   O292 8664   2.128   0.654   5.763 -0.1737 -0.1999  0.3414
   27MOL   C293 8665   2.271   0.644   5.794  0.1766 -0.2763  0.4656
   27MOL   C294 8666   2.333   0.785   5.789  0.4647 -0.5454 -0.2787
   27MOL   C295 8667   2.342   0.538   5.711 -0.2743 -0.1039  0.2064
   27MOL   H296 8668   1.939   0.797   5.521 -0.1425  2.3640  0.5547
   27MOL   H297 8669   1.887   0.725   5.670 -0.0938  0.5148 -0.6186
   27MOL   H298 8670   2.171   0.710   5.569 -0.1393  0.1133  1.1096
   27MOL   H299 8671   2.284   0.621   5.900  1.4209  0.4788  0.4930
   27MOL   H300 8672   2.431   0.789   5.837  0.5448 -0.4551 -0.4483
   27MOL   H301 8673   2.344   0.835   5.693  1.6865 -1.2521 -0.5049
   27MOL   H302 8674   2.264   0.845   5.849 -1.4895 -1.2715 -1.7708
   27MOL   H303 8675   2.449   0.539   5.729  0.0941  0.3376 -1.9030
   27MOL   H304 8676   2.308   0.437   5.735 -1.9342  0.4192  0.1449
   27MOL   H305 8677   2.343   0.569   5.606 -0.8178 -0.3776  0.1174
   27MOL   C306 8678   2.055   0.528   5.569 -0.2186  0.4955  0.3531
   27MOL   C307 8679   2.028   0.528   5.411  0.0640 -0.1038  0.0548
   27MOL   O308 8680   2.010   0.391   5.363  0.4554 -0.4553 -0.0677
   27MOL   C309 8681   1.972   0.381   5.230  0.3215 -0.3814  0.0294
   27MOL   C310 8682   1.973   0.234   5.187 -0.3252 -0.0061 -0.2316
   27MOL   C311 8683   1.829   0.439   5.207 -0.0256  0.5209  0.3805
   27MOL   H312 8684   1.973   0.489   5.629 -0.1576 -0.5461 -0.2303
   27MOL   H313 8685   2.129   0.451   5.588 -2.5293 -1.6321  0.9503
   27MOL   H314 8686   1.940   0.584   5.382 -1.2211 -2.3971 -0.5571
   27MOL   H315 8687   2.043   0.439   5.172  0.4763 -0.2964  0.3039
   27MOL   H316 8688   1.954   0.214   5.082  1.1961 -0.0692 -0.4937
   27MOL   H317 8689   1.888   0.187   5.238 -1.1915  0.1988 -1.4592
   27MOL   H318 8690   2.066   0.183   5.213 -1.5966 -2.3294 -0.0841
   27MOL   H319 8691   1.793   0.416   5.107 -2.9440  1.4143  1.1790
   27MOL   H320 8692   1.803   0.543   5.226 -0.9007  0.3605  0.0884
   27MOL   H321 8693   1.754   0.386   5.266 -0.4544  2.2679  1.4589
   27MOL   H322 8694   2.106   0.575   5.351  0.0525  0.1560  0.2397
   28MOL     C1 8695   3.048   0.991   7.518  0.2778  0.5887 -0.3744
   28MOL     C2 8696   2.916   1.041   7.471  0.2414  0.4713 -0.0739
   28MOL     O3 8697   2.823   0.945   7.441  0.1436 -0.0740 -0.2790
   28MOL     C4 8698   2.847   0.851   7.336 -0.4893  0.4355  0.1579
   28MOL     C5 8699   2.730   0.840   7.239  0.1003  0.0878 -0.0594
   28MOL     C6 8700   2.889   0.717   7.400 -0.1232  0.2924 -0.2810
   28MOL     H7 8701   3.035   0.918   7.598  2.2719  0.0115 -0.5518
   28MOL     H8 8702   3.115   0.937   7.452 -0.2162 -1.2735  0.6057
   28MOL     H9 8703   2.933   1.110   7.388 -0.1021  0.2120 -0.3601
   28MOL    H10 8704   2.929   0.897   7.280 -1.0385  1.1357 -0.0791
   28MOL    H11 8705   2.639   0.793   7.278  0.5431  1.1914  2.3491
   28MOL    H12 8706   2.704   0.939   7.199 -3.5956 -0.1497  1.4899
   28MOL    H13 8707   2.775   0.783   7.158 -0.4012  0.3765 -0.5535
   28MOL    H14 8708   2.806   0.666   7.448 -0.3397 -0.0504 -1.0143
   28MOL    H15 8709   2.912   0.636   7.330  0.9139  0.0090  0.3737
   28MOL    H16 8710   2.984   0.722   7.453  0.5075 -1.5569 -1.1896
   28MOL    H17 8711   3.118   1.073   7.537 -0.4375  0.2850  4.1598
   28MOL    C18 8712   2.851   1.122   7.578 -0.6205 -0.9087  0.1863
   28MOL    C19 8713   2.723   1.202   7.540  0.8330 -0.1681  0.5091
   28MOL    O20 8714   2.774   1.324   7.472 -0.4636  0.1783 -0.4125
   28MOL    C21 8715   2.690   1.364   7.361  0.1681  0.2129  0.0394
   28MOL    C22 8716   2.688   1.266   7.243 -0.7891  0.6045  0.5327
   28MOL    C23 8717   2.745   1.495   7.310 -0.1825 -0.4884  1.0524
   28MOL    H24 8718   2.825   1.067   7.669 -1.6480  0.3447  0.6680
   28MOL    H25 8719   2.925   1.186   7.626 -1.2904 -0.2055  0.2914
   28MOL    H26 8720   2.665   1.143   7.469  0.0194  0.7737  0.3783
   28MOL    H27 8721   2.590   1.385   7.400 -0.4054 -2.2611 -0.0177
   28MOL    H28 8722   2.627   1.178   7.262 -0.2882  0.4508  1.4661
   28MOL    H29 8723   2.650   1.313   7.152 -0.6930  1.8320  1.1113
   28MOL    H30 8724   2.789   1.228   7.232 -0.8070  0.4616  0.8402
   28MOL    H31 8725   2.839   1.471   7.260 -0.8970 -1.1644  0.0048
   28MOL    H32 8726   2.778   1.545   7.401  0.8880 -1.1539  1.0308
   28MOL    H33 8727   2.680   1.568   7.262  0.1709  0.1621  1.5600
   28MOL    C34 8728   2.622   1.228   7.653  0.3491 -0.1891  0.4992
   28MOL    C35 8729   2.564   1.106   7.725  0.0342  0.0972  0.3143
   28MOL    O36 8730   2.483   1.142   0.012  0.0907  0.1107 -0.3038
   28MOL    C37 8731   2.539   1.198   0.128 -0.7166  0.2041  0.0822
   28MOL    C38 8732   2.495   1.346   0.150  1.0066 -0.3505 -0.3883
   28MOL    C39 8733   2.516   1.106   0.251  0.7324  0.7130  0.4008
   28MOL    H40 8734   2.538   1.283   7.611  0.2565  0.1938  1.1779
   28MOL    H41 8735   2.674   1.284   7.731  0.3990  0.0061  0.3246
   28MOL    H42 8736   2.644   1.045   7.766  0.3338  1.5159  1.8817
   28MOL    H43 8737   2.648   1.199   0.122 -0.7517 -0.6606 -0.8586
   28MOL    H44 8738   2.544   1.402   0.229  1.0863  0.2782 -0.8766
   28MOL    H45 8739   2.389   1.362   0.167  1.1325 -1.1972  1.2215
   28MOL    H46 8740   2.517   1.409   0.064  0.8322 -0.4593 -0.5125
   28MOL    H47 8741   2.544   1.155   0.345  2.3536  0.4583  0.0563
   28MOL    H48 8742   2.409   1.086   0.256  0.9914 -0.4191  1.9081
   28MOL    H49 8743   2.564   1.010   0.237  1.9930  1.5955 -1.4196
   28MOL    C50 8744   2.483   1.013   7.638  0.3603 -0.1444 -0.2750
   28MOL    C51 8745   2.441   0.878   7.707 -0.2463 -0.6418  0.0162
   28MOL    O52 8746   2.552   0.788   7.705  0.6026 -0.2520 -0.3707
   28MOL    C53 8747   2.630   0.769   0.009 -0.1573 -0.2792  0.2218
   28MOL    C54 8748   2.775   0.745   7.781  0.8300 -0.6249  0.7390
   28MOL    C55 8749   2.576   0.647   0.088 -0.1559  0.1842 -0.1034
   28MOL    H56 8750   2.388   1.063   7.618  0.3393 -0.0568  0.0336
   28MOL    H57 8751   2.528   0.992   7.541 -0.6563  2.8683 -1.4654
   28MOL    H58 8752   2.421   0.898   7.813 -0.4150  0.1068 -0.1573
   28MOL    H59 8753   2.626   0.848   0.085 -0.1334 -0.9676  0.9454
   28MOL    H60 8754   2.849   0.746   0.041  0.4827  0.8544  1.0737
   28MOL    H61 8755   2.809   0.819   7.709 -0.5739 -1.6484 -1.0066
   28MOL    H62 8756   2.782   0.647   7.736 -1.2513 -1.5291  2.2865
   28MOL    H63 8757   2.644   0.610   0.165 -0.3052  0.7341  0.2930
   28MOL    H64 8758   2.580   0.565   0.016 -1.7786  0.0755 -0.0905
   28MOL    H65 8759   2.475   0.667   0.124  0.5739  0.1021  2.1100
   28MOL    C66 8760   2.320   0.803   7.644  1.2199  0.3127 -1.3024
   28MOL    C67 8761   2.185   0.867   7.689  0.4368 -0.2971  0.2724
   28MOL    O68 8762   2.166   0.860   0.008 -0.1699  0.4897 -0.3144
   28MOL    C69 8763   2.075   0.956   0.076 -0.9651 -0.0210 -0.3748
   28MOL    C70 8764   2.097   0.912   0.221  0.4857  0.6891 -0.3523
   28MOL    C71 8765   2.113   1.104   0.046 -0.4098 -0.3481 -0.5120
   28MOL    H72 8766   2.339   0.810   7.537 -0.5584 -2.9400 -1.8742
   28MOL    H73 8767   2.315   0.700   7.677  1.9352  1.1114  1.4584
   28MOL    H74 8768   2.191   0.970   7.652  0.0734 -1.0788 -2.0486
   28MOL    H75 8769   1.972   0.946   0.044 -0.0216  1.2242 -4.0568
   28MOL    H76 8770   2.065   0.809   0.238  1.6604  0.2417 -0.8099
   28MOL    H77 8771   2.202   0.901   0.246 -0.3469 -1.2513  2.5455
   28MOL    H78 8772   2.054   0.991   0.282  1.8029  0.8680  0.3656
   28MOL    H79 8773   2.127   1.128   7.761  1.0447  1.4746  0.0777
   28MOL    H80 8774   2.212   1.113   0.091 -0.2015  0.9188 -1.2047
   28MOL    H81 8775   2.032   1.158   0.095  0.0418 -0.4923  0.4037
   28MOL    C82 8776   2.060   0.790   7.631  0.4712  0.9495  0.3204
   28MOL    C83 8777   2.034   0.838   7.483  0.6393  0.0525  0.5339
   28MOL    O84 8778   1.944   0.746   7.424 -0.6769 -0.4431 -0.3272
   28MOL    C85 8779   1.990   0.677   7.310 -0.1679  0.2325 -0.8752
   28MOL    C86 8780   1.876   0.589   7.252 -0.5205  0.1328  0.2385
   28MOL    C87 8781   2.115   0.583   7.336 -0.1017  0.0405 -0.2268
   28MOL    H88 8782   2.083   0.685   7.613 -0.9560  0.7473 -0.4053
   28MOL    H89 8783   1.964   0.793   7.683  1.2074 -0.8364  1.8082
   28MOL    H90 8784   2.133   0.836   7.437  0.4695 -1.9116  0.2055
   28MOL    H91 8785   2.006   0.756   7.237  1.8523 -0.5931 -1.3607
   28MOL    H92 8786   1.809   0.565   7.335  1.9019  0.7888  2.4491
   28MOL    H93 8787   1.800   0.639   7.191  0.4125  1.4307  0.1048
   28MOL    H94 8788   1.916   0.497   7.212 -0.2689  0.4889 -0.3315
   28MOL    H95 8789   2.187   0.619   7.409  1.0067  0.3495 -1.4584
   28MOL    H96 8790   2.074   0.494   7.384  0.0914  0.6291  1.0207
   28MOL    H97 8791   2.165   0.555   7.243  0.4728 -1.8180  0.6157
   28MOL    C98 8792   1.971   0.987   7.480  0.6071  0.0832  0.4053
   28MOL    C99 8793   2.004   1.074   7.360 -0.7415 -0.0995 -0.7700
   28MOL   O100 8794   2.143   1.119   7.366 -0.1765 -0.1575 -0.1960
   28MOL   C101 8795   2.205   1.155   7.238 -0.3704 -0.7076 -0.0959
   28MOL   C102 8796   2.303   1.050   7.188 -0.3053  0.9717 -0.0559
   28MOL   C103 8797   2.266   1.299   7.243 -0.5488  0.7200 -0.4992
   28MOL   H104 8798   1.863   0.983   7.495  0.5722  0.9954  0.4586
   28MOL   H105 8799   2.013   1.038   7.567 -0.3025 -0.8716  1.4198
   28MOL   H106 8800   1.985   1.023   7.266  0.4177  0.2864 -1.2168
   28MOL   H107 8801   2.123   1.164   7.167  0.7008 -2.6535 -1.6160
   28MOL   H108 8802   2.246   0.958   7.175  1.0456  0.0258  0.6170
   28MOL   H109 8803   2.379   1.021   7.261 -0.0204  0.0052 -0.7282
   28MOL   H110 8804   2.361   1.089   7.105  1.4320 -1.4397 -0.0343
   28MOL   H111 8805   2.314   1.330   7.150  1.5568  0.0826  0.3433
   28MOL   H112 8806   2.356   1.304   7.305 -1.1877 -0.3455  0.5253
   28MOL   H113 8807   2.205   1.381   7.281  1.0126  0.9530  1.5760
   28MOL   C114 8808   1.919   1.202   7.358  0.8165 -0.1584  0.1539
   28MOL   C115 8809   1.808   1.217   7.259 -0.2172 -0.6055 -0.1301
   28MOL   O116 8810   1.701   1.125   7.292 -0.0793 -0.3194 -0.5176
   28MOL   C117 8811   1.686   1.013   7.212  0.1952 -1.0691  0.3985
   28MOL   C118 8812   1.589   1.053   7.104 -0.2761 -0.0951  1.3759
   28MOL   C119 8813   1.622   0.902   7.298  0.3225 -0.0497  0.3540
   28MOL   H120 8814   1.994   1.281   7.346 -1.6991  2.0177 -1.7207
   28MOL   H121 8815   1.864   1.211   7.451 -3.0665 -2.5292 -1.7988
   28MOL   H122 8816   1.836   1.192   7.157  0.2712 -0.0257 -0.1414
   28MOL   H123 8817   1.779   0.975   7.170  0.2149 -1.2171  0.5744
   28MOL   H124 8818   1.527   0.972   7.067  2.2582 -1.9544  1.0840
   28MOL   H125 8819   1.643   1.099   7.021 -0.5037 -2.5760 -0.1821
   28MOL   H126 8820   1.508   1.123   7.128 -0.4595  0.1994 -0.0494
   28MOL   H127 8821   1.683   0.891   7.387 -0.4439 -1.2058  0.7432
   28MOL   H128 8822   1.625   0.809   7.242  0.8864  0.9116 -1.2865
   28MOL   H129 8823   1.519   0.929   7.320 -0.2557 -1.6593 -0.3381
   28MOL   C130 8824   1.746   1.360   7.262 -0.1523 -0.4205 -0.5266
   28MOL   C131 8825   1.838   1.479   7.235 -0.5106  0.4935 -1.0677
   28MOL   O132 8826   1.777   1.601   7.232  0.1085 -0.0761  0.3107
   28MOL   C133 8827   1.704   1.643   7.351  0.0977 -0.3300 -0.3415
   28MOL   C134 8828   1.755   1.610   7.495  0.0840 -0.6111 -0.4685
   28MOL   C135 8829   1.691   1.797   7.339 -0.5317  0.2363  0.4936
   28MOL   H136 8830   1.700   1.366   7.361 -0.3457 -2.1045 -0.5130
   28MOL   H137 8831   1.663   1.364   7.192  0.3525  1.9789 -1.0511
   28MOL   H138 8832   1.913   1.482   7.314 -0.2598 -1.2333 -1.2293
   28MOL   H139 8833   1.606   1.599   7.338 -0.2909 -0.0420  1.3859
   28MOL   H140 8834   1.758   1.502   7.506 -0.7276 -0.6188 -0.3284
   28MOL   H141 8835   1.692   1.647   7.576  1.3606  1.1198 -0.2262
   28MOL   H142 8836   1.853   1.657   7.505 -0.6005  0.2427  2.8179
   28MOL   H143 8837   1.616   1.846   7.402 -0.0921  1.3910  0.1344
   28MOL   H144 8838   1.786   1.838   7.372  0.5789 -0.8364 -1.3306
   28MOL   H145 8839   1.668   1.817   7.235 -0.6234 -0.7571  0.3184
   28MOL   C146 8840   1.915   1.476   7.101 -0.4714  0.3327 -0.1261
   28MOL   C147 8841   2.032   1.581   7.081  0.2282  0.3434  0.5422
   28MOL   O148 8842   2.116   1.578   7.196 -0.1110  0.1196 -0.1320
   28MOL   C149 8843   2.167   1.700   7.240 -0.5412 -0.7407 -0.1786
   28MOL   C150 8844   2.292   1.670   7.326 -0.1093  0.5152  0.4855
   28MOL   C151 8845   2.055   1.767   7.326 -0.1485 -0.2403  0.2881
   28MOL   H152 8846   1.839   1.492   7.025  1.4002  0.6985 -1.9797
   28MOL   H153 8847   1.957   1.376   7.087 -2.6420 -0.8880  1.7896
   28MOL   H154 8848   2.006   1.686   7.069 -2.1476  0.0325  2.5575
   28MOL   H155 8849   2.193   1.771   7.161 -0.6900  0.2891  0.6798
   28MOL   H156 8850   2.250   1.610   7.407  0.8484 -1.0090 -0.1231
   28MOL   H157 8851   2.352   1.753   7.361 -0.8992  0.6105  1.6628
   28MOL   H158 8852   2.363   1.600   7.281  0.3449 -0.1942  2.2542
   28MOL   H159 8853   2.015   1.698   7.400  0.9475  0.2302  1.3495
   28MOL   H160 8854   1.968   1.782   7.263 -0.5041 -0.7653  0.6583
   28MOL   H161 8855   2.089   1.844   7.396  1.3662 -1.0275  0.4495
   28MOL   C162 8856   2.114   1.512   6.968 -0.6225 -0.4905  0.1391
   28MOL   C163 8857   2.239   1.596   6.908  0.4816  0.3218  0.2562
   28MOL   O164 8858   2.323   1.507   6.833 -0.1020  0.2280  0.1606
   28MOL   C165 8859   2.462   1.527   6.845  0.0003 -0.0590 -0.3758
   28MOL   C166 8860   2.527   1.482   6.712  0.9871  0.0378  0.5970
   28MOL   C167 8861   2.521   1.459   6.962  0.0608  0.5146 -0.2090
   28MOL   H168 8862   2.137   1.409   6.996  0.2593 -0.7852 -1.5942
   28MOL   H169 8863   2.052   1.501   6.878 -0.8145  0.4595  0.1474
   28MOL   H170 8864   2.299   1.634   6.991  0.6234  1.1187 -0.2072
   28MOL   H171 8865   2.482   1.634   6.852  0.9166 -0.2586  0.2142
   28MOL   H172 8866   2.635   1.480   6.700  0.9759  0.1040  0.4749
   28MOL   H173 8867   2.496   1.552   6.634  0.4699 -0.2884  0.5047
   28MOL   H174 8868   2.488   1.384   6.685  0.7798 -0.3844  2.3859
   28MOL   H175 8869   2.451   1.487   7.041 -0.6507  0.5601 -0.8435
   28MOL   H176 8870   2.619   1.502   6.981 -0.0763  0.5426  0.4671
   28MOL   H177 8871   2.527   1.350   6.968 -0.3124  0.5599  1.2006
   28MOL   C178 8872   2.202   1.729   6.829 -0.3669  0.5485 -0.6243
   28MOL   C179 8873   2.320   1.818   6.786  0.0316 -0.0571 -0.6437
   28MOL   O180 8874   2.269   1.934   6.708 -0.3078 -0.5104  0.3825
   28MOL   C181 8875   2.235   1.910   6.568 -0.0157  0.0091 -0.3057
   28MOL   C182 8876   2.351   1.932   6.482  0.3839 -0.1232  0.3884
   28MOL   C183 8877   2.125   2.011   6.538 -0.6809  0.5601  0.6624
   28MOL   H184 8878   2.143   1.788   6.899 -1.4662 -1.5772  0.2769
   28MOL   H185 8879   2.135   1.700   6.748 -1.5080  2.1740 -0.2741
   28MOL   H186 8880   2.397   1.769   6.727 -0.5925 -0.9442 -0.7269
   28MOL   H187 8881   2.205   1.805   6.565  0.2248 -0.1503  1.8303
   28MOL   H188 8882   2.433   1.866   6.512  0.1698 -0.8252 -0.5238
   28MOL   H189 8883   2.386   2.035   6.486  0.5355 -0.2646  3.1197
   28MOL   H190 8884   2.325   1.910   6.378  0.5878  0.2663  0.2525
   28MOL   H191 8885   2.136   2.111   6.582 -0.3142  1.6156 -1.7540
   28MOL   H192 8886   2.035   1.974   6.586 -0.5539  0.7916  1.0874
   28MOL   H193 8887   2.109   2.028   6.432  1.8998  2.5271  0.5353
   28MOL   C194 8888   2.379   1.883   6.908 -0.7398 -0.4616 -0.0234
   28MOL   C195 8889   2.510   1.964   6.876  1.0961  0.4706 -0.1021
   28MOL   O196 8890   2.614   1.873   6.830 -0.5771 -0.1702  0.0234
   28MOL   C197 8891   2.702   1.926   6.729 -0.5335  0.1169  0.0178
   28MOL   C198 8892   2.837   1.988   6.778  0.8016  0.2592  0.0685
   28MOL   C199 8893   2.728   1.801   6.634 -0.0172 -0.6005  0.1504
   28MOL   H200 8894   2.303   1.948   6.949  0.1931  1.4721 -1.2818
   28MOL   H201 8895   2.405   1.810   6.984  1.3160  0.2434  0.0010
   28MOL   H202 8896   2.480   2.033   6.797  1.4278 -0.5427 -1.1073
   28MOL   H203 8897   2.651   1.994   6.662 -0.8655 -0.6814 -0.5463
   28MOL   H204 8898   2.910   2.010   6.701  2.0381  0.5358  1.3065
   28MOL   H205 8899   2.824   2.083   6.830 -2.7519 -0.5942  0.8887
   28MOL   H206 8900   2.892   1.927   6.849  0.1264  0.7007  0.9875
   28MOL   H207 8901   2.757   1.711   6.688 -1.3302 -2.1728 -1.7065
   28MOL   H208 8902   2.642   1.774   6.573  0.2961  1.1393 -1.0985
   28MOL   H209 8903   2.801   1.813   6.554 -1.0813  3.3152 -0.3700
   28MOL   C210 8904   2.568   2.057   6.994  0.4783  0.6431 -1.0340
   28MOL   C211 8905   2.524   2.206   7.005  0.1520  0.3459 -0.1247
   28MOL   O212 8906   2.553   2.265   7.131  0.1058  0.8572  0.3509
   28MOL   C213 8907   2.441   2.268   7.221 -0.5008  0.2652  0.1573
   28MOL   C214 8908   2.409   2.127   7.279 -0.1286  0.8028 -0.0444
   28MOL   C215 8909   2.474   2.377   7.327 -0.5192 -0.9587  0.3499
   28MOL   H216 8910   2.677   2.058   6.988  0.5246  2.8674 -0.0424
   28MOL   H217 8911   2.554   2.008   7.091 -3.9085 -0.4322 -2.1296
   28MOL   H218 8912   2.420   2.209   6.972 -0.1026  0.1613  0.6691
   28MOL   H219 8913   2.354   2.303   7.165  0.9488  0.3293 -2.1169
   28MOL   H220 8914   2.493   2.090   7.338 -0.6727 -0.2651  0.0762
   28MOL   H221 8915   2.383   2.048   7.210 -0.4542 -0.7342  1.7984
   28MOL   H222 8916   2.324   2.129   7.347 -0.2192  3.9773 -0.1376
   28MOL   H223 8917   2.570   2.368   7.378 -2.1448  0.9268  3.9277
   28MOL   H224 8918   2.391   2.370   7.398 -0.4497 -0.5603  0.4750
   28MOL   H225 8919   2.463   2.473   7.277  1.4158 -0.6274  0.5114
   28MOL   C226 8920   2.591   2.297   6.894 -0.4038  0.5622 -0.1970
   28MOL   C227 8921   2.532   2.434   6.869  0.3034  1.0735  0.5529
   28MOL   O228 8922   2.385   2.424   6.871  0.0764  0.1975 -0.7323
   28MOL   C229 8923   2.322   2.547   6.879 -0.2687 -0.7429  0.1707
   28MOL   C230 8924   2.319   2.605   7.020 -0.0767  0.3730 -0.1814
   28MOL   C231 8925   2.178   2.530   6.831 -0.1251 -0.0125 -0.4573
   28MOL   H232 8926   2.592   2.238   6.802  2.8079 -0.4938  0.4520
   28MOL   H233 8927   2.693   2.315   6.926 -0.2531 -0.6047  0.0117
   28MOL   H234 8928   2.566   2.495   6.952 -0.0260  0.3341  1.2318
   28MOL   H235 8929   2.361   2.626   6.815  0.1184 -0.1935  1.0782
   28MOL   H236 8930   2.416   2.605   7.070 -1.4773 -0.2804  2.6757
   28MOL   H237 8931   2.273   2.704   7.018 -2.5044 -0.7386 -2.3161
   28MOL   H238 8932   2.246   2.542   7.071 -0.8188  0.0796 -1.5792
   28MOL   H239 8933   2.183   2.501   6.726 -0.8824  0.4574 -0.6295
   28MOL   H240 8934   2.122   2.624   6.843 -1.6739 -0.9385 -0.2561
   28MOL   H241 8935   2.123   2.451   6.881 -0.3696 -1.2209 -2.5943
   28MOL   C242 8936   2.581   2.484   6.727  0.1147  0.6171 -0.5646
   28MOL   C243 8937   2.735   2.504   6.730 -0.0134 -0.1644 -0.5222
   28MOL   O244 8938   2.761   2.623   6.812 -0.1411 -0.0195 -0.9195
   28MOL   C245 8939   2.886   2.620   6.872 -0.0482 -0.2829  1.1813
   28MOL   C246 8940   2.903   2.767   6.918  0.2002  0.1012  0.1316
   28MOL   C247 8941   2.893   2.529   6.999  0.0655  0.4382 -0.2294
   28MOL   H248 8942   2.553   2.427   6.639 -1.2378 -0.9250  0.8341
   28MOL   H249 8943   2.531   2.579   6.710 -0.4966  0.3978  0.0038
   28MOL   H250 8944   2.787   2.417   6.769 -0.4146  0.0571  0.5370
   28MOL   H251 8945   2.966   2.604   6.799  1.6946  2.0165  2.4997
   28MOL   H252 8946   2.842   2.772   7.008 -1.1699  1.4395 -0.8480
   28MOL   H253 8947   3.006   2.802   6.930  1.3071 -2.6128 -0.9804
   28MOL   H254 8948   2.848   2.826   6.844 -0.0379 -1.5082 -0.9859
   28MOL   H255 8949   2.811   2.547   7.068 -1.4901 -1.7082 -1.4608
   28MOL   H256 8950   2.894   2.422   6.981  1.6446  0.8142 -2.6485
   28MOL   H257 8951   2.984   2.554   7.055  0.2088  0.0846 -0.2998
   28MOL   C258 8952   2.791   2.530   6.594 -0.7460 -0.4983  0.7346
   28MOL   C259 8953   2.795   2.407   6.505 -0.8999 -0.2632 -0.3811
   28MOL   O260 8954   2.928   2.398   6.458  0.1052  0.1747  0.8856
   28MOL   C261 8955   3.016   2.323   6.547 -0.0582  0.2173  0.0757
   28MOL   C262 8956   3.011   2.170   6.509  0.5127 -0.1254  0.2466
   28MOL   C263 8957   3.158   2.369   6.542 -0.6611 -0.3931  0.1745
   28MOL   H264 8958   2.737   2.599   6.530 -1.9003 -1.4193  0.6943
   28MOL   H265 8959   2.886   2.582   6.602  0.2775 -1.6998 -2.6752
   28MOL   H266 8960   2.767   2.316   6.557 -2.5566  2.8040  4.4285
   28MOL   H267 8961   2.996   2.321   6.654  2.3507  1.6243  0.5822
   28MOL   H268 8962   3.063   2.115   6.588  0.5255 -2.7450 -1.5548
   28MOL   H269 8963   3.050   2.137   6.413  1.2966 -0.9466  0.8465
   28MOL   H270 8964   2.907   2.140   6.516  0.5533  0.3838  3.9709
   28MOL   H271 8965   3.214   2.298   6.602 -0.2832 -1.5791 -1.5366
   28MOL   H272 8966   3.196   2.360   6.440  0.4537 -0.4105  0.5889
   28MOL   H273 8967   3.161   2.468   6.587  3.4409  1.1778 -3.1530
   28MOL   C274 8968   2.705   2.416   6.388  0.7094  0.0146 -0.0422
   28MOL   C275 8969   2.660   2.284   6.326  0.2070 -0.0561 -0.1547
   28MOL   O276 8970   2.557   2.310   6.228 -0.1550 -0.7040  0.2536
   28MOL   C277 8971   2.429   2.257   6.243 -0.7000 -0.1002 -0.3422
   28MOL   C278 8972   2.353   2.292   6.115  0.1513 -0.2724  0.0285
   28MOL   C279 8973   2.364   2.320   6.372  0.3873 -0.5156 -1.0017
   28MOL   H280 8974   2.610   2.453   6.426 -0.1000 -0.8458 -1.1742
   28MOL   H281 8975   2.741   2.497   6.324 -0.3799  2.3869  2.2197
   28MOL   H282 8976   2.611   2.212   6.393  0.8294 -0.7227 -0.4065
   28MOL   H283 8977   2.441   2.150   6.256  1.0620 -0.0338 -1.2939
   28MOL   H284 8978   2.261   2.234   6.116  1.5561 -2.5758  0.4145
   28MOL   H285 8979   2.349   2.401   6.107  3.1101  0.1768  3.0541
   28MOL   H286 8980   2.407   2.271   6.023 -0.1993 -0.1845 -0.1959
   28MOL   H287 8981   2.259   2.292   6.381  0.1445  0.7897  0.5816
   28MOL   H288 8982   2.353   2.428   6.377 -1.1610 -0.7447  1.0814
   28MOL   H289 8983   2.412   2.294   6.467  0.0639  0.9554 -0.4279
   28MOL   C290 8984   2.772   2.225   6.243  0.7980 -0.3991  0.2529
   28MOL   C291 8985   2.743   2.104   6.162 -0.1830  0.1148  0.4053
   28MOL   O292 8986   2.851   2.089   6.070 -0.0857  0.1600 -0.2301
   28MOL   C293 8987   2.824   2.111   5.936 -0.4547 -0.3593  0.0393
   28MOL   C294 8988   2.954   2.080   5.858 -0.0501 -0.0053 -0.2155
   28MOL   C295 8989   2.783   2.260   5.905  0.1248  0.4253 -0.2474
   28MOL   H296 8990   2.855   2.193   6.306 -0.5503 -4.3864  0.2098
   28MOL   H297 8991   2.815   2.304   6.182  0.9187  0.2772  1.2158
   28MOL   H298 8992   2.652   2.107   6.103  0.5681  2.9599 -0.7033
   28MOL   H299 8993   2.750   2.034   5.913  1.1845 -1.3964 -1.9983
   28MOL   H300 8994   2.984   1.977   5.880 -2.0226 -0.1711  1.8332
   28MOL   H301 8995   2.952   2.098   5.750 -1.3090  0.8396 -0.0576
   28MOL   H302 8996   3.032   2.145   5.898 -0.3449  0.7898 -0.9063
   28MOL   H303 8997   2.770   2.262   5.797  0.9954 -2.4811 -0.4623
   28MOL   H304 8998   2.683   2.272   5.948 -0.2843  1.1768 -1.4089
   28MOL   H305 8999   2.849   2.331   5.955 -0.5425 -0.2637  1.6935
   28MOL   C306 9000   2.739   1.976   6.243 -0.4252  0.2045  0.0385
   28MOL   C307 9001   2.699   1.853   6.171  0.1092 -0.2493 -0.5730
   28MOL   O308 9002   2.667   1.749   6.267 -0.3788 -0.0693  0.6713
   28MOL   C309 9003   2.626   1.622   6.207 -0.8206  0.8282  0.8202
   28MOL   C310 9004   2.755   1.548   6.174  0.3155 -0.3238 -0.4139
   28MOL   C311 9005   2.561   1.548   6.325 -0.1070  0.3556  0.0575
   28MOL   H312 9006   2.658   1.989   6.315 -0.5177 -0.5400  0.0811
   28MOL   H313 9007   2.834   1.969   6.295 -0.0933  0.6953 -0.4964
   28MOL   H314 9008   2.604   1.864   6.120  0.5347  0.8153 -1.1504
   28MOL   H315 9009   2.570   1.625   6.113 -1.0076  1.3505  0.9460
   28MOL   H316 9010   2.816   1.540   6.263 -0.3069  1.0536  0.1418
   28MOL   H317 9011   2.807   1.611   6.101 -0.8365  3.1129  1.6168
   28MOL   H318 9012   2.718   1.459   6.123 -0.8950 -1.0187  1.6391
   28MOL   H319 9013   2.531   1.447   6.297 -0.5108  0.7576 -0.9983
   28MOL   H320 9014   2.471   1.593   6.367 -1.7275 -2.5366 -0.1325
   28MOL   H321 9015   2.631   1.545   6.408 -1.2064 -0.1398  0.9863
   28MOL   H322 9016   2.778   1.834   6.098  0.2830  3.0780 -1.3423
   29MOL     C1 9017   6.783   6.485   1.742 -0.4953  0.1076 -0.2553
   29MOL     C2 9018   6.670   6.472   1.646  0.2755 -0.2897 -0.1211
   29MOL     O3 9019   6.564   6.564   1.691  0.1881 -0.2437  0.1012
   29MOL     C4 9020   6.433   6.516   1.671  0.7043  0.4534  0.2073
   29MOL     C5 9021   6.341   6.632   1.628 -0.0136 -0.3156  0.5284
   29MOL     C6 9022   6.378   6.467   1.805  0.1374  0.2688  0.0914
   29MOL     H7 9023   6.817   6.588   1.737  2.5235 -0.8311 -0.0348
   29MOL     H8 9024   6.739   6.461   1.839  0.4798 -1.9050 -0.2931
   29MOL     H9 9025   6.642   6.367   1.653  1.2361 -0.4143  2.6658
   29MOL    H10 9026   6.417   6.428   1.609 -2.0204 -0.8420  2.5711
   29MOL    H11 9027   6.322   6.709   1.702 -0.6762  1.3373 -1.3214
   29MOL    H12 9028   6.376   6.685   1.540 -0.1555  1.8109  1.7362
   29MOL    H13 9029   6.241   6.590   1.614 -0.4886  0.8415  0.4325
   29MOL    H14 9030   6.346   6.544   1.875  1.6037  0.5839  0.4247
   29MOL    H15 9031   6.294   6.398   1.792  1.7199 -2.0965  2.0754
   29MOL    H16 9032   6.451   6.400   1.849 -1.4286 -0.0929  2.2055
   29MOL    H17 9033   6.862   6.410   1.734 -1.4525 -0.6708 -2.7105
   29MOL    C18 9034   6.718   6.510   1.503  0.0006  0.1182 -0.2770
   29MOL    C19 9035   6.625   6.454   1.399 -0.1145  0.3938  0.1652
   29MOL    O20 9036   6.648   6.313   1.409  0.1045  0.3775 -0.2273
   29MOL    C21 9037   6.537   6.234   1.342  1.1375  0.0949 -0.3009
   29MOL    C22 9038   6.462   6.156   1.448  0.4169  0.3239  0.3771
   29MOL    C23 9039   6.613   6.132   1.248 -0.4163 -0.3039 -0.5102
   29MOL    H24 9040   6.727   6.619   1.508  2.0420 -0.0458  0.2430
   29MOL    H25 9041   6.819   6.474   1.487 -0.2156 -0.1204 -1.1380
   29MOL    H26 9042   6.517   6.464   1.412 -0.5633 -1.7983 -1.4012
   29MOL    H27 9043   6.471   6.296   1.281  0.2210  0.1734  0.7537
   29MOL    H28 9044   6.379   6.105   1.399  0.5200  0.3862  0.1365
   29MOL    H29 9045   6.527   6.081   1.493  0.7288 -0.0614 -0.7075
   29MOL    H30 9046   6.423   6.216   1.530 -0.1890 -0.6609  0.8195
   29MOL    H31 9047   6.677   6.063   1.303 -0.2368  0.7627  0.6492
   29MOL    H32 9048   6.680   6.170   1.172  1.3101 -0.5354  0.8599
   29MOL    H33 9049   6.541   6.075   1.189 -0.7471 -0.7794  0.3260
   29MOL    C34 9050   6.667   6.507   1.257 -0.3978  0.4754  1.1156
   29MOL    C35 9051   6.625   6.652   1.216  0.0951  0.6029 -0.2532
   29MOL    O36 9052   6.676   6.684   1.088 -0.2403  0.3727  0.0688
   29MOL    C37 9053   6.818   6.709   1.085 -0.2642  0.0100  0.2902
   29MOL    C38 9054   6.868   6.636   0.957  0.0203 -0.1492 -0.3973
   29MOL    C39 9055   6.843   6.861   1.077  0.4535  0.8483 -0.0981
   29MOL    H40 9056   6.617   6.439   1.187  0.7492  1.0342 -0.2717
   29MOL    H41 9057   6.775   6.488   1.251 -0.4492  0.6509 -0.9341
   29MOL    H42 9058   6.673   6.711   1.294 -1.0685  0.4962  0.5553
   29MOL    H43 9059   6.870   6.668   1.171  1.4778 -0.9782 -1.2096
   29MOL    H44 9060   6.975   6.622   0.970  0.4367  2.3325 -1.0242
   29MOL    H45 9061   6.835   6.685   0.866 -0.6153 -1.6172 -0.9730
   29MOL    H46 9062   6.816   6.540   0.950 -0.5521  0.0570  1.0090
   29MOL    H47 9063   6.801   6.914   1.163  1.3770  0.4258  0.6151
   29MOL    H48 9064   6.950   6.875   1.064  0.7441 -1.1767 -0.0554
   29MOL    H49 9065   6.788   6.910   0.996 -0.4663  2.1766  1.2920
   29MOL    C50 9066   6.473   6.681   1.214  0.1851 -0.1795  0.0101
   29MOL    C51 9067   6.431   6.833   1.216 -0.4731 -0.2684 -0.1170
   29MOL    O52 9068   6.439   6.874   1.353 -0.0914  0.0990  0.1530
   29MOL    C53 9069   6.548   6.955   1.394  0.3998  0.9525  0.1989
   29MOL    C54 9070   6.600   6.917   1.530 -0.0914 -0.0281 -0.3548
   29MOL    C55 9071   6.484   7.090   1.411  0.1483 -0.1751  0.0112
   29MOL    H56 9072   6.433   6.638   1.122  0.1115 -0.8497  0.3548
   29MOL    H57 9073   6.417   6.630   1.292  1.7086 -1.0419  0.5658
   29MOL    H58 9074   6.502   6.878   1.147 -1.9772 -2.0513 -2.8804
   29MOL    H59 9075   6.633   6.951   1.326 -0.9467 -0.5179 -1.4688
   29MOL    H60 9076   6.522   6.912   1.605  1.4847  0.2394  1.3274
   29MOL    H61 9077   6.673   6.989   1.567 -0.9408 -0.0746  1.4391
   29MOL    H62 9078   6.656   6.823   1.527  0.7865  0.4995 -0.6030
   29MOL    H63 9079   6.541   7.162   1.470 -1.6264  2.4076 -1.2968
   29MOL    H64 9080   6.390   7.065   1.461 -0.0100 -2.5603 -1.3948
   29MOL    H65 9081   6.454   7.136   1.317 -0.5036 -0.3710  0.1204
   29MOL    C66 9082   6.288   6.867   1.175  0.3872  0.4355 -0.0601
   29MOL    C67 9083   6.262   6.854   1.021  0.4980  0.0653 -0.3515
   29MOL    O68 9084   6.319   6.974   0.959 -0.3905  0.3158  0.1105
   29MOL    C69 9085   6.370   6.949   0.833  0.7693 -0.1057  0.0911
   29MOL    C70 9086   6.332   7.065   0.746 -0.1637 -0.2381  0.1408
   29MOL    C71 9087   6.521   6.917   0.836 -0.2323  0.5777 -0.3663
   29MOL    H72 9088   6.227   6.799   1.234  1.7034 -1.8161 -1.2275
   29MOL    H73 9089   6.257   6.970   1.190  1.4352  0.7177  0.1748
   29MOL    H74 9090   6.309   6.769   0.971  1.1242  0.5831 -0.6553
   29MOL    H75 9091   6.311   6.869   0.787 -0.5095  0.1549  1.2396
   29MOL    H76 9092   6.242   7.112   0.783  1.2683  1.6492  1.3371
   29MOL    H77 9093   6.409   7.141   0.733 -0.7970  0.2141 -0.9804
   29MOL    H78 9094   6.302   7.038   0.645 -0.5970  2.1806 -0.4012
   29MOL    H79 9095   6.568   6.905   0.738 -1.3562  0.6184 -0.9114
   29MOL    H80 9096   6.535   6.819   0.882  0.2330  0.7195 -0.2046
   29MOL    H81 9097   6.574   6.993   0.893 -0.0741  1.1425 -1.2576
   29MOL    C82 9098   6.115   6.837   0.994  0.7665  0.1120 -0.7101
   29MOL    C83 9099   6.036   6.724   1.064 -0.1462 -0.0901  0.5886
   29MOL    O84 9100   5.891   6.733   1.047  0.2548  0.2374 -0.3015
   29MOL    C85 9101   5.823   6.819   1.134  0.2228 -0.7470 -0.2795
   29MOL    C86 9102   5.733   6.739   1.225 -0.5677  0.5895  0.4570
   29MOL    C87 9103   5.743   6.925   1.044 -0.2047  0.7589 -0.2479
   29MOL    H88 9104   6.059   6.929   1.010 -1.0647 -1.4447  2.3379
   29MOL    H89 9105   6.101   6.840   0.886 -0.4126  1.2121 -0.5340
   29MOL    H90 9106   6.057   6.721   1.171 -0.3212 -0.4039  0.6124
   29MOL    H91 9107   5.892   6.888   1.184  0.0907  1.1200 -2.5811
   29MOL    H92 9108   5.684   6.654   1.178 -0.8333  0.7407  0.4563
   29MOL    H93 9109   5.788   6.698   1.310 -0.1542  1.5117  0.6449
   29MOL    H94 9110   5.661   6.813   1.261 -2.1145 -0.2620 -0.8344
   29MOL    H95 9111   5.708   7.010   1.102  0.6033  0.3474  0.8646
   29MOL    H96 9112   5.822   6.964   0.980 -2.1410 -0.2035 -3.3618
   29MOL    H97 9113   5.665   6.879   0.983 -1.0006 -0.2560  1.5075
   29MOL    C98 9114   6.075   6.585   1.005 -0.1306  0.2512  0.3644
   29MOL    C99 9115   6.012   6.462   1.069 -0.7353  0.2984  0.1234
   29MOL   O100 9116   6.073   6.435   1.199 -0.3354  0.3122 -0.3144
   29MOL   C101 9117   6.008   6.462   1.315 -0.0724 -0.1450 -1.2819
   29MOL   C102 9118   6.114   6.419   1.420  0.2724 -0.0558 -0.3638
   29MOL   C103 9119   5.882   6.370   1.325  0.4818 -0.3202 -0.5858
   29MOL   H104 9120   6.047   6.592   0.900  4.1277 -0.2286 -0.8717
   29MOL   H105 9121   6.184   6.584   1.002 -0.1726 -0.1271 -1.2803
   29MOL   H106 9122   5.906   6.486   1.083 -0.4150  1.4510  0.7108
   29MOL   H107 9123   5.983   6.567   1.330  0.6873 -0.1049 -0.3116
   29MOL   H108 9124   6.212   6.466   1.411  0.7731 -1.2724 -1.4771
   29MOL   H109 9125   6.127   6.311   1.424  0.0443 -0.0616  0.2008
   29MOL   H110 9126   6.073   6.440   1.518 -0.0714 -2.3919  0.0173
   29MOL   H111 9127   5.907   6.277   1.273 -0.7441 -0.4227 -1.0151
   29MOL   H112 9128   5.800   6.403   1.262  0.5616  2.4738  0.7076
   29MOL   H113 9129   5.850   6.358   1.429  1.7107 -0.6337 -0.2288
   29MOL   C114 9130   6.035   6.335   0.992 -0.0567  0.1083  0.2966
   29MOL   C115 9131   5.922   6.304   0.890 -1.1090 -0.4762 -0.1544
   29MOL   O116 9132   5.907   6.407   0.796  0.0237 -0.4118  0.0374
   29MOL   C117 9133   5.782   6.450   0.755  0.4262  0.0527 -0.3358
   29MOL   C118 9134   5.791   6.490   0.607 -0.7971 -0.7038  0.3187
   29MOL   C119 9135   5.755   6.579   0.842  0.1431  0.0497  0.0626
   29MOL   H120 9136   6.031   6.256   1.067  1.7487 -2.2850 -2.0144
   29MOL   H121 9137   6.137   6.333   0.953 -0.1619  2.6632 -0.2041
   29MOL   H122 9138   5.828   6.301   0.946  0.7662 -2.0339  3.0091
   29MOL   H123 9139   5.697   6.382   0.758  1.0812 -0.7366  0.4984
   29MOL   H124 9140   5.837   6.419   0.538  0.3501  1.2190 -0.9483
   29MOL   H125 9141   5.844   6.584   0.593 -0.3150 -1.0880 -0.4420
   29MOL   H126 9142   5.691   6.489   0.563 -0.2166  2.8479 -1.3212
   29MOL   H127 9143   5.744   6.553   0.948 -0.8557 -1.4841 -0.4051
   29MOL   H128 9144   5.671   6.641   0.812  0.0999  0.1415  0.3656
   29MOL   H129 9145   5.834   6.654   0.834 -0.4789  0.5305 -1.7973
   29MOL   C130 9146   5.942   6.169   0.827  0.4517 -0.3380 -0.5232
   29MOL   C131 9147   5.840   6.122   0.714  1.1176 -0.0295  0.2308
   29MOL   O132 9148   5.696   6.118   0.738 -0.9117  0.2851  0.1813
   29MOL   C133 9149   5.651   6.036   0.843  0.2575  0.4572 -0.7506
   29MOL   C134 9150   5.568   6.112   0.950 -0.5057  0.4801 -0.4777
   29MOL   C135 9151   5.588   5.902   0.789 -0.0783 -0.1014 -0.3128
   29MOL   H136 9152   5.931   6.103   0.913 -1.6288  3.0291  1.9085
   29MOL   H137 9153   6.048   6.157   0.804  1.1664  1.2588  1.6659
   29MOL   H138 9154   5.833   6.195   0.633 -0.2998 -1.3130 -0.8222
   29MOL   H139 9155   5.737   5.998   0.898  1.5684  2.5530 -1.2940
   29MOL   H140 9156   5.469   6.142   0.918 -1.2693  0.5160  1.7928
   29MOL   H141 9157   5.620   6.197   0.994  0.9694 -0.9126  0.5514
   29MOL   H142 9158   5.539   6.045   1.032 -0.0099  0.7118 -0.1090
   29MOL   H143 9159   5.649   5.860   0.709 -0.1218  0.5232 -0.6740
   29MOL   H144 9160   5.598   5.832   0.872  2.3519  0.2503 -0.2696
   29MOL   H145 9161   5.482   5.907   0.765  0.4739  3.3734 -2.3674
   29MOL   C146 9162   5.886   5.991   0.645 -0.2743 -0.1939  0.0972
   29MOL   C147 9163   6.003   6.006   0.543  0.0918  0.0582 -0.2272
   29MOL   O148 9164   6.118   6.056   0.609 -0.0517  0.7027 -0.2658
   29MOL   C149 9165   6.192   6.147   0.530 -0.3539 -0.6232  0.4080
   29MOL   C150 9166   6.327   6.141   0.601  0.2008  0.3818 -0.7717
   29MOL   C151 9167   6.130   6.293   0.540  0.5677 -0.2079  0.0833
   29MOL   H152 9168   5.796   5.954   0.596  0.6035  0.4445 -2.0428
   29MOL   H153 9169   5.906   5.913   0.718  2.2691 -1.5309 -1.9287
   29MOL   H154 9170   5.969   6.080   0.471 -0.9873  0.9976  1.2116
   29MOL   H155 9171   6.201   6.114   0.427  1.4842 -1.3467  0.7752
   29MOL   H156 9172   6.322   6.191   0.698  0.4144  0.0484 -0.5839
   29MOL   H157 9173   6.413   6.193   0.558 -0.7942  1.1337 -1.8614
   29MOL   H158 9174   6.359   6.041   0.631 -0.2333  0.8451  1.3058
   29MOL   H159 9175   6.045   6.317   0.476  1.4780  1.4223 -0.5384
   29MOL   H160 9176   6.205   6.362   0.501  0.1524  0.5562  0.6196
   29MOL   H161 9177   6.110   6.321   0.644  0.4521  0.3645 -0.0896
   29MOL   C162 9178   6.032   5.868   0.480  0.7236  0.2956 -0.9831
   29MOL   C163 9179   5.978   5.868   0.340  0.6489 -0.1485 -0.0996
   29MOL   O164 9180   6.065   5.946   0.255 -0.4630  0.2423  0.5518
   29MOL   C165 9181   6.002   6.004   0.141  0.0365 -0.5344  0.9349
   29MOL   C166 9182   6.088   5.970   0.020 -0.1302  0.4088  0.3833
   29MOL   C167 9183   6.008   6.154   0.164  0.0614 -0.1185 -0.5059
   29MOL   H168 9184   6.141   5.857   0.484  0.6924  0.6969  2.8000
   29MOL   H169 9185   5.995   5.788   0.543  1.9694  0.7917  0.4143
   29MOL   H170 9186   5.876   5.905   0.349  0.4858 -1.3275  4.1194
   29MOL   H171 9187   5.905   5.962   0.112 -1.5791  2.2910  2.0648
   29MOL   H172 9188   6.187   6.016   0.023 -0.4855  1.1489  0.7052
   29MOL   H173 9189   6.038   5.998   7.748 -1.5804  0.9475  1.3236
   29MOL   H174 9190   6.106   5.862   0.023  0.8644  0.4739 -2.0275
   29MOL   H175 9191   6.110   6.191   0.171 -0.0422  0.5718 -2.2604
   29MOL   H176 9192   5.952   6.188   0.250 -2.7786  0.5257 -2.5157
   29MOL   H177 9193   5.965   6.204   0.077 -0.0755 -1.6504 -1.3486
   29MOL   C178 9194   5.979   5.729   0.277 -0.6445  0.2144  0.3917
   29MOL   C179 9195   5.909   5.607   0.342  0.3809 -0.2261 -0.1709
   29MOL   O180 9196   5.789   5.566   0.273 -0.1830  1.3043  0.3186
   29MOL   C181 9197   5.682   5.650   0.296  0.2026  0.0955  0.4255
   29MOL   C182 9198   5.602   5.604   0.416  0.4983 -0.6640  0.2514
   29MOL   C183 9199   5.589   5.650   0.178 -0.8279  0.0938  0.1138
   29MOL   H184 9200   6.083   5.707   0.252 -1.0412 -2.4431  0.9161
   29MOL   H185 9201   5.937   5.747   0.177 -0.4615  1.0394  0.4575
   29MOL   H186 9202   5.896   5.620   0.449  1.3921  0.0756 -0.0835
   29MOL   H187 9203   5.715   5.753   0.312 -0.4638  0.8218 -2.5351
   29MOL   H188 9204   5.528   5.680   0.440  0.8821 -0.5247  1.0009
   29MOL   H189 9205   5.663   5.592   0.506 -1.0096  0.4532  1.4621
   29MOL   H190 9206   5.549   5.512   0.393 -2.4326  0.9568  0.1494
   29MOL   H191 9207   5.503   5.708   0.211 -1.9528 -1.2384 -0.4499
   29MOL   H192 9208   5.557   5.548   0.157  0.8594 -0.5199  0.4181
   29MOL   H193 9209   5.623   5.696   0.086 -0.3435  0.9945  0.7296
   29MOL   C194 9210   6.012   5.489   0.348  0.2085 -0.3550  0.3436
   29MOL   C195 9211   5.950   5.356   0.407  0.0321  0.1931  0.0731
   29MOL   O196 9212   5.928   5.373   0.545  0.4082  0.2759  0.0509
   29MOL   C197 9213   5.811   5.311   0.595 -0.1621 -0.8227  0.0708
   29MOL   C198 9214   5.837   5.158   0.637  0.4926  0.1506 -0.1656
   29MOL   C199 9215   5.764   5.393   0.714 -0.0904 -0.5491  0.4951
   29MOL   H200 9216   6.043   5.475   0.244  0.0265 -0.4372  0.3012
   29MOL   H201 9217   6.103   5.522   0.398  0.8953  0.5570 -1.4823
   29MOL   H202 9218   5.861   5.337   0.346 -0.5074 -1.6056  1.3764
   29MOL   H203 9219   5.736   5.305   0.516  1.1733 -0.2618 -1.2717
   29MOL   H204 9220   5.746   5.121   0.684  1.5478 -0.5456  1.3642
   29MOL   H205 9221   5.845   5.109   0.540 -0.7935  2.3847 -1.4438
   29MOL   H206 9222   5.936   5.158   0.682  0.4567  1.4203 -0.0723
   29MOL   H207 9223   5.847   5.406   0.783 -0.1492  1.8695  0.1347
   29MOL   H208 9224   5.744   5.499   0.697 -0.5030 -0.5896  0.7182
   29MOL   H209 9225   5.691   5.343   0.778 -1.6201 -0.3290 -1.0081
   29MOL   C210 9226   6.051   5.246   0.378 -0.4337  0.0135 -1.0001
   29MOL   C211 9227   6.049   5.188   0.234 -0.7844  0.1512  0.3679
   29MOL   O212 9228   6.162   5.105   0.213 -0.7410  0.7034 -0.0501
   29MOL   C213 9229   6.277   5.161   0.149 -0.1407  0.3541  0.9812
   29MOL   C214 9230   6.383   5.077   0.217 -0.2579 -0.1427  0.4459
   29MOL   C215 9231   6.263   5.151   7.819 -0.8572  0.0818  0.1824
   29MOL   H216 9232   6.042   5.160   0.444  3.1908  0.6129  0.4207
   29MOL   H217 9233   6.150   5.287   0.399  0.2930 -1.4341 -1.4582
   29MOL   H218 9234   6.049   5.265   0.157  2.2761  0.8269  0.9678
   29MOL   H219 9235   6.297   5.263   0.182  3.7001 -1.2831  4.1036
   29MOL   H220 9236   6.484   5.089   0.178 -0.6130  0.2900 -0.3675
   29MOL   H221 9237   6.346   4.976   0.206 -0.7134 -0.2389  2.7164
   29MOL   H222 9238   6.387   5.092   0.325 -1.2649 -1.5416  0.6839
   29MOL   H223 9239   6.254   5.048   7.783 -1.4484  0.0258  0.4908
   29MOL   H224 9240   6.350   5.187   7.764  2.9351 -2.5646  4.0662
   29MOL   H225 9241   6.175   5.206   7.786  0.2704  1.3971 -0.6448
   29MOL   C226 9242   5.928   5.103   0.209 -1.1939  0.0687 -0.0068
   29MOL   C227 9243   5.866   5.119   0.073  0.2773 -0.2016  0.3778
   29MOL   O228 9244   5.814   5.258   0.078  0.3226 -0.0591  0.4848
   29MOL   C229 9245   5.799   5.326   7.775  0.3988 -0.2450 -0.1231
   29MOL   C230 9246   5.873   5.462   7.804  0.0888  0.1236  0.6563
   29MOL   C231 9247   5.656   5.338   7.737  0.2227  0.2012 -0.0629
   29MOL   H232 9248   5.854   5.116   0.288 -0.4554 -1.0410  0.8904
   29MOL   H233 9249   5.964   5.000   0.219  0.8161  0.3933 -3.1703
   29MOL   H234 9250   5.935   5.118   7.809 -0.3877 -0.5509 -0.1759
   29MOL   H235 9251   5.849   5.290   7.685 -5.3661 -2.1681 -2.7786
   29MOL   H236 9252   5.813   5.521   0.052  1.4082  2.3264 -0.0137
   29MOL   H237 9253   5.968   5.449   0.036 -0.5285  0.1861  1.8072
   29MOL   H238 9254   5.883   5.525   7.715 -1.9635 -1.2148 -0.5572
   29MOL   H239 9255   5.643   5.387   7.641  1.1748 -0.4972 -0.5604
   29MOL   H240 9256   5.600   5.388   7.815  0.2634  0.4219 -0.1760
   29MOL   H241 9257   5.614   5.237   7.738  1.2406 -0.2368  0.5816
   29MOL   C242 9258   5.744   5.021   0.044 -0.2393 -0.3385 -0.0941
   29MOL   C243 9259   5.780   4.866   0.054 -0.2599 -0.1824 -0.1032
   29MOL   O244 9260   5.886   4.851   7.781  0.0916 -0.0119  0.1181
   29MOL   C245 9261   5.960   4.729   7.791 -0.1759 -0.9410 -1.5138
   29MOL   C246 9262   5.979   4.684   7.649  0.3074  0.3451  0.0923
   29MOL   C247 9263   6.096   4.765   0.032  0.0783  0.0387  0.5602
   29MOL   H248 9264   5.665   5.048   0.115 -0.3524  1.5098 -0.9186
   29MOL   H249 9265   5.708   5.037   7.763 -0.6067 -1.0494 -0.0853
   29MOL   H250 9266   5.813   4.839   0.154  1.9554  2.1769 -0.1578
   29MOL   H251 9267   5.903   4.651   0.022  0.2149  0.5416  1.2796
   29MOL   H252 9268   6.025   4.585   7.645 -1.3806 -0.4535  0.1011
   29MOL   H253 9269   5.887   4.659   7.596  1.5153 -1.3680 -1.2660
   29MOL   H254 9270   6.045   4.746   7.588  1.6032 -0.1042  1.0024
   29MOL   H255 9271   6.079   4.796   0.136 -2.6154  1.5471 -0.2754
   29MOL   H256 9272   6.163   4.679   0.032 -0.6200 -0.5431  2.5949
   29MOL   H257 9273   6.152   4.834   7.790 -0.8116 -0.2410 -0.5602
   29MOL   C258 9274   5.668   4.772   0.019 -1.0747 -1.0522  0.2494
   29MOL   C259 9275   5.540   4.789   0.091  0.1184  0.0855 -0.3689
   29MOL   O260 9276   5.576   4.775   0.231  0.0015  0.2789  0.0047
   29MOL   C261 9277   5.495   4.838   0.335  0.5318  0.3503  0.2224
   29MOL   C262 9278   5.445   4.725   0.419  0.8750 -0.9351  0.2363
   29MOL   C263 9279   5.572   4.944   0.408  0.3253 -0.6628 -0.2467
   29MOL   H264 9280   5.649   4.788   7.733  0.2984 -1.0117 -0.0021
   29MOL   H265 9281   5.692   4.666   0.034  0.1513 -0.9204 -0.6972
   29MOL   H266 9282   5.499   4.889   0.077  1.2891  0.5215 -0.8179
   29MOL   H267 9283   5.406   4.885   0.293 -0.2701  0.3692  1.8749
   29MOL   H268 9284   5.400   4.646   0.359  0.2885 -0.0961 -0.4320
   29MOL   H269 9285   5.372   4.763   0.491  1.0197  3.7095 -1.8654
   29MOL   H270 9286   5.525   4.684   0.480 -0.1722 -4.6289 -0.7453
   29MOL   H271 9287   5.644   4.897   0.474 -0.1805  0.4566  1.1503
   29MOL   H272 9288   5.626   5.001   0.332  0.3134  0.2416  0.4096
   29MOL   H273 9289   5.514   5.019   0.462 -1.6278 -2.0129 -0.4471
   29MOL   C274 9290   5.435   4.681   0.051 -0.8690  0.0368  0.1067
   29MOL   C275 9291   5.287   4.732   0.084 -0.1490  0.2022 -0.2068
   29MOL   O276 9292   5.254   4.823   7.802  0.4667 -0.1096 -0.1342
   29MOL   C277 9293   5.151   4.912   0.001  0.9300  0.1911 -0.6276
   29MOL   C278 9294   5.122   4.956   7.681 -0.5096  0.8042  0.3961
   29MOL   C279 9295   5.208   5.037   0.064  0.0180  0.0741 -0.5408
   29MOL   H280 9296   5.435   4.661   7.764  0.7294  0.2183  0.0661
   29MOL   H281 9297   5.471   4.586   0.090  0.0430  0.1120 -0.5371
   29MOL   H282 9298   5.276   4.786   0.178 -3.1932 -1.3653  0.4121
   29MOL   H283 9299   5.069   4.856   0.048  1.8248  0.8232  1.7323
   29MOL   H284 9300   5.087   4.874   7.619  2.4447 -1.1958  1.2067
   29MOL   H285 9301   5.043   5.030   7.690  0.0533  1.3075  1.3014
   29MOL   H286 9302   5.205   5.007   7.631  1.1075 -0.7808  1.3745
   29MOL   H287 9303   5.292   5.068   0.003 -2.1067  2.8047 -2.1942
   29MOL   H288 9304   5.242   5.024   0.167 -0.4905  0.1937 -0.3543
   29MOL   H289 9305   5.128   5.111   0.066 -0.8479 -0.8700  1.6172
   29MOL   C290 9306   5.191   4.614   0.081  0.1469  0.0499 -0.1649
   29MOL   C291 9307   5.070   4.607   0.171  0.0214  0.8322 -0.6550
   29MOL   O292 9308   5.011   4.472   0.156 -0.3064 -0.6620  0.2034
   29MOL   C293 9309   4.873   4.457   0.128  0.3861  0.6451  1.1627
   29MOL   C294 9310   4.845   4.312   0.173 -0.5665 -0.6002 -0.4442
   29MOL   C295 9311   4.857   4.463   7.793  0.1961 -0.1489  0.0814
   29MOL   H296 9312   5.244   4.524   0.113  0.7852  0.3806 -0.3043
   29MOL   H297 9313   5.168   4.588   7.798 -0.3165 -1.0643  0.2062
   29MOL   H298 9314   4.996   4.684   0.150 -2.8814 -1.2933  1.3941
   29MOL   H299 9315   4.801   4.527   0.172 -2.4481 -1.1770 -0.3922
   29MOL   H300 9316   4.873   4.307   0.278  1.8986 -3.5833 -1.1714
   29MOL   H301 9317   4.741   4.282   0.162 -0.8700  0.0633  0.5779
   29MOL   H302 9318   4.916   4.246   0.124  0.3046 -0.2818  0.3676
   29MOL   H303 9319   4.753   4.447   7.764  0.2722  0.3138 -0.4467
   29MOL   H304 9320   4.890   4.560   7.755  2.5432 -0.3144  1.6265
   29MOL   H305 9321   4.919   4.390   7.742 -0.3240  1.3451 -2.7840
   29MOL   C306 9322   5.113   4.621   0.319 -0.4007  0.3181 -0.3733
   29MOL   C307 9323   5.014   4.574   0.423  0.6305 -0.0335  0.5610
   29MOL   O308 9324   5.060   4.597   0.556 -0.1747 -0.3806  0.3305
   29MOL   C309 9325   5.013   4.522   0.657 -0.1990 -0.0693 -0.0829
   29MOL   C310 9326   5.111   4.535   0.779 -0.2432 -0.0133  0.3280
   29MOL   C311 9327   4.877   4.577   0.701 -0.3576  0.0856  0.3897
   29MOL   H312 9328   5.138   4.726   0.338  1.8053 -0.6166  1.9873
   29MOL   H313 9329   5.204   4.564   0.334  0.5147  2.1947  1.5599
   29MOL   H314 9330   4.916   4.619   0.406  1.4960  2.2805  1.5055
   29MOL   H315 9331   5.002   4.417   0.629 -2.0916 -0.1343  0.8668
   29MOL   H316 9332   5.054   4.518   0.871  2.1387 -0.3625  1.7976
   29MOL   H317 9333   5.161   4.632   0.784  0.9215 -0.4107 -2.7278
   29MOL   H318 9334   5.181   4.451   0.782  0.4023  0.5208  0.5146
   29MOL   H319 9335   4.844   4.542   0.798 -0.0876  0.6759  0.6982
   29MOL   H320 9336   4.807   4.563   0.619 -0.1675 -2.2099  0.5824
   29MOL   H321 9337   4.888   4.683   0.723 -1.4995  0.2180  0.3566
   29MOL   H322 9338   4.997   4.468   0.407 -0.6870  0.3303 -0.5187
   30MOL     C1 9339   0.836   6.144   6.289  0.3217 -0.9415  0.3224
   30MOL     C2 9340   0.935   6.125   6.405 -0.4869 -0.0915 -0.6454
   30MOL     O3 9341   0.975   5.989   6.391 -0.1163  0.2974  0.1678
   30MOL     C4 9342   0.950   5.898   6.494  0.1808 -0.0222  0.6042
   30MOL     C5 9343   1.099   5.864   6.509  0.3421 -0.4761 -0.4189
   30MOL     C6 9344   0.854   5.792   6.432  0.2152 -0.9636  0.3385
   30MOL     H7 9345   0.884   6.138   6.191  2.0245 -2.3116  1.2231
   30MOL     H8 9346   0.748   6.079   6.294  1.1152 -1.9722  1.1221
   30MOL     H9 9347   0.887   6.149   6.499  0.1675  0.2790 -0.4093
   30MOL    H10 9348   0.908   5.938   6.587 -0.9647  1.5534 -0.5554
   30MOL    H11 9349   1.131   5.807   6.422  1.2363 -1.6786  0.6585
   30MOL    H12 9350   1.167   5.948   6.525 -1.3827  0.5853  1.5802
   30MOL    H13 9351   1.108   5.800   6.597  2.9415 -0.5564 -0.6904
   30MOL    H14 9352   0.826   5.710   6.498 -0.4697 -1.6312 -0.7703
   30MOL    H15 9353   0.758   5.836   6.408  0.4246  1.0250  2.9123
   30MOL    H16 9354   0.888   5.751   6.337 -6.0214 -2.9955 -1.2728
   30MOL    H17 9355   0.808   6.249   6.298  0.4794 -0.7669 -1.0964
   30MOL    C18 9356   1.051   6.227   6.377  0.0584  0.1333 -0.5537
   30MOL    C19 9357   1.065   6.315   6.503  0.3836 -0.2343  1.2375
   30MOL    O20 9358   0.941   6.375   6.516  0.4920  0.0541  0.3905
   30MOL    C21 9359   0.908   6.461   6.618  0.2678  0.4805  0.1572
   30MOL    C22 9360   0.913   6.380   6.750 -0.3556 -0.2023 -0.4399
   30MOL    C23 9361   0.763   6.516   6.593  0.2343  0.2887 -0.1348
   30MOL    H24 9362   1.133   6.163   6.344 -2.0033 -2.4883 -0.7646
   30MOL    H25 9363   1.037   6.297   6.295 -1.9344  0.7958  0.3298
   30MOL    H26 9364   1.089   6.248   6.586  0.4615  1.6786  2.7893
   30MOL    H27 9365   0.978   6.544   6.615  3.6264 -2.1644  1.4277
   30MOL    H28 9366   1.012   6.344   6.775 -0.4704 -0.1522  0.0971
   30MOL    H29 9367   0.887   6.448   6.831 -0.6723  0.0416 -0.7422
   30MOL    H30 9368   0.852   6.290   6.755 -0.0374 -0.3673  0.4524
   30MOL    H31 9369   0.689   6.440   6.566  0.5413 -1.6766  4.1331
   30MOL    H32 9370   0.771   6.577   6.502  1.8327 -1.2686 -1.0736
   30MOL    H33 9371   0.728   6.574   6.679 -0.4689  0.6597 -0.6600
   30MOL    C34 9372   1.175   6.430   6.499 -0.8114  0.9429 -0.3178
   30MOL    C35 9373   1.324   6.383   6.481  0.5912 -0.6377  0.7580
   30MOL    O36 9374   1.425   6.486   6.494 -0.3860  0.3994 -0.3946
   30MOL    C37 9375   1.442   6.578   6.386  0.6384  0.3488  0.7118
   30MOL    C38 9376   1.518   6.696   6.450 -0.6262  0.5591  0.3573
   30MOL    C39 9377   1.534   6.512   6.281  0.1970 -0.5365  0.2014
   30MOL    H40 9378   1.171   6.481   6.596 -0.2558  2.1791 -0.9295
   30MOL    H41 9379   1.148   6.511   6.432 -1.4524 -0.2708 -1.5418
   30MOL    H42 9380   1.331   6.331   6.386 -1.6396 -0.8198  0.6658
   30MOL    H43 9381   1.350   6.618   6.344 -1.3574 -3.5860  1.1804
   30MOL    H44 9382   1.617   6.665   6.483 -0.4761  0.4713 -0.1728
   30MOL    H45 9383   1.459   6.730   6.534  0.0648  0.0032  1.0758
   30MOL    H46 9384   1.541   6.779   6.383 -0.3235  0.5704  0.4740
   30MOL    H47 9385   1.484   6.439   6.217  3.3581 -0.6657 -2.2544
   30MOL    H48 9386   1.575   6.584   6.211 -1.2692  1.0072  0.9058
   30MOL    H49 9387   1.619   6.461   6.326  0.9636  0.9352  0.4448
   30MOL    C50 9388   1.360   6.283   6.587 -0.3326  0.0022  0.0723
   30MOL    C51 9389   1.478   6.194   6.557  0.0317 -0.2273 -0.0816
   30MOL    O52 9390   1.441   6.120   6.446  0.3744 -0.2813  0.0015
   30MOL    C53 9391   1.537   6.045   6.373  0.3643  0.5950 -0.0705
   30MOL    C54 9392   1.524   6.097   6.222 -0.3005 -0.2063 -0.6559
   30MOL    C55 9393   1.493   5.893   6.384 -0.1540 -0.0761  0.3011
   30MOL    H56 9394   1.371   6.325   6.687  1.4944  0.6209 -0.3609
   30MOL    H57 9395   1.292   6.198   6.588  1.5597 -1.5956 -1.6564
   30MOL    H58 9396   1.562   6.259   6.532 -0.1301 -0.5023 -1.3627
   30MOL    H59 9397   1.637   6.055   6.415 -0.1301 -1.5660  1.7437
   30MOL    H60 9398   1.559   6.200   6.216  2.6936 -1.0690  1.1284
   30MOL    H61 9399   1.422   6.093   6.183 -0.7110  1.0210  0.2672
   30MOL    H62 9400   1.585   6.029   6.163  1.1807  0.2939  0.2822
   30MOL    H63 9401   1.484   5.863   6.489  2.7761 -0.1133  0.5699
   30MOL    H64 9402   1.568   5.832   6.336  0.4377 -1.2303  2.6107
   30MOL    H65 9403   1.403   5.879   6.324  0.9123  0.1757 -1.3847
   30MOL    C66 9404   1.515   6.101   6.677  0.4968  1.1597  0.3194
   30MOL    C67 9405   1.559   6.163   6.807  0.2457 -0.6499  0.4396
   30MOL    O68 9406   1.684   6.229   6.796  0.4160 -0.0460  0.3289
   30MOL    C69 9407   1.679   6.368   6.769  0.3230 -0.2825  0.0446
   30MOL    C70 9408   1.720   6.423   6.908 -0.3578  0.2291  0.3029
   30MOL    C71 9409   1.778   6.415   6.662 -0.1179  0.2200  0.1602
   30MOL    H72 9410   1.427   6.037   6.687 -0.1233  1.7757 -0.9400
   30MOL    H73 9411   1.592   6.027   6.657 -1.1383 -0.6075  0.4795
   30MOL    H74 9412   1.481   6.231   6.843  0.3018  0.6484 -1.7996
   30MOL    H75 9413   1.583   6.412   6.743  0.7120  0.6718  0.1983
   30MOL    H76 9414   1.824   6.396   6.926 -0.6001  0.0045  1.3677
   30MOL    H77 9415   1.713   6.532   6.912 -0.3006  0.3525 -2.0829
   30MOL    H78 9416   1.665   6.387   6.994 -0.2642  0.1314  0.3200
   30MOL    H79 9417   1.775   6.349   6.575  0.6362 -0.0916  0.3703
   30MOL    H80 9418   1.880   6.417   6.698 -0.1098 -0.3513  0.1660
   30MOL    H81 9419   1.736   6.509   6.623 -0.1817  0.1191 -0.0197
   30MOL    C82 9420   1.565   6.055   6.917 -0.2800 -0.3872  0.1608
   30MOL    C83 9421   1.573   6.095   7.065  0.6001  0.3378  0.0324
   30MOL    O84 9422   1.451   6.164   7.104 -0.2677  0.7334 -0.3363
   30MOL    C85 9423   1.455   6.259   7.210  0.2466 -0.0382  0.4960
   30MOL    C86 9424   1.366   6.215   7.325  0.4852 -0.4659 -0.1401
   30MOL    C87 9425   1.414   6.390   7.149 -0.0492  0.1014 -0.3006
   30MOL    H88 9426   1.483   5.985   6.901 -0.1308 -0.5589  0.1483
   30MOL    H89 9427   1.651   5.996   6.887  0.3122  0.3595  0.3584
   30MOL    H90 9428   1.657   6.164   7.074  1.2843 -0.7118  1.8433
   30MOL    H91 9429   1.557   6.265   7.250 -0.3425  1.1140  1.8922
   30MOL    H92 9430   1.340   6.109   7.325  1.6428 -0.7820  1.7636
   30MOL    H93 9431   1.408   6.248   7.420 -0.4257  1.5913 -0.4205
   30MOL    H94 9432   1.265   6.253   7.308 -0.8290 -4.2554 -1.3976
   30MOL    H95 9433   1.313   6.384   7.109  0.1173 -0.4705 -0.6468
   30MOL    H96 9434   1.409   6.462   7.231  2.3032  0.8396 -0.7631
   30MOL    H97 9435   1.487   6.430   7.078  0.8366 -1.5112 -0.3343
   30MOL    C98 9436   1.584   5.974   7.161 -0.0844  0.3084  0.0421
   30MOL    C99 9437   1.720   5.906   7.184 -0.1369  0.2559  0.2469
   30MOL   O100 9438   1.821   5.995   7.220  0.1880  0.2039 -0.1122
   30MOL   C101 9439   1.803   6.077   7.335 -0.1040  0.0001  0.1229
   30MOL   C102 9440   1.870   6.219   7.303 -0.4593 -0.6975  0.6808
   30MOL   C103 9441   1.858   6.012   7.460 -0.0306  0.5074 -0.2868
   30MOL   H104 9442   1.540   6.005   7.256  1.4479 -0.5150  1.0447
   30MOL   H105 9443   1.519   5.895   7.125 -0.1539 -0.1104  1.0626
   30MOL   H106 9444   1.709   5.843   7.273  0.2301 -0.2978 -0.0924
   30MOL   H107 9445   1.700   6.102   7.360 -0.1479  0.1057 -0.1555
   30MOL   H108 9446   1.809   6.279   7.236 -2.5004  0.6868  3.6602
   30MOL   H109 9447   1.972   6.212   7.266 -0.0102 -2.2780  2.1168
   30MOL   H110 9448   1.874   6.282   7.393 -0.1199 -0.3362  0.4146
   30MOL   H111 9449   1.799   5.922   7.481 -1.4969  2.2178  3.3279
   30MOL   H112 9450   1.848   6.069   7.552 -0.2703  0.3949 -0.2418
   30MOL   H113 9451   1.964   5.990   7.445  0.6283  0.9853  3.2749
   30MOL   C114 9452   1.773   5.826   7.065  0.2817 -0.2993  0.5680
   30MOL   C115 9453   1.700   5.693   7.034 -0.3888  0.3434 -0.7319
   30MOL   O116 9454   1.670   5.685   6.893 -0.0117  0.1844  0.4372
   30MOL   C117 9455   1.559   5.601   6.865 -0.5478  0.5041  0.5943
   30MOL   C118 9456   1.590   5.540   6.727 -0.1029  0.0919  0.1048
   30MOL   C119 9457   1.432   5.691   6.868 -0.0052  0.5300  0.4317
   30MOL   H120 9458   1.874   5.806   7.100  0.2094 -1.1677  0.2911
   30MOL   H121 9459   1.799   5.885   6.978  3.6431 -0.2611  1.5429
   30MOL   H122 9460   1.610   5.681   7.094 -0.1733 -1.4439 -0.7190
   30MOL   H123 9461   1.536   5.517   6.930  0.8913 -0.7401 -0.4661
   30MOL   H124 9462   1.685   5.487   6.731 -0.7414 -1.3146 -2.0244
   30MOL   H125 9463   1.594   5.617   6.650  0.9815  2.6091  2.6280
   30MOL   H126 9464   1.515   5.467   6.697 -1.3698  0.4612  2.2948
   30MOL   H127 9465   1.413   5.719   6.971 -2.5288 -2.1338  0.7858
   30MOL   H128 9466   1.341   5.636   6.842  0.1987 -0.2921  1.4351
   30MOL   H129 9467   1.435   5.772   6.796 -2.4848  0.6040  0.3480
   30MOL   C130 9468   1.784   5.563   7.066 -0.1757  0.7462 -0.3258
   30MOL   C131 9469   1.835   5.545   7.211  0.0225  0.5807 -0.2110
   30MOL   O132 9470   1.917   5.428   7.207  0.3249  0.4854  0.2606
   30MOL   C133 9471   2.059   5.420   7.196  0.7027 -0.2766  0.2129
   30MOL   C134 9472   2.113   5.277   7.219  0.2407 -0.2400  0.1502
   30MOL   C135 9473   2.102   5.468   7.050  0.1627 -0.3396  1.0067
   30MOL   H136 9474   1.874   5.573   7.005  0.7444 -0.9243  0.6933
   30MOL   H137 9475   1.737   5.475   7.023  2.6317  0.0623 -2.0971
   30MOL   H138 9476   1.885   5.633   7.251  0.4735  0.3343 -0.2289
   30MOL   H139 9477   2.096   5.475   7.283 -1.4021 -0.1214  1.0510
   30MOL   H140 9478   2.075   5.258   7.319  0.3941  2.4601  0.7558
   30MOL   H141 9479   2.221   5.287   7.224  0.4486 -2.3603  0.4265
   30MOL   H142 9480   2.083   5.202   7.146 -1.4543  0.9407 -0.3875
   30MOL   H143 9481   2.037   5.428   6.972  0.2148  0.5953  0.4811
   30MOL   H144 9482   2.086   5.575   7.041 -1.8710 -0.7590 -0.5674
   30MOL   H145 9483   2.208   5.445   7.033  0.0432  0.8639 -1.5760
   30MOL   C146 9484   1.721   5.515   7.310 -0.8444  0.5893  0.2143
   30MOL   C147 9485   1.771   5.472   7.450  0.3168 -0.0469  0.3991
   30MOL   O148 9486   1.821   5.597   7.498  0.5943 -0.4509 -0.2688
   30MOL   C149 9487   1.904   5.596   7.616 -0.7046  0.1419  0.4067
   30MOL   C150 9488   1.841   5.670   7.744  0.1105  0.0074 -0.0120
   30MOL   C151 9489   2.033   5.662   7.571 -0.1363 -0.5679 -0.1168
   30MOL   H152 9490   1.657   5.438   7.266  1.7532  0.0519 -2.8425
   30MOL   H153 9491   1.659   5.605   7.313  0.3201  1.4175 -0.2862
   30MOL   H154 9492   1.847   5.394   7.439  1.6172  0.8216  2.7759
   30MOL   H155 9493   1.919   5.492   7.648  1.3117  0.4746  0.6071
   30MOL   H156 9494   1.903   5.677   0.012 -0.4614 -0.8916  0.4637
   30MOL   H157 9495   1.740   5.636   7.764 -1.0683  2.1973 -1.8990
   30MOL   H158 9496   1.816   5.772   7.715  1.8716  0.6475  0.6710
   30MOL   H159 9497   2.100   5.658   7.657 -1.8082 -2.0738  1.1549
   30MOL   H160 9498   2.015   5.765   7.541 -1.8781 -0.6706  0.5056
   30MOL   H161 9499   2.083   5.610   7.489  0.0383 -1.2700  0.4317
   30MOL   C162 9500   1.653   5.430   7.534 -0.3582  0.4743  0.4155
   30MOL   C163 9501   1.604   5.283   7.511 -0.4677  0.2381  0.3377
   30MOL   O164 9502   1.716   5.200   7.544 -0.2796 -0.3256 -0.1218
   30MOL   C165 9503   1.775   5.121   7.436  0.3264 -0.3980  0.0348
   30MOL   C166 9504   1.681   5.012   7.399  0.2467  0.6427  0.1615
   30MOL   C167 9505   1.909   5.074   7.469  0.6653 -0.2000 -0.0062
   30MOL   H168 9506   1.675   5.435   7.641 -0.5779 -0.5838  0.5130
   30MOL   H169 9507   1.571   5.501   7.521 -0.3164  0.2826 -0.9358
   30MOL   H170 9508   1.561   5.270   7.411  0.2307 -0.5947  0.1347
   30MOL   H171 9509   1.792   5.181   7.346  0.1341 -0.5310 -0.0914
   30MOL   H172 9510   1.719   4.941   7.326  0.7817  0.3444  0.7182
   30MOL   H173 9511   1.589   5.055   7.360  0.6898 -0.2756 -1.9238
   30MOL   H174 9512   1.658   4.964   7.494  1.8342 -1.4521 -0.4847
   30MOL   H175 9513   1.921   5.000   7.548 -0.8732  0.1660  0.5877
   30MOL   H176 9514   1.964   5.164   7.495  3.0865 -1.0753 -1.8655
   30MOL   H177 9515   1.963   5.028   7.386 -1.1149 -2.2739 -0.0672
   30MOL   C178 9516   1.486   5.233   7.597 -0.2640 -0.8677  0.0738
   30MOL   C179 9517   1.357   5.298   7.557 -0.0907 -0.5095  0.3699
   30MOL   O180 9518   1.247   5.213   7.583  0.2089 -0.0075  0.1436
   30MOL   C181 9519   1.190   5.130   7.485 -0.2073  0.1322 -0.8591
   30MOL   C182 9520   1.052   5.092   7.527  0.4707 -1.0361 -0.8739
   30MOL   C183 9521   1.270   5.007   7.449  0.5949  0.0694 -0.0583
   30MOL   H184 9522   1.506   5.249   7.703 -1.8040  0.3876  0.1935
   30MOL   H185 9523   1.468   5.126   7.580 -2.9059 -0.6892  1.4667
   30MOL   H186 9524   1.356   5.321   7.450  4.2091 -2.9148 -0.3000
   30MOL   H187 9525   1.176   5.188   7.394 -0.0435  0.7480 -0.4944
   30MOL   H188 9526   0.989   5.181   7.533  1.7096 -0.1843 -0.4388
   30MOL   H189 9527   1.059   5.051   7.628  2.4924  1.1661 -0.0846
   30MOL   H190 9528   1.007   5.024   7.455 -2.8417  1.1860 -1.0050
   30MOL   H191 9529   1.207   4.943   7.389  1.1369 -0.8784  0.3627
   30MOL   H192 9530   1.317   4.961   7.537 -1.0603 -2.2120 -0.3151
   30MOL   H193 9531   1.344   5.039   7.376  1.0955  1.5160  1.0430
   30MOL   C194 9532   1.328   5.421   7.646 -0.1229 -0.7655  0.3953
   30MOL   C195 9533   1.248   5.538   7.574 -0.3291 -0.2532  0.1065
   30MOL   O196 9534   1.320   5.602   7.469  0.0052 -0.2664  0.3630
   30MOL   C197 9535   1.255   5.625   7.343 -0.2442  0.4523  0.3955
   30MOL   C198 9536   1.343   5.725   7.269 -0.0667 -0.2270 -0.2199
   30MOL   C199 9537   1.250   5.495   7.265 -0.4918  0.1505  0.5313
   30MOL   H200 9538   1.279   5.400   7.741  1.1554  1.5654  1.6120
   30MOL   H201 9539   1.417   5.470   7.684 -1.3886  1.5955  0.3947
   30MOL   H202 9540   1.166   5.484   7.526  0.2463 -0.3770 -0.7420
   30MOL   H203 9541   1.157   5.671   7.344 -0.0902  0.8097  3.1438
   30MOL   H204 9542   1.345   5.813   7.332 -0.3503 -0.2204 -0.2196
   30MOL   H205 9543   1.442   5.683   7.251 -0.0345 -1.2794  2.1789
   30MOL   H206 9544   1.306   5.750   7.169  0.0918 -0.6553 -0.3874
   30MOL   H207 9545   1.182   5.424   7.312 -1.2430 -0.3871 -1.3192
   30MOL   H208 9546   1.210   5.502   7.164 -1.1833 -1.7519  0.6523
   30MOL   H209 9547   1.354   5.465   7.251  1.1572  5.3322  0.8433
   30MOL   C210 9548   1.195   5.637   7.675  0.3896  0.6129  0.3528
   30MOL   C211 9549   1.298   5.724   7.739  0.4924 -0.4275 -0.4960
   30MOL   O212 9550   1.329   5.832   7.655  0.3472  0.4914 -0.2621
   30MOL   C213 9551   1.461   5.879   7.675  0.2213 -0.7025 -0.4714
   30MOL   C214 9552   1.553   5.819   7.569 -0.2511  0.5130 -0.2099
   30MOL   C215 9553   1.460   6.039   7.670  0.1300 -0.1640 -0.5647
   30MOL   H216 9554   1.139   5.576   7.746 -0.4961 -0.0104 -0.8430
   30MOL   H217 9555   1.129   5.710   7.628  0.8973  2.5372  2.5326
   30MOL   H218 9556   1.391   5.668   7.750  1.0488  0.5207 -0.2896
   30MOL   H219 9557   1.500   5.861   7.775 -0.2320  0.3411 -0.1091
   30MOL   H220 9558   1.553   5.711   7.579 -2.5618  0.5583  0.5040
   30MOL   H221 9559   1.659   5.839   7.586  0.2161 -0.7835 -1.5656
   30MOL   H222 9560   1.531   5.854   7.468  3.4625  1.4333 -0.7737
   30MOL   H223 9561   1.555   6.092   7.678  0.7181 -1.2504 -0.3309
   30MOL   H224 9562   1.390   6.079   7.743 -0.1624 -0.6816 -0.5658
   30MOL   H225 9563   1.427   6.058   7.568 -2.0685 -0.3239  0.0913
   30MOL   C226 9564   1.261   5.770   0.061 -0.2195 -0.0236 -0.2373
   30MOL   C227 9565   1.317   5.674   0.169 -0.2947 -0.9558 -0.2324
   30MOL   O228 9566   1.213   5.667   0.268 -0.3949 -0.2114 -0.2419
   30MOL   C229 9567   1.131   5.550   0.262  0.0306  0.2675  0.4869
   30MOL   C230 9568   0.995   5.590   0.208  0.0112 -0.9770 -0.5274
   30MOL   C231 9569   1.135   5.472   0.393 -0.4432  0.2936 -0.4963
   30MOL   H232 9570   1.155   5.791   0.068 -0.4226  0.0346 -2.9207
   30MOL   H233 9571   1.305   5.869   0.067  1.3597 -0.7042 -0.1054
   30MOL   H234 9572   1.348   5.578   0.128  1.1755 -0.2157 -0.8712
   30MOL   H235 9573   1.179   5.482   0.192  1.7057 -0.0030  1.8739
   30MOL   H236 9574   0.930   5.506   0.231 -1.3168  1.2397  4.4199
   30MOL   H237 9575   0.950   5.674   0.261 -0.4363 -0.5961 -1.4928
   30MOL   H238 9576   1.002   5.616   0.102 -0.9786  0.1854 -0.3199
   30MOL   H239 9577   1.096   5.371   0.385  1.2114 -0.2489 -2.0522
   30MOL   H240 9578   1.074   5.526   0.466  0.8784 -0.6673  1.3865
   30MOL   H241 9579   1.231   5.452   0.442 -0.0904  2.0543 -0.4078
   30MOL   C242 9580   1.429   5.734   0.251 -1.2413  0.0244  0.3924
   30MOL   C243 9581   1.498   5.628   0.334 -0.7853 -0.1488 -0.1943
   30MOL   O244 9582   1.591   5.689   0.429  0.2806 -0.0596  0.8796
   30MOL   C245 9583   1.566   5.658   0.563  0.3529 -0.2609 -0.6588
   30MOL   C246 9584   1.702   5.663   0.641  0.3700 -0.2902  0.4484
   30MOL   C247 9585   1.466   5.758   0.621  0.1342 -0.0216  0.3610
   30MOL   H248 9586   1.501   5.771   0.178 -1.4691 -1.6239 -0.6895
   30MOL   H249 9587   1.408   5.820   0.315 -1.2601  0.0547  0.3453
   30MOL   H250 9588   1.418   5.578   0.388  0.9560 -0.7819  1.8989
   30MOL   H251 9589   1.532   5.557   0.583  0.3876  0.2186  2.0596
   30MOL   H252 9590   1.775   5.597   0.593  0.5592 -0.8079  1.4331
   30MOL   H253 9591   1.747   5.762   0.651  0.4613 -0.2912  0.0530
   30MOL   H254 9592   1.697   5.634   0.746 -0.6752 -1.5686  0.0565
   30MOL   H255 9593   1.492   5.860   0.592  1.7993 -1.2129 -2.4884
   30MOL   H256 9594   1.365   5.733   0.589  1.4921 -0.6511 -3.7800
   30MOL   H257 9595   1.461   5.752   0.730  2.2782 -1.4860  0.4034
   30MOL   C258 9596   1.594   5.535   0.244  0.5568 -0.3342 -0.8752
   30MOL   C259 9597   1.638   5.395   0.298 -0.1988  0.2190 -0.4621
   30MOL   O260 9598   1.726   5.334   0.205  0.1771  0.5946  0.4152
   30MOL   C261 9599   1.864   5.372   0.199  0.2602 -0.5394  0.8341
   30MOL   C262 9600   1.943   5.315   0.318 -0.3990 -0.1255  0.4111
   30MOL   C263 9601   1.911   5.317   0.066 -0.3347  0.5761 -0.0676
   30MOL   H264 9602   1.558   5.515   0.143  0.8711 -0.5245 -0.9492
   30MOL   H265 9603   1.688   5.590   0.235  1.6939 -2.0646  0.2722
   30MOL   H266 9604   1.682   5.395   0.397  0.2116  0.5109 -0.6421
   30MOL   H267 9605   1.875   5.481   0.202  0.1075 -0.4490 -1.1669
   30MOL   H268 9606   1.916   5.372   0.407 -2.9952 -0.7572  0.0856
   30MOL   H269 9607   2.049   5.332   0.299 -0.6094  1.0953  0.2560
   30MOL   H270 9608   1.929   5.208   0.328  1.2188 -0.4758 -0.9200
   30MOL   H271 9609   1.839   5.352   7.812 -0.2333 -1.7599 -1.3033
   30MOL   H272 9610   2.007   5.366   0.051  0.8410 -1.3549  1.0057
   30MOL   H273 9611   1.921   5.209   0.064 -0.9685  0.5004  0.6314
   30MOL   C274 9612   1.516   5.294   0.288  0.0940  0.0424  0.0689
   30MOL   C275 9613   1.525   5.180   0.394 -0.3227  0.3515 -0.2278
   30MOL   O276 9614   1.529   5.241   0.519  0.1328  0.2079 -0.0083
   30MOL   C277 9615   1.579   5.156   0.626 -0.0217 -0.8026  0.8108
   30MOL   C278 9616   1.500   5.184   0.758 -0.4847 -0.4328 -0.1865
   30MOL   C279 9617   1.721   5.204   0.636 -0.1631 -0.1344 -0.1209
   30MOL   H280 9618   1.422   5.344   0.311 -0.1269  0.2203 -1.1715
   30MOL   H281 9619   1.495   5.263   0.186  1.3893 -0.7644  0.0309
   30MOL   H282 9620   1.629   5.148   0.380 -0.9262 -0.9308 -1.9606
   30MOL   H283 9621   1.585   5.050   0.604 -0.8810 -0.8057  0.5980
   30MOL   H284 9622   1.532   5.126   0.846 -2.7776  0.7493  1.4785
   30MOL   H285 9623   1.495   5.290   0.781 -2.1518 -0.3832 -0.7572
   30MOL   H286 9624   1.405   5.145   0.723  0.9845 -2.7884 -1.7887
   30MOL   H287 9625   1.763   5.170   0.730  0.8872 -1.9219 -1.2094
   30MOL   H288 9626   1.719   5.313   0.627  1.3552  0.0091  1.1334
   30MOL   H289 9627   1.778   5.157   0.556 -0.2796  0.0891 -0.3370
   30MOL   C290 9628   1.421   5.062   0.384 -0.4936  0.3817  0.9503
   30MOL   C291 9629   1.452   4.963   0.277  0.0069 -0.0278  0.1354
   30MOL   O292 9630   1.567   4.896   0.315  0.0150  0.5142 -0.0092
   30MOL   C293 9631   1.670   4.862   0.215 -0.1994  0.2556 -0.0944
   30MOL   C294 9632   1.753   4.760   0.283 -0.4834  0.7697 -0.4776
   30MOL   C295 9633   1.752   4.991   0.171 -0.1691  0.7980 -0.6614
   30MOL   H296 9634   1.325   5.109   0.365  0.0207  0.9258 -0.4078
   30MOL   H297 9635   1.412   5.011   0.480  0.7656 -2.4421 -0.3771
   30MOL   H298 9636   1.480   5.017   0.187  1.0553  0.6459  0.8453
   30MOL   H299 9637   1.620   4.835   0.122 -0.7581  0.7041  0.0718
   30MOL   H300 9638   1.692   4.672   0.304  0.3264  0.1574 -0.6826
   30MOL   H301 9639   1.837   4.735   0.219  0.0377  0.1223  0.4449
   30MOL   H302 9640   1.794   4.795   0.378  0.9205  2.0888 -1.5552
   30MOL   H303 9641   1.794   5.026   0.265  0.4149  1.1345 -1.0425
   30MOL   H304 9642   1.824   4.978   0.090  0.2599 -2.5296  0.1996
   30MOL   H305 9643   1.699   5.078   0.132 -0.5031  0.3611 -1.1957
   30MOL   C306 9644   1.333   4.870   0.263  0.1506 -0.1666  0.5207
   30MOL   C307 9645   1.330   4.790   0.123 -0.9725  0.4414  0.5653
   30MOL   O308 9646   1.209   4.729   0.087 -0.3914 -0.4898  0.1357
   30MOL   C309 9647   1.208   4.644   7.795  0.4126  0.1100  0.0910
   30MOL   C310 9648   1.085   4.555   0.004 -0.0763  0.3540 -0.6958
   30MOL   C311 9649   1.190   4.714   7.657  0.2166 -0.7944  0.2345
   30MOL   H312 9650   1.242   4.931   0.262  1.3115  1.6151  0.1056
   30MOL   H313 9651   1.322   4.806   0.350 -2.1861 -0.4494  0.0520
   30MOL   H314 9652   1.357   4.859   0.043 -0.3720 -0.3388  0.0911
   30MOL   H315 9653   1.296   4.580   7.789 -0.2939 -0.9563  0.9564
   30MOL   H316 9654   1.083   4.543   0.113  0.8934  4.1458 -0.1965
   30MOL   H317 9655   1.096   4.460   7.772 -1.8959 -0.5962  0.5422
   30MOL   H318 9656   0.998   4.604   7.782 -1.1625 -0.9781 -0.0656
   30MOL   H319 9657   1.143   4.645   7.587 -2.6114  0.7331  0.5472
   30MOL   H320 9658   1.281   4.759   7.619 -0.3054  1.6837  1.7580
   30MOL   H321 9659   1.121   4.798   7.669 -1.9082 -2.0046 -2.7867
   30MOL   H322 9660   1.401   4.708   0.122  1.8981  2.8142  1.5976
   31MOL     C1 9661   2.758   4.766   4.726  0.5235 -0.8261 -0.0464
   31MOL     C2 9662   2.718   4.891   4.638  0.8730  0.5233 -0.5856
   31MOL     O3 9663   2.576   4.906   4.652  0.5370 -0.2665 -0.1089
   31MOL     C4 9664   2.510   5.004   4.573 -0.9591 -0.4550 -0.0602
   31MOL     C5 9665   2.438   5.098   4.672  0.2921 -0.4215 -0.0642
   31MOL     C6 9666   2.412   4.928   4.484 -0.7650 -0.4194  0.5587
   31MOL     H7 9667   2.864   4.759   4.749  0.5982  0.7916  0.1567
   31MOL     H8 9668   2.699   4.771   4.818  0.5835  0.7796 -0.0851
   31MOL     H9 9669   2.733   4.882   4.531  0.3162  1.1489 -0.7131
   31MOL    H10 9670   2.580   5.062   4.513 -3.7266  1.6438 -1.4240
   31MOL    H11 9671   2.405   5.181   4.610 -1.1984 -0.6906  0.3516
   31MOL    H12 9672   2.346   5.052   4.707 -0.9850  0.8327 -1.7155
   31MOL    H13 9673   2.504   5.130   4.753  0.0560  1.2363 -0.5155
   31MOL    H14 9674   2.322   4.895   4.537 -0.4885 -1.8798  0.1507
   31MOL    H15 9675   2.375   4.983   4.398  1.4583 -0.0613 -0.1967
   31MOL    H16 9676   2.457   4.840   4.438 -0.5807  0.7823 -1.5847
   31MOL    H17 9677   2.723   4.675   4.676 -0.8951 -0.3072 -0.0224
   31MOL    C18 9678   2.778   5.017   4.685 -0.0989  0.0097 -0.0955
   31MOL    C19 9679   2.929   5.024   4.709  0.3206  0.1483 -0.8038
   31MOL    O20 9680   2.967   5.159   4.736 -0.0069  0.3425 -0.8029
   31MOL    C21 9681   2.986   5.192   4.871 -0.2111 -0.4781  0.1026
   31MOL    C22 9682   2.864   5.241   4.953  0.0935 -0.1972 -0.2928
   31MOL    C23 9683   3.091   5.309   4.870 -0.2846 -0.0979  0.7689
   31MOL    H24 9684   2.767   5.092   4.606  0.5877  0.0364 -0.1714
   31MOL    H25 9685   2.728   5.068   4.767 -2.0970 -1.9132 -0.0848
   31MOL    H26 9686   2.956   4.966   4.798  3.2824  3.0500  0.2922
   31MOL    H27 9687   3.032   5.111   4.927  0.2190 -1.8736 -2.1750
   31MOL    H28 9688   2.796   5.157   4.970 -0.0356 -0.1759 -0.7003
   31MOL    H29 9689   2.889   5.276   5.053  1.2657 -0.1624 -0.5915
   31MOL    H30 9690   2.817   5.324   4.900  0.1422 -1.6381 -2.6463
   31MOL    H31 9691   3.176   5.294   4.803  0.2404 -0.0983  1.4236
   31MOL    H32 9692   3.129   5.327   4.971  0.2464 -0.5512  0.6519
   31MOL    H33 9693   3.040   5.402   4.845 -1.6730 -1.2674 -0.7796
   31MOL    C34 9694   3.001   4.970   4.588 -0.1139 -0.1094  0.3238
   31MOL    C35 9695   3.154   4.964   4.616  0.1101 -1.1413  0.5448
   31MOL    O36 9696   3.190   4.863   4.709 -0.1582  0.6477 -0.5513
   31MOL    C37 9697   3.314   4.874   4.780  0.6852  0.2456  1.3577
   31MOL    C38 9698   3.310   4.978   4.890 -0.2156  0.1520  0.5415
   31MOL    C39 9699   3.335   4.732   4.827  0.0005  0.7022  0.2590
   31MOL    H40 9700   2.970   5.043   4.513  0.8450  0.5353  0.5401
   31MOL    H41 9701   2.963   4.872   4.557  0.4374 -0.1721 -0.1731
   31MOL    H42 9702   3.181   5.062   4.657 -1.6728 -0.7753  0.8626
   31MOL    H43 9703   3.401   4.894   4.718  1.1298 -1.3088  1.4616
   31MOL    H44 9704   3.405   4.984   4.945 -1.7384 -1.9651  3.5470
   31MOL    H45 9705   3.238   4.953   4.968 -0.3485  1.1284  0.7309
   31MOL    H46 9706   3.289   5.078   4.854 -2.8060 -0.5620 -0.0261
   31MOL    H47 9707   3.373   4.669   4.746 -1.2513  1.9371 -1.3280
   31MOL    H48 9708   3.409   4.717   4.905  2.2667 -0.7554 -2.0580
   31MOL    H49 9709   3.238   4.691   4.854 -0.7968  0.9682 -2.0681
   31MOL    C50 9710   3.227   4.942   4.488 -0.3993  1.0985 -0.1369
   31MOL    C51 9711   3.259   5.072   4.417  0.1055  0.2996  0.1232
   31MOL    O52 9712   3.296   5.061   4.285 -0.0469  0.3567 -0.1910
   31MOL    C53 9713   3.197   5.041   4.191 -0.0081  0.2753 -0.4368
   31MOL    C54 9714   3.223   4.903   4.122 -0.0474 -0.0366 -0.3628
   31MOL    C55 9715   3.216   5.164   4.104  0.4556  0.6025  0.2209
   31MOL    H56 9716   3.327   4.899   4.502 -1.3538 -0.8201  0.9708
   31MOL    H57 9717   3.180   4.868   4.424  2.6660 -2.2591  1.2495
   31MOL    H58 9718   3.177   5.144   4.419  0.1840  0.3682  1.1044
   31MOL    H59 9719   3.101   5.050   4.241 -0.0425  1.1167 -0.6340
   31MOL    H60 9720   3.135   4.862   4.072  1.6081 -3.3358 -0.6683
   31MOL    H61 9721   3.248   4.832   4.201 -0.7433  0.7706  0.5996
   31MOL    H62 9722   3.308   4.903   4.054  0.9327 -1.0618  0.8500
   31MOL    H63 9723   3.136   5.170   4.030  0.1244 -1.3121  0.4192
   31MOL    H64 9724   3.310   5.172   4.050 -0.2615 -1.4728 -1.4035
   31MOL    H65 9725   3.206   5.249   4.172 -0.2407  1.4157 -0.8717
   31MOL    C66 9726   3.375   5.138   4.488 -0.8220  0.1931 -0.1820
   31MOL    C67 9727   3.407   5.280   4.437 -0.2848 -0.1293 -0.5027
   31MOL    O68 9728   3.546   5.304   4.451 -0.2090 -0.2996  0.0178
   31MOL    C69 9729   3.627   5.281   4.335  0.6272 -0.7931  0.1546
   31MOL    C70 9730   3.606   5.399   4.239  0.0148 -1.1009 -0.7083
   31MOL    C71 9731   3.774   5.275   4.374 -0.8262 -0.3698  0.0291
   31MOL    H72 9732   3.346   5.151   4.592 -0.2628 -1.0172  0.1285
   31MOL    H73 9733   3.462   5.073   4.479  0.1046  1.5519 -1.5134
   31MOL    H74 9734   3.362   5.294   4.339 -0.3644  0.3613 -0.4018
   31MOL    H75 9735   3.607   5.185   4.287 -0.3226 -0.9489  0.8526
   31MOL    H76 9736   3.631   5.493   4.288 -2.1389 -0.1813 -1.2986
   31MOL    H77 9737   3.666   5.395   4.148  0.9300  0.5619 -0.1950
   31MOL    H78 9738   3.504   5.411   4.204 -0.8348  1.0825  2.3071
   31MOL    H79 9739   3.800   5.173   4.404 -0.3269 -0.1893  0.2232
   31MOL    H80 9740   3.801   5.358   4.440 -0.5628 -0.2734 -0.1989
   31MOL    H81 9741   3.831   5.300   4.284 -3.6614  0.7308 -1.5191
   31MOL    C82 9742   3.345   5.385   4.536 -0.8404  0.3982  0.0510
   31MOL    C83 9743   3.362   5.533   4.490  0.3431 -0.3199 -0.1876
   31MOL    O84 9744   3.241   5.552   4.415  0.6161 -0.2060  0.4940
   31MOL    C85 9745   3.237   5.679   4.351  0.7204 -0.0453  0.0080
   31MOL    C86 9746   3.090   5.725   4.344 -0.0536 -0.5027  0.0194
   31MOL    C87 9747   3.305   5.666   4.216 -0.2252  0.5011 -0.1835
   31MOL    H88 9748   3.242   5.365   4.566 -0.8287  1.2376  0.6769
   31MOL    H89 9749   3.396   5.371   4.632 -0.0821  0.0201 -0.4054
   31MOL    H90 9750   3.454   5.548   4.433  0.3128  0.8384  0.0597
   31MOL    H91 9751   3.297   5.753   4.404 -2.3208  2.0249  0.6878
   31MOL    H92 9752   3.045   5.755   4.438 -3.0547 -0.5031 -1.3340
   31MOL    H93 9753   3.084   5.805   4.270  1.6760 -0.9182 -0.5927
   31MOL    H94 9754   3.023   5.644   4.315 -0.8190  0.1657 -0.0908
   31MOL    H95 9755   3.413   5.660   4.226 -0.0281  0.8552 -1.8509
   31MOL    H96 9756   3.282   5.570   4.168 -0.4869 -0.1208  1.1718
   31MOL    H97 9757   3.269   5.742   4.147  1.2720 -0.1861 -1.7804
   31MOL    C98 9758   3.363   5.621   4.621  0.8113  0.1213  0.1049
   31MOL    C99 9759   3.488   5.612   4.710  0.7961  0.1834  0.7119
   31MOL   O100 9760   3.461   5.688   4.829  0.4880 -0.8039  0.7337
   31MOL   C101 9761   3.374   5.631   4.926  0.9050  0.6972  0.1844
   31MOL   C102 9762   3.272   5.733   4.968 -0.0887 -0.1010 -0.7704
   31MOL   C103 9763   3.458   5.587   5.045 -0.5953  0.1922 -0.1540
   31MOL   H104 9764   3.339   5.728   4.615 -0.3543 -0.2080 -1.8981
   31MOL   H105 9765   3.274   5.593   4.677 -0.9674  4.9448 -0.0327
   31MOL   H106 9766   3.500   5.513   4.753 -3.2043  0.2528  2.2480
   31MOL   H107 9767   3.321   5.543   4.888  0.2838  0.5597  1.3678
   31MOL   H108 9768   3.315   5.827   5.003  1.8071 -0.2979 -2.4847
   31MOL   H109 9769   3.217   5.689   5.052 -0.1884  0.2218 -0.6673
   31MOL   H110 9770   3.196   5.752   4.893 -1.1270  2.1097  0.7946
   31MOL   H111 9771   3.400   5.531   5.118 -0.9100 -0.5838 -0.9897
   31MOL   H112 9772   3.503   5.676   5.088  1.3242 -0.8783  0.1217
   31MOL   H113 9773   3.543   5.521   5.024  0.0691  0.9531  0.1406
   31MOL   C114 9774   3.622   5.634   4.646  0.4083 -0.7335 -0.1674
   31MOL   C115 9775   3.656   5.775   4.603  0.3657 -0.0966 -0.0444
   31MOL   O116 9776   3.796   5.790   4.604  0.4777  0.3674 -0.1561
   31MOL   C117 9777   3.859   5.871   4.706  0.5511  0.1819  0.2389
   31MOL   C118 9778   3.999   5.903   4.650  0.1452 -0.2644  0.7066
   31MOL   C119 9779   3.863   5.802   4.842 -0.4162 -0.3236  0.6686
   31MOL   H120 9780   3.649   5.558   4.572  0.8419  0.5907 -1.4016
   31MOL   H121 9781   3.702   5.614   4.718  1.0656  0.4100 -0.5658
   31MOL   H122 9782   3.610   5.852   4.665 -1.6306  0.7763 -2.5392
   31MOL   H123 9783   3.805   5.966   4.708  2.4960  1.3103  0.5102
   31MOL   H124 9784   3.988   5.960   4.558 -1.0349 -1.9490 -0.2223
   31MOL   H125 9785   4.047   5.809   4.624  0.7568  0.4734 -0.8531
   31MOL   H126 9786   4.054   5.960   4.725 -1.1627 -0.7401  2.0498
   31MOL   H127 9787   3.894   5.698   4.838  0.1672 -0.0892 -1.2219
   31MOL   H128 9788   3.761   5.792   4.879 -0.6441  0.9538  0.4294
   31MOL   H129 9789   3.922   5.852   4.920  1.5563 -2.4316  0.5790
   31MOL   C130 9790   3.626   5.799   4.454 -0.0194 -0.2221  0.2015
   31MOL   C131 9791   3.631   5.945   4.417 -0.3043 -0.3422  0.9212
   31MOL   O132 9792   3.507   5.995   4.468  0.4963 -0.0446 -0.2562
   31MOL   C133 9793   3.493   6.135   4.513  0.3677  0.2152 -0.1888
   31MOL   C134 9794   3.344   6.159   4.507 -0.3017  0.3246 -0.1672
   31MOL   C135 9795   3.547   6.156   4.654 -0.0922  0.6501  0.2671
   31MOL   H136 9796   3.526   5.757   4.439 -0.0897  0.5676 -1.6670
   31MOL   H137 9797   3.702   5.743   4.401  3.1507  2.3191  1.8996
   31MOL   H138 9798   3.713   5.988   4.474  0.2309  1.7072 -1.3015
   31MOL   H139 9799   3.542   6.198   4.439  2.2050 -0.2120  0.6373
   31MOL   H140 9800   3.293   6.107   4.588  0.3530  1.2592  0.8694
   31MOL   H141 9801   3.304   6.127   4.411 -0.3199 -1.3599  0.3726
   31MOL   H142 9802   3.328   6.266   4.505  0.5137  0.4250 -1.9090
   31MOL   H143 9803   3.656   6.149   4.652 -0.2233 -2.2516  1.9124
   31MOL   H144 9804   3.517   6.255   4.690 -1.8242  0.5513 -0.8489
   31MOL   H145 9805   3.507   6.089   4.729 -0.6604 -2.5733 -2.7898
   31MOL   C146 9806   3.632   5.979   4.270  0.3487 -0.1784 -0.2137
   31MOL   C147 9807   3.761   5.952   4.196  0.4978 -0.2330  0.4452
   31MOL   O148 9808   3.721   5.953   4.057  0.2853 -0.1224 -0.0800
   31MOL   C149 9809   3.737   5.832   3.989  0.0768 -0.6139 -0.3364
   31MOL   C150 9810   3.718   5.879   3.835  0.0693  0.4544  0.1408
   31MOL   C151 9811   3.621   5.725   4.011 -0.3756  0.2973  0.8094
   31MOL   H152 9812   3.589   6.076   4.248 -1.4165 -0.5875  1.3606
   31MOL   H153 9813   3.563   5.902   4.236  1.4706 -0.6303 -1.5426
   31MOL   H154 9814   3.805   5.854   4.214  1.1403 -0.1345 -0.5270
   31MOL   H155 9815   3.836   5.792   4.009 -0.1133  0.2895  2.7460
   31MOL   H156 9816   3.780   5.967   3.816 -0.4587  1.0540  1.1478
   31MOL   H157 9817   3.613   5.904   3.826  0.5309  2.8788  1.2447
   31MOL   H158 9818   3.748   5.803   3.762 -0.7367  0.4424 -0.1800
   31MOL   H159 9819   3.530   5.768   3.970  0.2976  0.6466 -0.3486
   31MOL   H160 9820   3.599   5.705   4.116 -0.7904 -2.9235  0.1450
   31MOL   H161 9821   3.632   5.634   3.953 -2.0528  0.7442 -0.2343
   31MOL   C162 9822   3.866   6.062   4.216 -0.6408 -0.5426  0.1484
   31MOL   C163 9823   3.997   6.039   4.130  0.6342  0.2109  0.0977
   31MOL   O164 9824   4.061   6.163   4.091  0.3787  0.2298 -0.2799
   31MOL   C165 9825   4.087   6.179   3.952 -0.0339 -0.8570  0.4672
   31MOL   C166 9826   4.182   6.294   3.939 -0.1383  0.4315  0.4284
   31MOL   C167 9827   3.959   6.213   3.881  0.2954  0.1258 -0.5154
   31MOL   H168 9828   3.820   6.152   4.175 -0.7657 -0.7905 -0.2558
   31MOL   H169 9829   3.888   6.079   4.322  1.9599 -4.3134  0.3290
   31MOL   H170 9830   3.966   5.977   4.046 -1.8826 -1.3118  2.0926
   31MOL   H171 9831   4.139   6.088   3.922 -1.3475 -1.4915  0.0932
   31MOL   H172 9832   4.133   6.373   3.996 -1.2062 -0.9837  1.5143
   31MOL   H173 9833   4.196   6.333   3.838 -2.1583 -0.1514 -0.0829
   31MOL   H174 9834   4.278   6.261   3.980 -0.4173 -2.5088 -1.1904
   31MOL   H175 9835   3.966   6.262   3.784  0.9056 -0.2968 -0.6869
   31MOL   H176 9836   3.925   6.307   3.925  0.5269 -0.6886  1.4651
   31MOL   H177 9837   3.891   6.128   3.880 -0.3028  0.5640  1.5593
   31MOL   C178 9838   4.093   5.953   4.229  0.6163 -0.2156 -0.2014
   31MOL   C179 9839   4.225   5.911   4.166  0.4331 -0.2036 -0.5135
   31MOL   O180 9840   4.336   5.921   4.255 -0.1056  0.2375 -0.0532
   31MOL   C181 9841   4.403   6.047   4.241  0.6409  0.0386  0.0228
   31MOL   C182 9842   4.502   6.036   4.126  0.5055 -0.3783 -0.2768
   31MOL   C183 9843   4.469   6.060   4.377  0.0274  0.0507 -0.0099
   31MOL   H184 9844   4.036   5.875   4.280 -2.0829  1.4772 -0.5056
   31MOL   H185 9845   4.116   6.018   4.314  0.8101  0.8041 -1.0176
   31MOL   H186 9846   4.254   5.981   4.088  0.9640  0.6486  0.4477
   31MOL   H187 9847   4.332   6.128   4.228 -1.8074 -1.6534  2.3400
   31MOL   H188 9848   4.552   5.939   4.116 -1.6755 -1.3972 -1.6979
   31MOL   H189 9849   4.581   6.107   4.150 -1.4054  1.6718  0.0818
   31MOL   H190 9850   4.460   6.073   4.033 -3.9094 -0.8326  1.3818
   31MOL   H191 9851   4.523   6.153   4.392 -1.9204  1.2843 -0.3880
   31MOL   H192 9852   4.532   5.972   4.390 -0.4025 -0.1142  0.9943
   31MOL   H193 9853   4.394   6.062   4.457  1.1960  2.7548  1.0729
   31MOL   C194 9854   4.219   5.763   4.117 -0.2439  0.5035 -0.0302
   31MOL   C195 9855   4.326   5.729   4.007  0.9820  0.3634 -0.2868
   31MOL   O196 9856   4.253   5.754   3.887 -0.5108 -0.2657 -0.0740
   31MOL   C197 9857   4.307   5.858   3.811 -0.9858  0.7197  0.1962
   31MOL   C198 9858   4.442   5.802   3.748  0.2914 -0.8780  0.8033
   31MOL   C199 9859   4.209   5.895   3.701  0.0152  1.0574 -0.1551
   31MOL   H200 9860   4.250   5.694   4.196  1.0021  0.2498 -0.7261
   31MOL   H201 9861   4.119   5.739   4.081 -1.8984  3.6297  2.2487
   31MOL   H202 9862   4.420   5.785   4.010  1.7294 -0.9604  1.8126
   31MOL   H203 9863   4.315   5.942   3.880 -1.2757  1.4558 -0.6496
   31MOL   H204 9864   4.414   5.726   3.674  0.5815  1.5781 -1.9181
   31MOL   H205 9865   4.478   5.890   3.696 -0.2053 -1.0535  0.1549
   31MOL   H206 9866   4.528   5.782   3.812 -0.5487 -1.0559  1.9049
   31MOL   H207 9867   4.247   5.987   3.655  2.8819  0.0315  0.1284
   31MOL   H208 9868   4.192   5.816   3.628 -0.2051  1.4905 -0.5813
   31MOL   H209 9869   4.116   5.916   3.755 -0.2157 -2.1547  0.7737
   31MOL   C210 9870   4.357   5.579   4.002  0.3704 -0.4841 -0.2136
   31MOL   C211 9871   4.500   5.537   4.063  0.0624 -0.2633  0.6592
   31MOL   O212 9872   4.598   5.593   3.979  0.5841 -0.0666 -0.4903
   31MOL   C213 9873   4.723   5.526   3.982  0.1565 -0.6389 -0.3466
   31MOL   C214 9874   4.720   5.417   3.877 -0.1382 -0.8354 -0.0800
   31MOL   C215 9875   4.824   5.642   3.949  0.3648  0.1590 -0.1264
   31MOL   H216 9876   4.352   5.532   3.904 -1.4447  1.6070 -1.1779
   31MOL   H217 9877   4.283   5.528   4.063  0.0714 -1.2042 -1.1751
   31MOL   H218 9878   4.506   5.428   4.057  2.0941 -0.1372  0.1425
   31MOL   H219 9879   4.753   5.497   4.083 -2.8086  0.0052  0.7651
   31MOL   H220 9880   4.815   5.364   3.886  0.7090  1.1197  3.2768
   31MOL   H221 9881   4.697   5.460   3.779 -0.1152  0.0160  0.2894
   31MOL   H222 9882   4.647   5.339   3.898 -2.2699  0.4266 -2.5174
   31MOL   H223 9883   4.926   5.613   3.925  0.9674 -0.3501  2.8189
   31MOL   H224 9884   4.829   5.709   4.035 -3.5642  0.5182 -0.1185
   31MOL   H225 9885   4.801   5.701   3.860 -1.4947 -0.6514 -0.1966
   31MOL   C226 9886   4.529   5.590   4.201  0.2394  0.0128  0.8724
   31MOL   C227 9887   4.480   5.497   4.316  0.8469 -0.3281 -1.2696
   31MOL   O228 9888   4.338   5.474   4.297 -0.1520 -0.2809  0.0619
   31MOL   C229 9889   4.293   5.344   4.327 -0.1443  0.1794  0.6495
   31MOL   C230 9890   4.287   5.268   4.195 -0.3196  0.1176 -0.1822
   31MOL   C231 9891   4.149   5.362   4.391 -0.0273 -0.3740  0.0062
   31MOL   H232 9892   4.484   5.688   4.216  0.2610 -0.1520  2.0956
   31MOL   H233 9893   4.635   5.612   4.213  0.1893 -1.0557  3.6255
   31MOL   H234 9894   4.531   5.401   4.307 -1.9394 -2.1144  1.1930
   31MOL   H235 9895   4.355   5.284   4.394 -2.7437 -2.9738  0.3963
   31MOL   H236 9896   4.376   5.286   4.135 -0.6927  1.5954 -0.3040
   31MOL   H237 9897   4.265   5.164   4.221  1.8482 -0.3041  0.1080
   31MOL   H238 9898   4.194   5.299   4.148 -1.3127  0.6427  2.0452
   31MOL   H239 9899   4.085   5.409   4.316  1.4275 -1.4183 -1.9466
   31MOL   H240 9900   4.166   5.424   4.479 -0.5026  0.6154 -0.5811
   31MOL   H241 9901   4.103   5.267   4.416  1.4520 -0.9985  0.3991
   31MOL   C242 9902   4.491   5.574   4.448  0.0729  0.2269  0.4466
   31MOL   C243 9903   4.472   5.506   4.584 -0.1203  0.1843 -0.0478
   31MOL   O244 9904   4.466   5.599   4.695 -0.2786  0.1528  0.7518
   31MOL   C245 9905   4.345   5.672   4.704  0.7210  0.2161  0.2559
   31MOL   C246 9906   4.245   5.578   4.767 -0.2318  0.4024 -0.3013
   31MOL   C247 9907   4.364   5.800   4.787 -0.8030 -0.0277  0.5175
   31MOL   H248 9908   4.590   5.618   4.461  1.4216 -1.7359 -2.6450
   31MOL   H249 9909   4.425   5.660   4.443 -2.7283 -1.8881 -0.2171
   31MOL   H250 9910   4.381   5.447   4.574  0.9768 -1.3538 -1.2707
   31MOL   H251 9911   4.315   5.707   4.605  1.9905 -2.7673 -1.2491
   31MOL   H252 9912   4.172   5.645   4.813 -2.5335  0.0173 -3.2073
   31MOL   H253 9913   4.196   5.529   4.683  0.2746  0.7990 -0.8377
   31MOL   H254 9914   4.288   5.512   4.842  0.0617  0.4170 -0.4526
   31MOL   H255 9915   4.449   5.863   4.760 -0.1568 -0.7278  0.9134
   31MOL   H256 9916   4.275   5.862   4.774 -0.1561  1.3203  2.2269
   31MOL   H257 9917   4.374   5.778   4.893 -0.4206 -1.7608  0.1280
   31MOL   C258 9918   4.581   5.395   4.606  0.3059 -0.0529 -0.1443
   31MOL   C259 9919   4.565   5.313   4.732 -0.1160  0.5010 -0.0727
   31MOL   O260 9920   4.670   5.220   4.734 -0.1110 -0.2999  0.7707
   31MOL   C261 9921   4.788   5.252   4.808 -0.6304 -0.4512 -0.7285
   31MOL   C262 9922   4.760   5.239   4.956  0.2944  0.5890  0.0417
   31MOL   C263 9923   4.912   5.174   4.761  0.0541  0.4856 -0.1386
   31MOL   H264 9924   4.581   5.329   4.519  2.4762  0.4857 -0.5906
   31MOL   H265 9925   4.685   5.426   4.617  0.2597 -0.6434  2.0858
   31MOL   H266 9926   4.570   5.391   4.808 -0.2281  1.5160 -1.1004
   31MOL   H267 9927   4.811   5.357   4.790 -1.0016 -0.6570 -2.5375
   31MOL   H268 9928   4.683   5.311   4.981 -1.3851 -0.6330 -1.4581
   31MOL   H269 9929   4.853   5.262   5.007  1.0185 -0.1937 -0.8952
   31MOL   H270 9930   4.725   5.137   4.971  0.9430  0.0677 -1.8547
   31MOL   H271 9931   4.893   5.071   4.732 -0.0837  0.6261 -0.5587
   31MOL   H272 9932   4.952   5.228   4.675  1.9166  1.0668  1.0636
   31MOL   H273 9933   4.988   5.170   4.839  0.3156  0.8392 -0.3721
   31MOL   C274 9934   4.443   5.229   4.745 -0.0994  0.0999  0.3319
   31MOL   C275 9935   4.440   5.129   4.862  0.4312 -0.4184  0.4839
   31MOL   O276 9936   4.304   5.134   4.899 -0.3384  0.3652 -0.1129
   31MOL   C277 9937   4.266   5.210   5.011 -0.0608 -0.9371  0.7507
   31MOL   C278 9938   4.288   5.123   5.143 -0.1011  0.5294  0.4738
   31MOL   C279 9939   4.122   5.238   4.982  0.1039  0.9033  0.0209
   31MOL   H280 9940   4.360   5.300   4.744 -2.0407 -2.0983 -2.2968
   31MOL   H281 9941   4.441   5.171   4.653 -0.7321  0.0428  0.3812
   31MOL   H282 9942   4.502   5.152   4.949  0.0235 -2.5974  1.3709
   31MOL   H283 9943   4.326   5.298   5.031  1.1220 -1.3735 -0.7799
   31MOL   H284 9944   4.240   5.025   5.135 -0.4170  0.7330 -0.1519
   31MOL   H285 9945   4.392   5.097   5.163  0.4863  2.3010 -0.2015
   31MOL   H286 9946   4.248   5.168   5.234  0.4687  1.9475  0.0331
   31MOL   H287 9947   4.081   5.319   5.043 -1.8277  0.4498 -0.6269
   31MOL   H288 9948   4.051   5.156   4.986 -0.4041  1.3258 -0.2926
   31MOL   H289 9949   4.120   5.266   4.877 -0.0407  2.8485  0.5181
   31MOL   C290 9950   4.473   4.977   4.823  0.5382  0.2731  0.3954
   31MOL   C291 9951   4.481   4.875   4.940  0.2571  0.1944  0.9884
   31MOL   O292 9952   4.470   4.738   4.895  0.5194 -0.1812 -0.7099
   31MOL   C293 9953   4.411   4.644   4.983 -0.5567 -0.3810 -0.5531
   31MOL   C294 9954   4.485   4.511   4.953 -0.4598  0.8055  0.5311
   31MOL   C295 9955   4.258   4.637   4.960  0.0697 -0.2751 -0.4325
   31MOL   H296 9956   4.559   4.963   4.758  0.6720  1.0865  0.3917
   31MOL   H297 9957   4.393   4.940   4.758  1.7101 -0.8503 -0.4159
   31MOL   H298 9958   4.393   4.892   5.002 -0.4318 -0.3348  0.1800
   31MOL   H299 9959   4.431   4.668   5.088  0.7236 -0.6841 -0.7213
   31MOL   H300 9960   4.591   4.516   4.980 -0.0383  0.2627 -1.0194
   31MOL   H301 9961   4.450   4.432   5.020  2.7472 -0.8896  0.3347
   31MOL   H302 9962   4.481   4.475   4.850 -0.6065  0.8011  0.5374
   31MOL   H303 9963   4.204   4.593   5.044  1.3093  0.8470  0.9920
   31MOL   H304 9964   4.223   4.738   4.939 -0.9254 -0.5429 -0.0800
   31MOL   H305 9965   4.245   4.572   4.874 -0.1401 -1.9115  0.8029
   31MOL   C306 9966   4.612   4.887   5.026  0.4290 -0.7799  0.9363
   31MOL   C307 9967   4.743   4.843   4.957  0.0834  0.6849  0.8652
   31MOL   O308 9968   4.846   4.848   5.058 -0.6333  0.1758 -0.1874
   31MOL   C309 9969   4.974   4.790   5.029  0.0756  0.1288 -0.3089
   31MOL   C310 9970   5.043   4.855   4.904 -0.2202 -0.2862  0.5801
   31MOL   C311 9971   5.055   4.817   5.156 -0.3532  0.1846 -0.8458
   31MOL   H312 9972   4.603   4.825   5.116 -2.3527 -1.9662 -0.1005
   31MOL   H313 9973   4.607   4.984   5.076 -1.2108 -0.2213 -0.2670
   31MOL   H314 9974   4.736   4.742   4.915  1.7694  0.3727  1.3216
   31MOL   H315 9975   4.957   4.685   5.008 -1.4201  0.1555  0.7834
   31MOL   H316 9976   5.059   4.959   4.933  0.6103 -0.4056  0.5636
   31MOL   H317 9977   4.982   4.845   4.815  1.1524  0.0533 -0.4255
   31MOL   H318 9978   5.136   4.805   4.877 -0.9938 -0.8553 -1.0499
   31MOL   H319 9979   5.060   4.919   5.193  0.5873 -0.0627 -0.2709
   31MOL   H320 9980   5.159   4.786   5.147  0.3369  1.7116  1.4471
   31MOL   H321 9981   5.018   4.754   5.237 -0.9869  0.5809 -0.8228
   31MOL   H322 9982   4.767   4.906   4.871 -0.9868 -0.9269 -0.6641
   32MOL     C1 9983   2.604   5.412   5.293  0.7352 -0.0014  0.4489
   32MOL     C2 9984   2.536   5.297   5.369 -0.4411 -0.2685  0.2566
   32MOL     O3 9985   2.482   5.185   5.291  0.2306  0.5312  0.1566
   32MOL     C4 9986   2.390   5.217   5.186 -0.3997 -0.0951 -0.1254
   32MOL     C5 9987   2.265   5.123   5.212 -0.3554 -0.1970  0.1778
   32MOL     C6 9988   2.443   5.186   5.050 -0.1742 -0.0658 -0.1330
   32MOL     H7 9989   2.658   5.470   5.368 -1.1793  1.6542  0.5861
   32MOL     H8 9990   2.668   5.384   5.209 -0.6932 -1.7594 -0.0902
   32MOL     H9 9991   2.455   5.330   5.434  0.5160  0.4351  1.1160
   32MOL    H10 9992   2.362   5.323   5.187 -2.7650 -0.7017  1.0305
   32MOL    H11 9993   2.200   5.134   5.126  0.7889 -2.1931 -0.9769
   32MOL    H12 9994   2.298   5.021   5.230  2.0238  0.4929 -0.0797
   32MOL    H13 9995   2.210   5.147   5.303 -2.3190 -0.9965 -0.7635
   32MOL    H14 9996   2.477   5.084   5.029 -2.1929 -0.8514  0.2911
   32MOL    H15 9997   2.375   5.203   4.967  0.4127 -0.7054 -0.7622
   32MOL    H16 9998   2.525   5.256   5.032  0.7462 -1.3987 -1.3231
   32MOL    H17 9999   2.536   5.483   5.246  1.3656  0.4913  0.2630
   32MOL    C1810000   2.641   5.244   5.467 -0.0614  0.1171 -0.0868
   32MOL    C1910001   2.603   5.139   5.568  0.1115 -0.1054  0.7454
   32MOL    O2010002   2.495   5.189   5.639  0.3662  0.1212 -0.2924
   32MOL    C2110003   2.367   5.127   5.609 -0.7801 -0.5025 -0.8691
   32MOL    C2210004   2.260   5.226   5.654  0.5533  0.5970 -0.4309
   32MOL    C2310005   2.344   5.003   5.693 -0.7431  0.0135 -0.1348
   32MOL    H2410006   2.715   5.192   5.407  0.8187  0.8165  0.3854
   32MOL    H2510007   2.703   5.320   5.513 -1.2928  0.3241  1.2590
   32MOL    H2610008   2.580   5.045   5.517 -0.5037  1.6025 -2.2542
   32MOL    H2710009   2.361   5.104   5.503 -1.9067 -2.2879 -0.4272
   32MOL    H2810010   2.253   5.233   5.763 -0.0211 -0.2620 -0.4130
   32MOL    H2910011   2.275   5.328   5.620  1.2327 -0.5224 -3.6385
   32MOL    H3010012   2.168   5.198   5.602  1.4030 -1.3959 -0.9232
   32MOL    H3110013   2.418   4.928   5.666 -1.6588 -0.9174 -0.0624
   32MOL    H3210014   2.249   4.955   5.671 -0.6831 -0.1431 -0.0471
   32MOL    H3310015   2.355   5.016   5.800 -0.0958  0.3001 -0.2331
   32MOL    C3410016   2.719   5.109   5.663 -0.0518 -0.1249  0.6236
   32MOL    C3510017   2.830   5.016   5.591 -0.4322 -0.2390 -0.2562
   32MOL    O3610018   2.920   5.103   5.528  0.0129 -0.0647 -0.1421
   32MOL    C3710019   3.003   5.045   5.420  0.1766  1.2090 -0.2447
   32MOL    C3810020   2.950   5.118   5.293 -0.0159 -0.4477 -0.0714
   32MOL    C3910021   3.158   5.070   5.442  0.6598  0.1108 -0.3182
   32MOL    H4010022   2.682   5.053   5.748 -0.0438 -0.2236  0.5618
   32MOL    H4110023   2.756   5.204   5.702 -2.0357  0.8391  0.1981
   32MOL    H4210024   2.782   4.950   5.519 -0.3079 -1.9756  1.2144
   32MOL    H4310025   2.980   4.939   5.411 -3.2802  1.8170  0.3878
   32MOL    H4410026   2.952   5.224   5.320  0.7570 -0.2308 -0.9788
   32MOL    H4510027   2.844   5.099   5.279  0.0100 -0.2303 -0.5676
   32MOL    H4610028   2.999   5.096   5.198  0.7666  0.5587  0.0922
   32MOL    H4710029   3.165   5.171   5.483  0.2186 -0.3161  0.8423
   32MOL    H4810030   3.194   5.006   5.523 -0.3601 -0.6534 -0.4524
   32MOL    H4910031   3.229   5.058   5.361  0.4085 -0.7874 -0.4085
   32MOL    C5010032   2.905   4.937   5.708  0.0463 -0.1237 -0.6453
   32MOL    C5110033   2.855   4.795   5.730  0.3866  0.1087  1.1447
   32MOL    O5210034   2.853   4.731   5.604 -0.1309  0.5217 -0.0386
   32MOL    C5310035   2.915   4.605   5.607  0.2175 -0.0513  0.3545
   32MOL    C5410036   3.068   4.622   5.572 -0.1372 -0.0647 -0.7824
   32MOL    C5510037   2.845   4.524   5.505 -0.0846 -0.0843 -0.3348
   32MOL    H5610038   3.009   4.930   5.679  0.1651  1.8629 -0.7306
   32MOL    H5710039   2.914   4.994   5.801 -2.7898 -1.0174  0.2443
   32MOL    H5810040   2.934   4.752   5.792  1.2582  1.6696  1.1266
   32MOL    H5910041   2.899   4.544   5.696 -0.5225 -1.2084 -0.5603
   32MOL    H6010042   3.128   4.532   5.564 -1.2693 -0.9274  0.2123
   32MOL    H6110043   3.107   4.675   5.659  1.2740  2.3252 -2.8190
   32MOL    H6210044   3.073   4.673   5.476 -1.3439  0.2761 -0.6803
   32MOL    H6310045   2.850   4.571   5.407  1.9806 -0.6258 -0.5150
   32MOL    H6410046   2.737   4.514   5.522  0.2628  0.7847  2.8125
   32MOL    H6510047   2.888   4.424   5.497 -0.7932 -0.4960  0.7626
   32MOL    C6610048   2.721   4.770   5.800 -0.0159  0.1368 -0.6274
   32MOL    C6710049   2.695   4.631   5.868 -0.3365  0.8190  0.2214
   32MOL    O6810050   2.573   4.634   5.936 -0.1893  0.0399  0.4554
   32MOL    C6910051   2.458   4.622   5.851 -0.0367 -0.6508 -0.1152
   32MOL    C7010052   2.426   4.478   5.826 -0.0838  0.2888  0.6076
   32MOL    C7110053   2.341   4.689   5.918  0.3184 -0.4488 -0.1341
   32MOL    H7210054   2.723   4.844   5.880  0.0654  1.3293 -1.7030
   32MOL    H7310055   2.639   4.798   5.734  0.2206 -2.7630 -2.2352
   32MOL    H7410056   2.696   4.563   5.783  1.0502 -0.4327  1.2216
   32MOL    H7510057   2.466   4.666   5.752 -1.8084 -0.3442 -0.1367
   32MOL    H7610058   2.482   4.443   5.740  0.9496  1.8340  0.6270
   32MOL    H7710059   2.465   4.407   5.900  1.9912  0.4395 -0.3035
   32MOL    H7810060   2.319   4.458   5.827  0.5780 -3.8527 -0.1018
   32MOL    H7910061   2.361   4.796   5.916  0.9791 -0.5204  1.7524
   32MOL    H8010062   2.330   4.646   6.018  0.2216  0.6407  0.3312
   32MOL    H8110063   2.244   4.671   5.871  0.4418 -1.0614 -0.1615
   32MOL    C8210064   2.805   4.582   5.967  0.6352  0.1787  0.5008
   32MOL    C8310065   2.808   4.423   5.985  0.5078  0.2651 -0.1787
   32MOL    O8410066   2.899   4.369   5.887 -0.4372 -0.4972 -0.2365
   32MOL    C8510067   2.893   4.228   5.859  0.4697 -0.0775 -0.3487
   32MOL    C8610068   3.016   4.203   5.761 -0.0220 -0.6957  0.0073
   32MOL    C8710069   2.763   4.181   5.788 -0.0601 -0.4238 -0.3142
   32MOL    H8810070   2.906   4.602   5.931  0.7179  1.1477  1.2725
   32MOL    H8910071   2.802   4.643   6.057  1.5385  0.3421  0.4233
   32MOL    H9010072   2.707   4.393   5.956 -0.2421  2.3148  0.2454
   32MOL    H9110073   2.921   4.171   5.948  2.2137 -0.0968 -0.8801
   32MOL    H9210074   3.008   4.101   5.721 -0.8071  0.4171 -2.8140
   32MOL    H9310075   3.012   4.257   5.667  1.1463 -0.2649  0.1972
   32MOL    H9410076   3.110   4.226   5.810 -0.2915  0.0401  0.1830
   32MOL    H9510077   2.760   4.073   5.771  1.5001 -0.8686  2.1235
   32MOL    H9610078   2.676   4.207   5.847 -0.0828  1.1086 -0.9905
   32MOL    H9710079   2.744   4.240   5.698  0.4406 -0.3846 -0.3958
   32MOL    C9810080   2.843   4.369   6.127  0.1428 -0.6370 -0.7708
   32MOL    C9910081   2.762   4.419   6.243  0.2885 -0.3075 -0.3795
   32MOL   O10010082   2.848   4.376   6.354  0.3236  0.0783 -0.6463
   32MOL   C10110083   2.886   4.471   6.459 -0.5189 -0.1019  0.0393
   32MOL   C10210084   3.037   4.514   6.416  0.0748 -1.3832 -0.5813
   32MOL   C10310085   2.887   4.416   6.603 -0.5875  0.2968  0.3888
   32MOL   H10410086   2.845   4.260   6.132 -1.1957 -0.5771  1.4080
   32MOL   H10510087   2.945   4.404   6.142 -1.0447  2.7824 -0.2079
   32MOL   H10610088   2.748   4.527   6.237  0.4639 -0.1403  1.7049
   32MOL   H10710089   2.828   4.562   6.453  2.3823  1.8288  0.2638
   32MOL   H10810090   3.095   4.536   6.506  0.2107 -0.0204 -0.9840
   32MOL   H10910091   3.035   4.608   6.360  0.4490 -0.7919  0.3734
   32MOL   H11010092   3.074   4.442   6.343  1.0405  0.2174 -1.7056
   32MOL   H11110093   2.970   4.345   6.609 -1.4189 -0.8719 -1.7397
   32MOL   H11210094   2.791   4.369   6.621  0.4647 -1.2533  2.2203
   32MOL   H11310095   2.903   4.501   6.671  1.2737 -0.9337  1.5397
   32MOL   C11410096   2.623   4.359   6.265 -0.0172 -0.3254  0.4204
   32MOL   C11510097   2.533   4.431   6.369 -0.5614 -0.2835  0.2017
   32MOL   O11610098   2.496   4.557   6.317  0.0598  0.3979  0.1233
   32MOL   C11710099   2.562   4.673   6.370 -0.3825  0.3373 -0.8363
   32MOL   C11810100   2.519   4.702   6.520 -0.2988 -0.3966  0.0600
   32MOL   C11910101   2.511   4.787   6.280 -0.1794  0.3760 -0.0733
   32MOL   H12010102   2.630   4.252   6.283  1.0682 -0.1199  1.2938
   32MOL   H12110103   2.578   4.360   6.165 -0.2203 -3.3672  0.4249
   32MOL   H12210104   2.594   4.438   6.458  1.5060 -3.1577 -0.9098
   32MOL   H12310105   2.670   4.675   6.360 -0.0898 -2.1124  1.3870
   32MOL   H12410106   2.410   4.703   6.529 -0.3901 -0.0007 -0.9343
   32MOL   H12510107   2.547   4.798   6.563 -0.6135  0.1203 -0.8627
   32MOL   H12610108   2.557   4.620   6.581 -1.5118 -2.5038 -1.9136
   32MOL   H12710109   2.570   4.784   6.187  0.7603  1.5235  0.4736
   32MOL   H12810110   2.534   4.880   6.331 -0.2858  0.5453 -0.3362
   32MOL   H12910111   2.407   4.794   6.249 -0.1607 -1.7629 -0.7109
   32MOL   C13010112   2.417   4.341   6.399  0.1436  0.1956  0.1882
   32MOL   C13110113   2.313   4.403   6.495  0.6825 -0.1957  1.1861
   32MOL   O13210114   2.245   4.294   6.558 -0.0767  0.1660 -0.2896
   32MOL   C13310115   2.301   4.221   6.668  0.4477  0.0515 -0.1157
   32MOL   C13410116   2.228   4.263   6.802  0.0215  0.0587 -0.0306
   32MOL   C13510117   2.295   4.079   6.611 -0.6213  0.0390 -0.3663
   32MOL   H13610118   2.458   4.249   6.441 -3.6730 -0.5022  2.7071
   32MOL   H13710119   2.366   4.306   6.309  1.4731  2.1112 -1.3306
   32MOL   H13810120   2.361   4.473   6.563  0.8436  1.7239 -0.8481
   32MOL   H13910121   2.403   4.256   6.684  0.4219  1.0410 -2.0177
   32MOL   H14010122   2.261   4.356   6.848  0.4489  1.5090 -3.1343
   32MOL   H14110123   2.228   4.185   6.878 -1.6413  0.4814  0.4255
   32MOL   H14210124   2.121   4.276   6.784 -0.3495 -1.8483  0.7329
   32MOL   H14310125   2.335   4.070   6.510 -0.8599  3.3853 -0.8025
   32MOL   H14410126   2.361   4.024   6.678  1.4413 -0.2033 -2.5427
   32MOL   H14510127   2.192   4.043   6.615  0.0043 -1.5837  2.0049
   32MOL   C14610128   2.211   4.502   6.423 -0.3738  0.0080 -1.2174
   32MOL   C14710129   2.134   4.599   6.524 -0.7935  0.6441  0.9402
   32MOL   O14810130   2.064   4.700   6.454  0.1154  0.4452 -0.5434
   32MOL   C14910131   2.144   4.787   6.374  0.5026 -0.2617 -0.4344
   32MOL   C15010132   2.125   4.927   6.427  0.3840 -1.0208 -0.0887
   32MOL   C15110133   2.117   4.768   6.223  0.0979  0.6226  0.3355
   32MOL   H15210134   2.137   4.437   6.376 -0.1863 -1.3366  0.2752
   32MOL   H15310135   2.263   4.563   6.349  2.7310  0.4910  1.2455
   32MOL   H15410136   2.200   4.653   6.592 -0.2756  1.6534 -0.3503
   32MOL   H15510137   2.246   4.769   6.406  0.3153  0.4922  0.6032
   32MOL   H15610138   2.017   4.938   6.437  0.2353 -2.5771  0.3034
   32MOL   H15710139   2.157   5.014   6.370  0.5949 -0.8213  0.3358
   32MOL   H15810140   2.169   4.936   6.526  1.3668 -0.8446 -0.5447
   32MOL   H15910141   2.014   4.788   6.194 -0.0667 -1.6517 -0.6994
   32MOL   H16010142   2.121   4.665   6.189 -0.2304  1.5478 -2.6498
   32MOL   H16110143   2.185   4.821   6.155  0.3679 -0.4013 -0.1968
   32MOL   C16210144   2.026   4.526   6.602  0.0464 -0.0849 -0.0036
   32MOL   C16310145   1.954   4.619   6.707  0.1739  1.0721 -0.8630
   32MOL   O16410146   1.832   4.558   6.742  0.4027  0.3328 -0.5384
   32MOL   C16510147   1.742   4.610   6.847  0.3474  0.1125 -0.1131
   32MOL   C16610148   1.644   4.496   6.877 -0.4384  0.2827 -0.5641
   32MOL   C16710149   1.683   4.746   6.803 -0.0703  0.3472  0.0306
   32MOL   H16810150   1.953   4.498   6.526 -0.6655 -2.0013  1.3591
   32MOL   H16910151   2.057   4.430   6.643 -1.3902 -0.6440 -0.1895
   32MOL   H17010152   1.939   4.714   6.657 -2.5539  1.7661  1.1342
   32MOL   H17110153   1.794   4.634   6.939  1.1816 -2.4092  0.0946
   32MOL   H17210154   1.563   4.521   6.945 -0.6844 -0.7077 -0.4734
   32MOL   H17310155   1.698   4.409   6.916 -0.4479 -0.6392 -2.5340
   32MOL   H17410156   1.604   4.446   6.789 -1.5633 -1.1701  0.7526
   32MOL   H17510157   1.647   4.741   6.700  1.1084 -2.1635 -0.2969
   32MOL   H17610158   1.747   4.834   6.804 -0.3771  0.5907 -0.7045
   32MOL   H17710159   1.588   4.769   6.851  0.0416  1.1989 -0.1613
   32MOL   C17810160   2.047   4.636   6.830  0.0113 -0.2829 -0.2848
   32MOL   C17910161   2.034   4.775   6.908 -0.1678  0.1048  0.0992
   32MOL   O18010162   2.117   4.768   7.019  0.1262  0.0706  0.2139
   32MOL   C18110163   2.061   4.810   7.149 -0.8108 -0.1828 -0.3638
   32MOL   C18210164   2.183   4.847   7.233 -0.5008  0.3213 -0.6960
   32MOL   C18310165   2.003   4.682   7.214  0.5369  0.2766 -0.1353
   32MOL   H18410166   2.147   4.604   6.800 -0.4173 -2.2715  0.3320
   32MOL   H18510167   2.031   4.561   6.908  2.1698 -1.0278 -0.5457
   32MOL   H18610168   1.935   4.796   6.947 -1.0093 -0.9845 -1.4065
   32MOL   H18710169   1.993   4.895   7.150 -0.0238  0.4610 -0.1481
   32MOL   H18810170   2.175   4.820   7.339  0.0109 -2.2327 -1.2555
   32MOL   H18910171   2.190   4.954   7.219 -0.8618  0.5450  0.7593
   32MOL   H19010172   2.274   4.793   7.204 -0.1348  1.4998 -1.7828
   32MOL   H19110173   2.077   4.602   7.212  0.2834  0.0480 -0.2866
   32MOL   H19210174   1.917   4.646   7.157 -1.8682  1.8044  2.4298
   32MOL   H19310175   1.973   4.701   7.317  1.3814 -1.8710  0.5210
   32MOL   C19410176   2.086   4.887   6.822  0.1756  0.0379 -0.1705
   32MOL   C19510177   2.060   5.028   6.880  0.0801  0.3742 -0.0604
   32MOL   O19610178   1.925   5.049   6.846 -0.4309 -0.3234  0.3319
   32MOL   C19710179   1.859   5.144   6.917  0.3735 -0.2880  0.3742
   32MOL   C19810180   1.767   5.215   6.815  0.1716 -0.0516 -0.3246
   32MOL   C19910181   1.770   5.093   7.028 -0.2943  0.0383 -0.1202
   32MOL   H20010182   2.193   4.879   6.804  0.3960  1.3716  0.5151
   32MOL   H20110183   2.042   4.885   6.722  0.7133 -1.2815 -0.3959
   32MOL   H20210184   2.082   5.036   6.986  3.6658 -0.6407 -0.6873
   32MOL   H20310185   1.922   5.226   6.952  1.8106 -1.3744  0.3991
   32MOL   H20410186   1.704   5.145   6.760  1.7457 -2.2139  0.5423
   32MOL   H20510187   1.710   5.289   6.871  1.5693  0.7773  0.0293
   32MOL   H20610188   1.828   5.269   6.742 -0.9356  2.5012  0.5856
   32MOL   H20710189   1.708   5.014   6.985 -1.6267  0.8713  0.2455
   32MOL   H20810190   1.826   5.059   7.115 -1.6963  1.5923  1.4123
   32MOL   H20910191   1.692   5.162   7.057 -0.5677 -0.0864 -0.5555
   32MOL   C21010192   2.145   5.124   6.796 -0.1292 -0.9885  0.0125
   32MOL   C21110193   2.297   5.124   6.805 -0.0512 -0.0582 -0.2807
   32MOL   O21210194   2.348   5.214   6.705 -0.5684 -0.5472  0.8316
   32MOL   C21310195   2.469   5.184   6.633  0.5791  0.5575 -0.1711
   32MOL   C21410196   2.438   5.067   6.536 -0.3942 -0.4623 -0.1895
   32MOL   C21510197   2.494   5.305   6.537 -0.3092 -0.5088 -0.5030
   32MOL   H21610198   2.113   5.228   6.797 -0.3531 -1.0633  1.1520
   32MOL   H21710199   2.135   5.102   6.689 -0.0158 -0.3390 -0.1359
   32MOL   H21810200   2.331   5.022   6.789 -0.6941 -0.5971  1.6849
   32MOL   H21910201   2.557   5.169   6.695  1.3155  0.8579 -1.1277
   32MOL   H22010202   2.386   4.989   6.591  0.2246 -0.9793 -0.3255
   32MOL   H22110203   2.526   5.032   6.482  0.6348  0.6067  0.7829
   32MOL   H22210204   2.376   5.113   6.459  0.6102 -0.2369 -0.8841
   32MOL   H22310205   2.518   5.390   6.601 -4.0103 -0.0541  0.3716
   32MOL   H22410206   2.411   5.336   6.474 -0.7501  0.4830  0.5617
   32MOL   H22510207   2.588   5.302   6.481  0.2534 -0.8717  0.4439
   32MOL   C22610208   2.353   5.161   6.943  0.0383  0.2745  0.6593
   32MOL   C22710209   2.496   5.106   6.977 -0.7155  0.0758 -0.5237
   32MOL   O22810210   2.472   4.971   6.997 -0.0846  0.8604  0.4731
   32MOL   C22910211   2.547   4.887   6.918 -0.2980 -0.2593  0.5752
   32MOL   C23010212   2.473   4.754   6.921 -0.3113 -0.6004 -0.2590
   32MOL   C23110213   2.685   4.872   6.977  0.4044 -0.3641  0.6610
   32MOL   H23210214   2.277   5.128   7.014 -0.3850 -0.3366 -0.0753
   32MOL   H23310215   2.350   5.269   6.956  0.1666  0.1643  1.6469
   32MOL   H23410216   2.568   5.138   6.901 -0.1525  0.1508  0.0427
   32MOL   H23510217   2.539   4.917   6.813  0.5915 -0.9239  0.3146
   32MOL   H23610218   2.528   4.677   6.867  0.2407  0.3067 -0.9911
   32MOL   H23710219   2.468   4.709   7.020 -1.4433 -1.0441 -0.5073
   32MOL   H23810220   2.372   4.758   6.880 -0.4154 -2.0160 -0.1776
   32MOL   H23910221   2.719   4.779   6.932 -0.5548 -0.9519  1.1341
   32MOL   H24010222   2.685   4.848   7.083  0.7690 -2.1615  0.2602
   32MOL   H24110223   2.755   4.950   6.949  0.4732 -1.0264 -1.0518
   32MOL   C24210224   2.554   5.169   7.106 -0.0279 -0.5087  0.2234
   32MOL   C24310225   2.587   5.323   7.090  0.3253 -0.2650  0.3267
   32MOL   O24410226   2.692   5.328   6.997  0.3580  0.0193 -1.0131
   32MOL   C24510227   2.671   5.392   6.875  0.1515 -0.4701 -0.5292
   32MOL   C24610228   2.624   5.532   6.891 -0.3780  0.1928 -0.4648
   32MOL   C24710229   2.798   5.382   6.797 -0.9312 -0.1294 -0.4154
   32MOL   H24810230   2.481   5.163   7.187  2.1741 -0.5485  2.2572
   32MOL   H24910231   2.642   5.122   7.150  1.2027  1.1906 -0.3615
   32MOL   H25010232   2.501   5.383   7.060  2.7295  3.0962 -0.1859
   32MOL   H25110233   2.591   5.346   6.817  1.5294 -1.8149 -1.4323
   32MOL   H25210234   2.519   5.535   6.919  0.1400 -1.6315  1.8392
   32MOL   H25310235   2.682   5.585   6.967 -1.5715  1.4461 -0.4090
   32MOL   H25410236   2.633   5.582   6.794 -2.6162  1.0688 -0.2543
   32MOL   H25510237   2.781   5.396   6.690  1.5765 -2.9641 -1.2455
   32MOL   H25610238   2.866   5.461   6.830 -1.4062 -0.3589  1.1602
   32MOL   H25710239   2.848   5.288   6.822  1.6827  1.4328  0.4605
   32MOL   C25810240   2.642   5.390   7.217 -0.4820 -0.0152 -0.8214
   32MOL   C25910241   2.550   5.453   7.319 -0.7673 -0.0006 -0.3597
   32MOL   O26010242   2.458   5.358   7.388  0.7033  0.7200  0.3409
   32MOL   C26110243   2.508   5.243   7.458  0.0168  0.3992  0.1335
   32MOL   C26210244   2.585   5.271   7.582  0.9189  0.2628  0.7433
   32MOL   C26310245   2.398   5.138   7.475  0.8265 -0.4935  0.5545
   32MOL   H26410246   2.705   5.320   7.272 -3.6730 -0.9324  1.8244
   32MOL   H26510247   2.709   5.470   7.184  0.5017  0.3494  1.9177
   32MOL   H26610248   2.621   5.489   7.393 -1.0933  0.3730 -0.2290
   32MOL   H26710249   2.574   5.190   7.389  0.6777 -0.1073  1.1438
   32MOL   H26810250   2.677   5.321   7.551  1.4797 -1.1063  0.1398
   32MOL   H26910251   2.609   5.180   7.636 -1.1094 -0.8067 -0.0811
   32MOL   H27010252   2.526   5.344   7.638 -1.9188 -1.8520  0.6543
   32MOL   H27110253   2.360   5.108   7.378  4.5939 -0.9732 -0.8428
   32MOL   H27210254   2.440   5.050   7.523  2.3976 -1.4212 -2.3972
   32MOL   H27310255   2.313   5.182   7.528  0.4390 -0.3619 -0.1769
   32MOL   C27410256   2.478   5.574   7.252  0.3593 -0.1947 -0.4877
   32MOL   C27510257   2.399   5.664   7.358 -0.4888  0.2714 -1.2681
   32MOL   O27610258   2.484   5.722   7.458 -0.1196 -0.0085  0.3022
   32MOL   C27710259   2.424   5.742   7.592  0.1238 -0.4625  0.0591
   32MOL   C27810260   2.523   5.829   7.672 -0.1900  0.7623 -0.4607
   32MOL   C27910261   2.399   5.610   7.668  0.5811  0.0472  0.3795
   32MOL   H28010262   2.557   5.630   7.203  0.3624 -0.9796 -1.3757
   32MOL   H28110263   2.408   5.538   7.177  0.3707  1.0104 -1.0908
   32MOL   H28210264   2.338   5.589   7.407  2.5001 -1.6011 -0.2551
   32MOL   H28310265   2.330   5.791   7.570 -0.6391 -2.5135 -1.4865
   32MOL   H28410266   2.606   5.776   7.719 -1.2311  0.7280  1.3699
   32MOL   H28510267   2.556   5.913   7.610  1.1107  0.6336  0.0422
   32MOL   H28610268   2.466   5.879   7.750  0.0411  1.3124 -0.6387
   32MOL   H28710269   2.366   5.630   7.770 -0.8697 -0.0938 -0.0506
   32MOL   H28810270   2.490   5.551   7.683  0.7751  0.8714  2.6106
   32MOL   H28910271   2.335   5.533   7.624  1.2699 -0.9161  1.0393
   32MOL   C29010272   2.307   5.779   7.299 -0.4057  0.6081 -1.1087
   32MOL   C29110273   2.384   5.902   7.237 -0.3562 -0.1577  0.2714
   32MOL   O29210274   2.474   5.860   7.134 -0.7053  0.0758 -0.0202
   32MOL   C29310275   2.583   5.954   7.104 -0.9826  0.6925  0.6315
   32MOL   C29410276   2.593   5.964   6.952  0.1706 -0.1208  0.1943
   32MOL   C29510277   2.702   5.902   7.184 -0.4579  0.0587 -0.0914
   32MOL   H29610278   2.229   5.795   7.374 -0.9817 -3.2134 -0.7854
   32MOL   H29710279   2.247   5.744   7.214 -0.3157  0.0261 -0.9327
   32MOL   H29810280   2.444   5.949   7.315 -0.8316  0.0084  0.5377
   32MOL   H29910281   2.560   6.052   7.146 -0.0401  0.7743  0.9621
   32MOL   H30010282   2.618   5.867   6.908 -0.7317 -0.0482 -0.4772
   32MOL   H30110283   2.494   5.995   6.918  1.1452  0.3059 -2.3565
   32MOL   H30210284   2.669   6.038   6.924 -1.8249  0.4804 -4.0425
   32MOL   H30310285   2.788   5.967   7.191 -0.5836  0.1629  0.4565
   32MOL   H30410286   2.659   5.870   7.279 -0.8761 -0.3476 -0.4083
   32MOL   H30510287   2.739   5.814   7.131 -1.0187 -1.3238  1.7576
   32MOL   C30610288   2.289   6.016   7.196 -0.1773  0.1135 -0.2697
   32MOL   C30710289   2.192   5.967   7.091  0.3453 -0.7041  0.1216
   32MOL   O30810290   2.143   6.079   7.015  0.1519 -0.4390  0.5866
   32MOL   C30910291   2.057   6.047   6.907  0.0904 -1.0145 -0.0365
   32MOL   C31010292   1.971   6.171   6.887  1.2777 -0.7698  0.5411
   32MOL   C31110293   2.146   6.017   6.781  0.1238  0.0890 -1.2973
   32MOL   H31210294   2.345   6.106   7.169  0.2251  0.1108  0.5348
   32MOL   H31310295   2.232   6.045   7.284 -0.7131  0.3574 -0.6941
   32MOL   H31410296   2.239   5.888   7.031 -2.2393 -0.6140 -2.0989
   32MOL   H31510297   1.999   5.957   6.929  0.2156 -0.5229  2.4522
   32MOL   H31610298   1.894   6.187   6.962  0.5645  0.0875 -0.3514
   32MOL   H31710299   1.909   6.161   6.798  1.6476 -0.2732  0.2227
   32MOL   H31810300   2.029   6.262   6.872  0.5479 -0.0890  1.7898
   32MOL   H31910301   2.228   5.948   6.803  0.3264  1.5171  2.8545
   32MOL   H32010302   2.194   6.101   6.730 -0.5594  1.6296  0.5792
   32MOL   H32110303   2.097   5.969   6.696  0.3457 -1.5445 -0.5282
   32MOL   H32210304   2.107   5.910   7.128  0.8121 -1.2473  0.3771
   33MOL     C110305   1.613   2.464   6.664 -0.1891 -0.1345  0.3683
   33MOL     C210306   1.722   2.438   6.563  0.4436 -0.5391 -0.3997
   33MOL     O310307   1.794   2.567   6.571 -0.1585  0.4626 -0.0649
   33MOL     C410308   1.838   2.629   6.447  0.2087  0.5993  0.1676
   33MOL     C510309   1.983   2.587   6.415  0.1175 -0.2071  0.3627
   33MOL     C610310   1.838   2.778   6.489  0.1476 -0.5920 -0.7313
   33MOL     H710311   1.547   2.383   6.695  1.8459 -0.6023  3.6962
   33MOL     H810312   1.664   2.488   6.757 -0.7610  0.2887  0.5776
   33MOL     H910313   1.673   2.419   6.467 -1.5025 -0.1191  0.4797
   33MOL    H1010314   1.774   2.616   6.360  0.9772 -0.6497 -0.2289
   33MOL    H1110315   1.997   2.479   6.411 -0.5479 -0.2864  0.0647
   33MOL    H1210316   1.997   2.624   6.313 -0.4222  0.0288  0.3747
   33MOL    H1310317   2.059   2.632   6.478 -0.7777  3.2522 -0.9009
   33MOL    H1410318   1.875   2.853   6.419 -1.4913  2.2794  1.3653
   33MOL    H1510319   1.738   2.814   6.512 -0.1569 -0.6601 -1.9430
   33MOL    H1610320   1.881   2.779   6.590 -1.3771  0.9720 -0.0649
   33MOL    H1710321   1.546   2.545   6.633 -1.2097 -1.3441 -0.6307
   33MOL    C1810322   1.805   2.328   6.621 -0.0759 -1.1374  0.2742
   33MOL    C1910323   1.750   2.196   6.578  0.1696  0.1882  0.6885
   33MOL    O2010324   1.792   2.095   6.674  0.6240 -0.1065  0.5036
   33MOL    C2110325   1.715   1.977   6.695  0.3920 -0.6965 -0.2488
   33MOL    C2210326   1.597   2.013   6.788 -0.0771 -0.2908  0.1108
   33MOL    C2310327   1.793   1.864   6.755  0.6997 -1.0319 -0.1269
   33MOL    H2410328   1.907   2.336   6.583  0.1017  0.5767  1.0919
   33MOL    H2510329   1.815   2.332   6.730  2.7842 -1.7334  0.0814
   33MOL    H2610330   1.642   2.202   6.590  0.0614  0.1062 -0.2756
   33MOL    H2710331   1.662   1.954   6.603  2.1413 -0.3074 -1.3630
   33MOL    H2810332   1.544   2.104   6.758  0.8633  0.0260 -0.6425
   33MOL    H2910333   1.531   1.927   6.782 -0.5014  0.0760 -0.6043
   33MOL    H3010334   1.633   2.035   6.888 -0.2576 -0.4779  0.2164
   33MOL    H3110335   1.887   1.851   6.702  0.1458  2.2761 -2.0873
   33MOL    H3210336   1.730   1.775   6.749  1.3234 -1.5351  0.8493
   33MOL    H3310337   1.822   1.886   6.857  0.3698 -1.0258 -0.0330
   33MOL    C3410338   1.789   2.152   6.433  1.0163  0.9774  0.5633
   33MOL    C3510339   1.669   2.119   6.342 -0.2132  0.1289  0.3546
   33MOL    O3610340   1.602   2.245   6.345  0.0030 -0.0883 -0.0008
   33MOL    C3710341   1.460   2.239   6.312 -0.1835 -0.0554  0.5256
   33MOL    C3810342   1.379   2.193   6.424 -0.3757  0.0911  0.8479
   33MOL    C3910343   1.424   2.374   6.242  0.8671  0.6071 -0.1768
   33MOL    H4010344   1.863   2.072   6.444  0.8139  0.8849  1.2595
   33MOL    H4110345   1.846   2.232   6.386  3.0325 -1.2524 -0.9427
   33MOL    H4210346   1.599   2.053   6.394  0.0786  0.2259  0.8689
   33MOL    H4310347   1.449   2.160   6.237  2.4292 -0.3713  0.4275
   33MOL    H4410348   1.402   2.088   6.446  2.4036  0.7029  1.0899
   33MOL    H4510349   1.275   2.214   6.398 -0.1891  0.4107  0.3467
   33MOL    H4610350   1.402   2.246   6.516 -0.9000  2.7268 -0.5066
   33MOL    H4710351   1.316   2.376   6.228  0.8186  1.2242  0.2423
   33MOL    H4810352   1.453   2.466   6.292 -0.1282  1.4093 -1.0676
   33MOL    H4910353   1.481   2.390   6.151  0.0520 -3.5496 -1.5003
   33MOL    C5010354   1.695   2.059   6.204 -0.4654  0.4099  0.3453
   33MOL    C5110355   1.771   1.919   6.204  0.7073 -0.0423  0.3106
   33MOL    O5210356   1.818   1.882   6.074 -0.6008 -0.8410  0.1498
   33MOL    C5310357   1.950   1.923   6.041  0.2461  0.1417  0.1513
   33MOL    C5410358   1.956   1.994   5.902  0.3611  0.0165 -0.6308
   33MOL    C5510359   2.032   1.792   6.032 -0.9493  0.1746 -0.2421
   33MOL    H5610360   1.603   2.046   6.146  0.6029 -2.4512 -0.7783
   33MOL    H5710361   1.757   2.133   6.153  1.5947 -2.6379 -1.6942
   33MOL    H5810362   1.860   1.933   6.266  0.2194 -3.9241  2.0288
   33MOL    H5910363   2.005   1.983   6.114  0.7449 -0.8638  0.6057
   33MOL    H6010364   2.057   2.000   5.862  1.1293  1.8691  1.4811
   33MOL    H6110365   1.915   2.092   5.924  1.4366 -0.0605  1.9006
   33MOL    H6210366   1.896   1.937   5.832 -0.3341 -1.5777  1.2009
   33MOL    H6310367   2.032   1.738   6.127 -1.9776  2.1479  0.9333
   33MOL    H6410368   2.135   1.817   6.008 -1.0663 -0.5384 -1.4760
   33MOL    H6510369   1.997   1.726   5.953 -1.0365  0.5890 -0.5480
   33MOL    C6610370   1.682   1.813   6.269 -0.2240  0.3912 -0.1352
   33MOL    C6710371   1.764   1.681   6.297  0.3702  0.2333 -0.1634
   33MOL    O6810372   1.682   1.574   6.309  0.5199  0.4105  0.9383
   33MOL    C6910373   1.635   1.506   6.192 -0.8052  0.1098  0.0005
   33MOL    C7010374   1.742   1.404   6.141  0.9841 -0.3846 -0.4624
   33MOL    C7110375   1.504   1.439   6.229  0.3686  0.2629 -0.2627
   33MOL    H7210376   1.660   1.839   6.372  2.3118  3.1456 -0.2144
   33MOL    H7310377   1.597   1.800   6.203 -1.6344 -0.2011  1.7778
   33MOL    H7410378   1.840   1.669   6.220 -1.3717 -0.5495 -1.7938
   33MOL    H7510379   1.611   1.580   6.115  1.3672  1.6657  0.7908
   33MOL    H7610380   1.831   1.462   6.118  0.3727  0.8929  0.3330
   33MOL    H7710381   1.759   1.325   6.214  2.3738  0.4114  0.0879
   33MOL    H7810382   1.712   1.361   6.045 -1.3950  0.8848 -0.3204
   33MOL    H7910383   1.437   1.444   6.144  0.2368  0.7982 -0.1260
   33MOL    H8010384   1.457   1.501   6.305 -0.1752 -0.4531 -0.0096
   33MOL    H8110385   1.518   1.336   6.264 -1.0727 -0.6063 -2.1616
   33MOL    C8210386   1.839   1.678   6.432 -0.0401  0.2778 -0.8199
   33MOL    C8310387   1.927   1.546   6.462 -0.6786  0.2917  0.0422
   33MOL    O8410388   2.059   1.592   6.427 -1.1893  0.1621 -0.9756
   33MOL    C8510389   2.156   1.496   6.384 -0.3902  0.2806  0.3069
   33MOL    C8610390   2.266   1.482   6.487  0.6205 -0.5797 -0.1008
   33MOL    C8710391   2.217   1.536   6.249 -0.2980 -0.4957 -0.0464
   33MOL    H8810392   1.892   1.771   6.453 -0.0339  0.5840 -2.1751
   33MOL    H8910393   1.762   1.682   6.510 -0.1761 -2.0698 -0.8157
   33MOL    H9010394   1.900   1.459   6.402 -0.3114 -0.2512  0.6559
   33MOL    H9110395   2.115   1.398   6.360 -0.4358  0.2217  0.6268
   33MOL    H9210396   2.314   1.578   6.502  1.9900 -1.5252  1.6950
   33MOL    H9310397   2.225   1.451   6.583  0.4862  0.2713  0.1235
   33MOL    H9410398   2.330   1.400   6.457 -0.2049 -1.2882  0.0353
   33MOL    H9510399   2.148   1.521   6.166 -0.9105  1.2932  0.1160
   33MOL    H9610400   2.245   1.641   6.260 -1.6375 -0.0004 -1.1750
   33MOL    H9710401   2.301   1.471   6.225  0.1229 -0.0041  0.1045
   33MOL    C9810402   1.926   1.505   6.615 -0.0027  0.1867  0.4646
   33MOL    C9910403   1.801   1.434   6.672 -0.3388  0.0385 -0.2138
   33MOL   O10010404   1.723   1.517   6.760  0.3372  0.0528  0.0185
   33MOL   C10110405   1.586   1.492   6.750  0.5218 -0.7672  0.2399
   33MOL   C10210406   1.517   1.567   6.635  0.0800 -0.3111 -0.3221
   33MOL   C10310407   1.528   1.528   6.889 -0.7481  0.1675  0.0928
   33MOL   H10410408   2.015   1.442   6.625  0.3046  0.8492  2.0638
   33MOL   H10510409   1.956   1.594   6.669 -1.5920  0.7018  0.5046
   33MOL   H10610410   1.746   1.399   6.585 -1.2705 -3.0207  1.4979
   33MOL   H10710411   1.568   1.385   6.734  0.3380 -0.8450  0.9469
   33MOL   H10810412   1.549   1.671   6.625 -2.1133  0.1841 -3.1646
   33MOL   H10910413   1.409   1.554   6.639 -0.3435  3.3774  2.5359
   33MOL   H11010414   1.560   1.515   6.549  3.5065  2.1384 -0.2169
   33MOL   H11110415   1.419   1.528   6.897 -1.1383 -1.2372 -3.8504
   33MOL   H11210416   1.554   1.632   6.904 -1.6447  0.6425 -1.4785
   33MOL   H11310417   1.576   1.464   6.963  2.2114 -0.0340 -1.9080
   33MOL   C11410418   1.832   1.303   6.744 -0.0957  0.3133  0.0761
   33MOL   C11510419   1.893   1.183   6.660 -0.3154  0.1799  0.3673
   33MOL   O11610420   1.928   1.072   6.742  0.5082 -0.1225  0.3124
   33MOL   C11710421   1.999   1.102   6.859  0.2412 -0.1783 -0.2018
   33MOL   C11810422   2.149   1.137   6.823  1.3773 -0.6282 -1.1818
   33MOL   C11910423   1.994   0.970   6.937 -0.0240  0.4290  0.2901
   33MOL   H12010424   1.751   1.251   6.795  1.8113 -1.3205  1.5008
   33MOL   H12110425   1.911   1.338   6.811  0.3785 -0.6629  0.0386
   33MOL   H12210426   1.986   1.226   6.623  1.0454 -2.8771  0.0830
   33MOL   H12310427   1.959   1.181   6.922 -3.0364 -2.9811  1.4620
   33MOL   H12410428   2.167   1.229   6.767 -1.1840  2.0252  2.1738
   33MOL   H12510429   2.194   1.056   6.765  0.2106 -0.1158 -2.8149
   33MOL   H12610430   2.203   1.147   6.918 -0.0013  0.9834 -0.5420
   33MOL   H12710431   1.892   0.934   6.942  0.6328 -1.5587 -0.1304
   33MOL   H12810432   2.036   0.981   7.037 -0.4175  0.4129  0.4569
   33MOL   H12910433   2.051   0.889   6.891 -0.4177 -0.0808  0.6974
   33MOL   C13010434   1.809   1.134   6.538 -0.5812 -0.7155  0.4602
   33MOL   C13110435   1.876   1.042   6.434  0.2561 -0.4947  0.1101
   33MOL   O13210436   1.997   1.103   6.391 -0.8583 -0.2178  0.2877
   33MOL   C13310437   2.119   1.049   6.445 -0.1338  0.1184  0.5311
   33MOL   C13410438   2.164   0.929   6.367 -0.2516 -0.4832  0.1751
   33MOL   C13510439   2.231   1.150   6.448 -0.1918  0.0423  0.3923
   33MOL   H13610440   1.769   1.220   6.484 -0.0558  0.3181  1.6828
   33MOL   H13710441   1.731   1.080   6.590  0.0180 -1.1472  0.9181
   33MOL   H13810442   1.899   0.951   6.489  1.8312  0.1553  0.5394
   33MOL   H13910443   2.096   1.026   6.549  0.5890  1.7867  1.0869
   33MOL   H14010444   2.264   0.901   6.400 -1.0233  0.1201  3.1743
   33MOL   H14110445   2.154   0.942   6.259  0.1270  0.9220  0.3023
   33MOL   H14210446   2.094   0.847   6.387  0.9068 -0.9460  2.4676
   33MOL   H14310447   2.321   1.097   6.480 -0.4786 -1.1298 -0.7373
   33MOL   H14410448   2.250   1.190   6.349  0.0336 -0.0037  0.4152
   33MOL   H14510449   2.204   1.234   6.513 -1.2148 -1.5761  2.0962
   33MOL   C14610450   1.792   1.015   6.312 -0.1578 -0.4448 -0.5263
   33MOL   C14710451   1.660   0.929   6.331 -0.1609 -0.6166 -0.0697
   33MOL   O14810452   1.574   0.948   6.216 -0.4899  0.4031 -0.2055
   33MOL   C14910453   1.468   1.046   6.226 -0.4648  0.6800  0.1037
   33MOL   C15010454   1.338   0.970   6.270  0.3525 -0.6354 -0.1002
   33MOL   C15110455   1.442   1.111   6.092 -0.1658 -0.6960  0.6677
   33MOL   H15210456   1.850   0.958   6.240 -2.8011 -0.4778 -2.7187
   33MOL   H15310457   1.762   1.110   6.268  0.7981 -0.4101 -1.1002
   33MOL   H15410458   1.620   0.970   6.424 -1.6766 -0.9850 -0.5407
   33MOL   H15510459   1.491   1.128   6.295  1.7726 -0.2113  0.4477
   33MOL   H15610460   1.268   1.052   6.290 -0.4542 -2.0532  3.2721
   33MOL   H15710461   1.354   0.914   6.362 -0.2184 -2.8736 -1.3269
   33MOL   H15810462   1.311   0.899   6.192 -0.1707 -2.5315  1.7894
   33MOL   H15910463   1.520   1.170   6.044 -2.3339  0.8937 -0.9929
   33MOL   H16010464   1.356   1.179   6.087  0.0732 -0.3788  0.8533
   33MOL   H16110465   1.422   1.035   6.017 -3.6090  0.1796  0.6095
   33MOL   C16210466   1.682   0.787   6.358  0.6077  0.0099  0.3260
   33MOL   C16310467   1.575   0.720   6.448  0.3575  1.1087  0.2061
   33MOL   O16410468   1.578   0.576   6.422  0.3918 -1.1571  0.5120
   33MOL   C16510469   1.500   0.528   6.311  0.1717 -0.1189  0.2565
   33MOL   C16610470   1.349   0.507   6.362 -0.7190 -0.3945 -0.5504
   33MOL   C16710471   1.558   0.403   6.249 -0.1492 -0.0124  0.4873
   33MOL   H16810472   1.671   0.734   6.264 -1.6764 -1.1083  1.2089
   33MOL   H16910473   1.780   0.757   6.396  0.9113  0.6771  0.0830
   33MOL   H17010474   1.477   0.757   6.419 -0.2045  0.8283  1.7096
   33MOL   H17110475   1.504   0.600   6.229  0.2619 -0.8111 -0.3551
   33MOL   H17210476   1.286   0.469   6.281  0.8089 -1.7578 -1.1139
   33MOL   H17310477   1.309   0.600   6.403  3.6811  1.2697  0.1841
   33MOL   H17410478   1.330   0.431   6.437  0.3751 -0.6835 -0.5677
   33MOL   H17510479   1.556   0.310   6.307 -0.3105 -1.3112 -1.5583
   33MOL   H17610480   1.659   0.423   6.213  0.1970  1.0847  2.0070
   33MOL   H17710481   1.495   0.384   6.162  3.0357 -0.0764 -1.8683
   33MOL   C17810482   1.603   0.746   6.602 -0.5207  0.2803  0.3166
   33MOL   C17910483   1.477   0.778   6.679 -0.3263  0.1629  0.0816
   33MOL   O18010484   1.498   0.741   6.813 -0.1748  0.0971  0.2235
   33MOL   C18110485   1.498   0.607   6.846  0.8884  0.2749 -0.0655
   33MOL   C18210486   1.370   0.570   6.930  0.2311 -0.1531 -0.1216
   33MOL   C18310487   1.626   0.575   6.922 -0.4541  0.7647  0.1483
   33MOL   H18410488   1.674   0.827   6.620 -0.8929  0.1539  2.4279
   33MOL   H18510489   1.650   0.660   6.651  0.5833  2.2674  2.8653
   33MOL   H18610490   1.400   0.720   6.627  0.3320  0.0079 -0.7362
   33MOL   H18710491   1.499   0.543   6.757 -0.6307  1.3595 -0.8993
   33MOL   H18810492   1.386   0.481   6.990 -0.4688  1.1394  2.0166
   33MOL   H18910493   1.283   0.543   6.870 -0.7311 -2.1967  2.1279
   33MOL   H19010494   1.346   0.644   7.006  0.2148 -0.4031  0.1157
   33MOL   H19110495   1.626   0.476   6.967 -1.2944  1.5277  1.8604
   33MOL   H19210496   1.648   0.650   6.998  0.2514 -0.8337  1.5306
   33MOL   H19310497   1.703   0.577   6.845 -0.7469  2.2798 -0.1258
   33MOL   C19410498   1.436   0.921   6.666 -0.4250 -0.0315 -0.2585
   33MOL   C19510499   1.300   0.955   6.728 -0.0976  0.0621  0.8424
   33MOL   O19610500   1.209   0.934   6.624 -0.5546  0.6039 -0.1642
   33MOL   C19710501   1.093   0.862   6.660 -0.6547  0.1971  0.9419
   33MOL   C19810502   0.992   0.909   6.557 -0.2483  0.0429 -0.0561
   33MOL   C19910503   1.114   0.711   6.658  0.4323 -0.1708  0.7842
   33MOL   H20010504   1.519   0.977   6.710 -1.6365  0.8594  0.9072
   33MOL   H20110505   1.443   0.948   6.560 -2.5803  1.4404 -0.0451
   33MOL   H20210506   1.276   0.896   6.816 -0.1024  1.5104  1.8281
   33MOL   H20310507   1.054   0.895   6.756 -2.7095 -0.5775  0.3973
   33MOL   H20410508   0.905   0.843   6.561 -2.1103  2.4756  1.1777
   33MOL   H20510509   0.961   1.013   6.569 -0.8735 -0.0870 -0.5574
   33MOL   H20610510   1.037   0.905   6.458  1.9266  2.2784  0.7802
   33MOL   H20710511   1.161   0.693   6.561  3.7369  0.8197  2.1276
   33MOL   H20810512   1.188   0.689   6.736  0.3323  0.2017  0.9818
   33MOL   H20910513   1.023   0.653   6.674  0.9185 -0.8449  1.2013
   33MOL   C21010514   1.298   1.097   6.778  0.3721 -0.6483  0.2746
   33MOL   C21110515   1.198   1.127   6.890  0.1855 -0.2392  0.3264
   33MOL   O21210516   1.251   1.057   7.004  0.7013 -0.4882  0.0799
   33MOL   C21310517   1.160   0.970   7.074 -0.5008  0.4352 -0.4899
   33MOL   C21410518   1.232   0.882   7.179  0.1693 -0.2060 -0.0613
   33MOL   C21510519   1.058   1.049   7.156  0.4420 -0.8290  0.0011
   33MOL   H21610520   1.291   1.172   6.699 -0.5177 -1.7831 -0.7418
   33MOL   H21710521   1.395   1.127   6.819 -0.9735  1.1202  2.2627
   33MOL   H21810522   1.095   1.099   6.870  0.8455 -1.7287 -1.1346
   33MOL   H21910523   1.108   0.898   7.010 -1.5761 -0.8996  1.8149
   33MOL   H22010524   1.295   0.807   7.131 -0.1571 -0.0492 -0.7243
   33MOL   H22110525   1.163   0.835   7.249  0.6959 -1.4058 -0.3283
   33MOL   H22210526   1.300   0.943   7.239  1.4642  0.3420 -2.0495
   33MOL   H22310527   1.112   1.108   7.230  0.0909  0.2054 -0.5382
   33MOL   H22410528   0.977   0.998   7.208 -0.6712  1.0054  0.1539
   33MOL   H22510529   1.005   1.113   7.085  1.2820 -0.8071 -0.6095
   33MOL   C22610530   1.190   1.279   6.929 -0.7335 -0.3076 -0.1920
   33MOL   C22710531   1.098   1.360   6.836 -0.1795  0.7316 -0.1598
   33MOL   O22810532   1.159   1.383   6.709  0.1811  0.0548 -0.5103
   33MOL   C22910533   1.074   1.332   6.607 -0.1640  0.4650  0.1235
   33MOL   C23010534   1.157   1.319   6.480 -0.5023 -0.3796  0.6582
   33MOL   C23110535   0.959   1.435   6.592  0.5857  0.4647  0.3650
   33MOL   H23210536   1.289   1.323   6.937 -1.2076  0.7557 -0.0693
   33MOL   H23310537   1.152   1.280   7.031  2.1258 -0.2117  0.9224
   33MOL   H23410538   1.013   1.292   6.829 -1.5959  2.5922 -1.3398
   33MOL   H23510539   1.034   1.232   6.625 -0.9041  0.2567 -2.4286
   33MOL   H23610540   1.122   1.260   6.396  2.0309 -2.6303  1.1326
   33MOL   H23710541   1.166   1.423   6.448 -0.9985 -0.4476  0.2883
   33MOL   H23810542   1.257   1.280   6.498  0.0860  0.3386 -1.0012
   33MOL   H23910543   0.894   1.420   6.506 -0.0376  2.9020  0.3609
   33MOL   H24010544   1.006   1.531   6.568 -0.3469  0.9294  0.3724
   33MOL   H24110545   0.891   1.448   6.676  0.3093  1.2348  0.0315
   33MOL   C24210546   1.054   1.498   6.892 -0.4057 -0.2614  0.1540
   33MOL   C24310547   0.930   1.481   6.981  0.0878 -0.1187  0.2410
   33MOL   O24410548   0.821   1.427   6.896  0.4841 -0.0190 -0.3527
   33MOL   C24510549   0.715   1.361   6.968  0.4045 -0.2340 -0.3468
   33MOL   C24610550   0.584   1.450   6.959 -0.1260 -0.2084  0.1696
   33MOL   C24710551   0.689   1.231   6.898  0.4299 -0.1020  0.0587
   33MOL   H24810552   1.136   1.539   6.952  0.8858 -1.2451 -0.8962
   33MOL   H24910553   1.019   1.559   6.809  2.3794 -2.6966 -2.9785
   33MOL   H25010554   0.952   1.414   7.064 -2.0782  0.3301  1.2196
   33MOL   H25110555   0.733   1.332   7.071  2.6582 -0.2337 -0.7167
   33MOL   H25210556   0.562   1.483   6.858  0.1354 -2.1383 -0.5454
   33MOL   H25310557   0.498   1.401   7.005 -1.2365  0.6397 -1.0200
   33MOL   H25410558   0.603   1.538   7.020 -2.0935  1.7254 -1.9725
   33MOL   H25510559   0.647   1.245   6.798  1.5802  0.1652 -0.4013
   33MOL   H25610560   0.781   1.173   6.887  1.3553  1.4084 -0.4575
   33MOL   H25710561   0.618   1.164   6.946 -0.4233  0.2917 -0.6405
   33MOL   C25810562   0.893   1.618   7.041  0.9844  0.1667 -0.2655
   33MOL   C25910563   0.966   1.643   7.176 -0.6368  0.4849 -0.1498
   33MOL   O26010564   0.910   1.556   7.279 -0.6394  0.5944  0.2811
   33MOL   C26110565   1.007   1.490   7.364  0.1003 -0.1752 -0.1203
   33MOL   C26210566   0.988   1.532   7.508 -0.0409 -0.5763  0.0404
   33MOL   C26310567   0.979   1.342   7.358 -0.6967  0.1288 -0.0815
   33MOL   H26410568   0.923   1.693   6.968  0.0468  1.4216  0.6216
   33MOL   H26510569   0.786   1.633   7.054  0.8866  0.2413 -1.1158
   33MOL   H26610570   1.070   1.619   7.156 -0.4230  0.6351  0.7530
   33MOL   H26710571   1.111   1.511   7.338 -0.2487 -1.1406 -2.3873
   33MOL   H26810572   0.996   1.640   7.505 -1.5484 -0.4798 -0.8374
   33MOL   H26910573   1.074   1.494   7.564  0.0291  0.6545  0.7811
   33MOL   H27010574   0.896   1.503   7.558  0.7829  1.6685  2.9944
   33MOL   H27110575   0.871   1.329   7.372 -0.7351 -0.4070 -0.8621
   33MOL   H27210576   1.010   1.301   7.262  1.7117  2.4638 -0.3335
   33MOL   H27310577   1.026   1.292   7.443 -0.2957  2.8071  1.3384
   33MOL   C27410578   0.941   1.781   7.223  0.0917  0.1375 -0.2493
   33MOL   C27510579   1.063   1.871   7.220  0.3411  0.6784  0.3118
   33MOL   O27610580   1.106   1.913   7.086  0.0413 -0.3748 -0.1116
   33MOL   C27710581   1.244   1.911   7.064 -0.1034  0.9752 -0.3484
   33MOL   C27810582   1.281   2.036   6.984 -0.0031 -0.4314 -0.5692
   33MOL   C27910583   1.298   1.779   7.001 -0.0309  0.5297  0.2108
   33MOL   H28010584   0.851   1.828   7.183 -1.9791 -0.2337  3.7576
   33MOL   H28110585   0.916   1.783   7.329  0.7580 -2.5529  0.0110
   33MOL   H28210586   1.139   1.803   7.259  1.4423  1.5623 -0.2748
   33MOL   H28310587   1.300   1.920   7.156 -0.5090  1.3381 -0.1395
   33MOL   H28410588   1.390   2.045   6.984  0.0578 -0.9618  0.9357
   33MOL   H28510589   1.247   2.026   6.881  0.4915 -1.7962 -0.6026
   33MOL   H28610590   1.232   2.126   7.021 -0.4772 -0.2747 -1.5608
   33MOL   H28710591   1.262   1.694   7.060  0.9044 -0.0256 -0.0114
   33MOL   H28810592   1.406   1.768   6.992 -0.0368  0.0565  0.6734
   33MOL   H28910593   1.253   1.766   6.903 -1.0950 -2.9014  1.0804
   33MOL   C29010594   1.062   2.001   7.307 -0.1178  0.4430 -0.2860
   33MOL   C29110595   1.056   1.971   7.464 -0.4158 -0.4277 -0.1573
   33MOL   O29210596   1.183   1.964   7.515  0.1192  0.1402  0.0872
   33MOL   C29310597   1.228   1.847   7.585  0.2334  0.3826 -0.1378
   33MOL   C29410598   1.186   1.837   7.728  0.2522 -0.3856  0.3853
   33MOL   C29510599   1.387   1.848   7.568  0.3457  1.2496 -0.1085
   33MOL   H29610600   0.978   2.067   7.287 -0.3460 -0.5566 -2.7390
   33MOL   H29710601   1.151   2.055   7.274 -0.1808  1.8852  1.7940
   33MOL   H29810602   1.014   1.873   7.483  0.0175 -0.4077  0.9101
   33MOL   H29910603   1.194   1.757   7.534  0.8066  0.0195  0.1142
   33MOL   H30010604   1.213   1.921   7.792  3.9202 -0.8035 -0.4620
   33MOL   H30110605   1.080   1.819   7.717  0.1748 -0.6519  1.4923
   33MOL   H30210606   1.227   1.751   7.781 -0.3462 -0.1473  1.2398
   33MOL   H30310607   1.430   1.773   7.634 -1.9787  0.5423  0.6479
   33MOL   H30410608   1.412   1.834   7.463 -0.5371  1.4879 -0.3536
   33MOL   H30510609   1.426   1.944   7.602 -0.4370  1.1030  1.2397
   33MOL   C30610610   0.980   2.077   7.554  0.0460 -0.1446 -0.7867
   33MOL   C30710611   1.034   2.215   7.555  0.3794 -0.6987 -0.4236
   33MOL   O30810612   0.957   2.292   7.647 -0.1032  0.3910 -0.3753
   33MOL   C30910613   1.021   2.412   7.670 -0.4016  0.5663 -1.3682
   33MOL   C31010614   0.919   2.523   7.668 -0.1495 -0.3736 -0.3340
   33MOL   C31110615   1.097   2.404   7.811  0.6514 -0.4690 -0.1133
   33MOL   H31210616   0.990   2.032   7.653  0.8743  0.4139 -0.6092
   33MOL   H31310617   0.875   2.085   7.524 -0.1825 -0.3671 -0.0603
   33MOL   H31410618   1.138   2.205   7.586  0.0163 -0.4198  0.9371
   33MOL   H31510619   1.092   2.441   7.593  0.0259  0.3336 -1.0653
   33MOL   H31610620   0.836   2.507   7.737  0.3172  0.4758  0.4280
   33MOL   H31710621   0.862   2.533   7.576 -1.4863  1.7405  0.6984
   33MOL   H31810622   0.964   2.620   7.687 -1.7978  0.1155  1.1842
   33MOL   H31910623   1.147   2.308   0.006 -1.2974 -1.1250  2.4572
   33MOL   H32010624   1.029   2.423   0.073  1.1818  0.4762  0.1177
   33MOL   H32110625   1.184   2.469   7.816 -0.4117  0.8152  2.3519
   33MOL   H32210626   1.032   2.252   7.453 -1.4747  1.1266  0.2370
   34MOL     C110627   0.640   4.596   1.400 -0.5132  0.6246  0.1433
   34MOL     C210628   0.748   4.534   1.319  0.6048 -0.5458 -0.7024
   34MOL     O310629   0.807   4.435   1.399  0.0413 -0.0145  0.7831
   34MOL     C410630   0.904   4.479   1.500  0.1999  0.3266 -0.1435
   34MOL     C510631   1.038   4.414   1.457 -0.2044 -0.2571  0.2578
   34MOL     C610632   0.863   4.426   1.631  0.0889  0.3429 -0.3940
   34MOL     H710633   0.545   4.543   1.406 -1.0173  0.8513 -4.2394
   34MOL     H810634   0.673   4.627   1.499  2.7010  0.6113 -0.8554
   34MOL     H910635   0.827   4.606   1.302 -0.4291  0.6870 -0.3668
   34MOL    H1010636   0.918   4.586   1.518  0.4996  0.2081  0.3615
   34MOL    H1110637   1.120   4.422   1.528  0.2993  3.1688 -0.6342
   34MOL    H1210638   1.012   4.310   1.437  1.5919 -1.3312  3.1726
   34MOL    H1310639   1.085   4.455   1.368 -2.5205  0.4626 -0.6849
   34MOL    H1410640   0.773   4.480   1.657 -1.1832 -0.2718 -3.3593
   34MOL    H1510641   0.850   4.317   1.636 -2.7130  0.7582  3.5385
   34MOL    H1610642   0.928   4.455   1.713 -2.4692  1.6712  1.1984
   34MOL    H1710643   0.620   4.690   1.347  1.5344  0.2770 -1.3092
   34MOL    C1810644   0.708   4.465   1.184  0.1429 -0.0144 -0.4138
   34MOL    C1910645   0.714   4.570   1.069  0.3820  0.3039 -0.1846
   34MOL    O2010646   0.676   4.696   1.113  0.2535 -0.7352  0.2266
   34MOL    C2110647   0.764   4.805   1.078  0.4331 -0.4025 -0.2625
   34MOL    C2210648   0.690   4.927   1.142  0.0357  0.4981 -0.3165
   34MOL    C2310649   0.789   4.829   0.928  0.2938 -0.1491 -0.2200
   34MOL    H2410650   0.784   4.388   1.167  0.0680 -0.2970  0.5140
   34MOL    H2510651   0.607   4.424   1.189  0.7134 -2.2977 -4.8992
   34MOL    H2610652   0.812   4.561   1.023  0.1707  1.6014 -0.9115
   34MOL    H2710653   0.855   4.788   1.134  0.8478 -1.1548 -1.1586
   34MOL    H2810654   0.690   4.914   1.250  1.5308 -3.4816 -0.7210
   34MOL    H2910655   0.757   5.008   1.113  1.8841 -0.3629  1.4729
   34MOL    H3010656   0.585   4.942   1.114 -0.5352 -1.8955  0.4036
   34MOL    H3110657   0.835   4.926   0.911  1.1024 -0.6249 -0.8094
   34MOL    H3210658   0.693   4.826   0.877  0.5004  1.5593 -0.7510
   34MOL    H3310659   0.855   4.746   0.900  0.7225  0.5607 -1.3528
   34MOL    C3410660   0.611   4.549   0.952  0.2189  0.1560 -0.1778
   34MOL    C3510661   0.623   4.421   0.863  0.3722  0.0429 -0.2997
   34MOL    O3610662   0.534   4.437   0.750  0.0859 -0.5177  0.0508
   34MOL    C3710663   0.398   4.399   0.767  0.0530 -0.6470  0.5679
   34MOL    C3810664   0.311   4.511   0.709  0.3113 -0.7204 -0.1608
   34MOL    C3910665   0.376   4.265   0.693  0.3058  0.1912 -0.1882
   34MOL    H4010666   0.607   4.636   0.887  1.3523 -0.4931 -1.1361
   34MOL    H4110667   0.524   4.539   1.016  2.6589 -1.1146  3.0649
   34MOL    H4210668   0.589   4.333   0.918  0.3396 -1.0405 -2.0276
   34MOL    H4310669   0.376   4.393   0.873  0.2600  0.0069  0.6524
   34MOL    H4410670   0.348   4.607   0.746 -1.1630 -0.0057 -0.4786
   34MOL    H4510671   0.207   4.514   0.742 -0.0058 -1.5146 -1.0750
   34MOL    H4610672   0.319   4.523   0.601 -2.8701  2.3830 -0.1676
   34MOL    H4710673   0.380   4.272   0.584  0.6385  0.1913 -0.1789
   34MOL    H4810674   0.457   4.196   0.720 -0.0371  0.3531  1.3211
   34MOL    H4910675   0.277   4.222   0.707  0.0213  0.7594 -0.4779
   34MOL    C5010676   0.760   4.389   0.808 -0.2659 -0.3850  0.1500
   34MOL    C5110677   0.786   4.275   0.701  0.4803  0.1936  0.1007
   34MOL    O5210678   0.923   4.251   0.681  0.6128  0.7134 -0.0800
   34MOL    C5310679   0.997   4.190   0.787 -0.6947 -0.0137 -0.6169
   34MOL    C5410680   1.136   4.228   0.766 -0.3667 -0.6013 -0.2019
   34MOL    C5510681   0.986   4.035   0.775 -0.4197  0.5932  0.0772
   34MOL    H5610682   0.815   4.478   0.778  1.1933 -1.6403 -0.9731
   34MOL    H5710683   0.810   4.355   0.899  1.0423  2.6400  0.6310
   34MOL    H5810684   0.745   4.185   0.745  1.5430 -1.4985 -2.2585
   34MOL    H5910685   0.974   4.223   0.888 -0.0561  1.8583 -1.0523
   34MOL    H6010686   1.209   4.160   0.811  0.0197  0.2147  0.4094
   34MOL    H6110687   1.153   4.335   0.780  1.8064 -0.7693 -1.3220
   34MOL    H6210688   1.159   4.234   0.659 -0.7817  1.4855 -0.1849
   34MOL    H6310689   1.054   3.992   0.848 -1.7715 -1.5762  0.0811
   34MOL    H6410690   1.024   4.010   0.676 -2.1023  0.6901 -0.6073
   34MOL    H6510691   0.889   3.985   0.779 -0.4198  0.6186  0.3437
   34MOL    C6610692   0.718   4.296   0.565 -0.3285  0.0609  0.2777
   34MOL    C6710693   0.710   4.171   0.468 -0.1358 -0.2920  0.7824
   34MOL    O6810694   0.681   4.212   0.336  0.2920  0.1070  0.5793
   34MOL    C6910695   0.791   4.278   0.275  0.2678 -0.2504 -0.4499
   34MOL    C7010696   0.878   4.201   0.175 -0.3845 -0.0063  0.2368
   34MOL    C7110697   0.723   4.406   0.217 -0.3530  0.2147 -0.0509
   34MOL    H7210698   0.615   4.331   0.572 -0.1730  0.7287 -0.7657
   34MOL    H7310699   0.776   4.374   0.516 -2.1932  2.0678  1.1667
   34MOL    H7410700   0.810   4.128   0.469  1.6305  3.5757 -0.2888
   34MOL    H7510701   0.862   4.303   0.354 -0.9445 -0.3656  0.7052
   34MOL    H7610702   0.828   4.141   0.099 -1.8712  1.1166  0.3027
   34MOL    H7710703   0.937   4.277   0.123  2.2743  1.0150  4.5262
   34MOL    H7810704   0.943   4.140   0.237  0.4218  1.8835  1.2924
   34MOL    H7910705   0.663   4.445   0.299  0.9377  1.3042  0.3870
   34MOL    H8010706   0.655   4.371   0.140 -1.7938  2.7753  0.0005
   34MOL    H8110707   0.782   4.491   0.185 -0.7729  0.0285 -1.3226
   34MOL    C8210708   0.618   4.059   0.505 -0.4953  0.4276 -0.6788
   34MOL    C8310709   0.631   3.926   0.428 -0.4581  0.5427 -0.1149
   34MOL    O8410710   0.755   3.872   0.477  0.0800 -0.0434  0.1174
   34MOL    C8510711   0.855   3.832   0.384 -0.9317 -0.1918  0.7016
   34MOL    C8610712   0.830   3.696   0.312 -0.8192 -0.0825 -0.4609
   34MOL    C8710713   0.989   3.822   0.465  0.4712  0.3647  0.2253
   34MOL    H8810714   0.628   4.040   0.612  0.3037  1.8781 -0.4707
   34MOL    H8910715   0.518   4.099   0.489 -0.7604  0.0700  0.0542
   34MOL    H9010716   0.630   3.949   0.322 -0.7187 -0.9545 -0.4353
   34MOL    H9110717   0.856   3.920   0.320 -2.8325 -0.8981 -0.3162
   34MOL    H9210718   0.734   3.703   0.261 -1.8806 -2.2616  1.1387
   34MOL    H9310719   0.910   3.674   0.242 -0.8499  1.5912 -1.0397
   34MOL    H9410720   0.814   3.611   0.379  0.8548  1.2219  1.6517
   34MOL    H9510721   1.063   3.774   0.401 -0.8380 -0.7669 -0.4744
   34MOL    H9610722   1.024   3.923   0.488 -0.6021  0.4127  1.7124
   34MOL    H9710723   0.983   3.762   0.556 -0.5542 -0.8077 -0.5875
   34MOL    C9810724   0.513   3.828   0.456  0.4682  1.0313 -0.1738
   34MOL    C9910725   0.380   3.867   0.389 -0.8641 -0.1134  0.7789
   34MOL   O10010726   0.256   3.814   0.450  0.4372 -0.7618 -0.5082
   34MOL   C10110727   0.202   3.883   0.571 -0.5088  0.3407 -0.0583
   34MOL   C10210728   0.157   3.767   0.663  0.1176 -0.8608  0.5966
   34MOL   C10310729   0.084   3.971   0.530 -0.1958 -0.9634  0.2700
   34MOL   H10410730   0.533   3.725   0.425  1.1871  0.3726  2.3340
   34MOL   H10510731   0.511   3.828   0.565 -0.8290  0.8398 -0.1898
   34MOL   H10610732   0.369   3.975   0.383 -1.2261 -0.1946 -0.1243
   34MOL   H10710733   0.282   3.941   0.615 -0.5174 -2.0747  3.3533
   34MOL   H10810734   0.124   3.792   0.764  0.1193 -0.7326  0.5653
   34MOL   H10910735   0.253   3.716   0.663 -0.3115 -1.6953 -0.5375
   34MOL   H11010736   0.087   3.706   0.606 -0.3546 -1.8828  2.2433
   34MOL   H11110737   0.028   4.021   0.609 -2.6714 -1.8330 -0.8810
   34MOL   H11210738   0.021   3.896   0.481 -2.3301  1.3396 -0.6094
   34MOL   H11310739   0.128   4.041   0.460  1.5507 -2.2031  0.0792
   34MOL   C11410740   0.381   3.825   0.237 -0.3144 -0.1740 -0.4997
   34MOL   C11510741   0.297   3.924   0.152  0.7465  0.3801  0.2619
   34MOL   O11610742   0.395   4.029   0.128  0.5716 -0.0934  0.7572
   34MOL   C11710743   0.331   4.154   0.108  0.0211 -0.6788 -0.6033
   34MOL   C11810744   0.401   4.220   7.811  0.4345 -0.2162  0.4925
   34MOL   C11910745   0.330   4.239   0.238  0.1342 -0.2820 -0.4818
   34MOL   H12010746   0.337   3.725   0.234  1.6598 -1.1067  0.5192
   34MOL   H12110747   0.482   3.811   0.198 -0.2514  1.8856 -1.1548
   34MOL   H12210748   0.210   3.959   0.206  1.1268 -1.7578  2.3732
   34MOL   H12310749   0.226   4.142   0.080 -0.0507 -2.4494  0.3410
   34MOL   H12410750   0.508   4.218   0.010  0.4592  1.1288  0.5521
   34MOL   H12510751   0.368   4.322   7.790 -1.2420 -1.0123 -0.8045
   34MOL   H12610752   0.381   4.156   7.725 -0.3219  0.3280  0.2568
   34MOL   H12710753   0.284   4.205   0.331  0.1498  1.4740  0.1855
   34MOL   H12810754   0.305   4.344   0.220  1.4794  0.0652 -0.3136
   34MOL   H12910755   0.432   4.258   0.268 -0.0198 -4.2214  2.8983
   34MOL   C13010756   0.263   3.870   0.012 -0.0488  0.0125  0.1054
   34MOL   C13110757   0.136   3.778   0.012  0.6054 -0.7147  0.5696
   34MOL   O13210758   0.112   3.722   7.706  1.0004  0.0413 -0.6762
   34MOL   C13310759   0.207   3.622   7.663  0.2159 -0.2471 -0.1436
   34MOL   C13410760   0.172   3.486   7.735  0.0677  0.3539 -0.2806
   34MOL   C13510761   0.204   3.618   7.505 -0.2505 -0.0353 -0.1028
   34MOL   H13610762   0.351   3.820   7.791 -1.0747  0.5484 -2.8553
   34MOL   H13710763   0.237   3.951   7.764  1.2415 -1.1294 -1.8028
   34MOL   H13810764   0.150   3.698   0.085 -1.4097 -1.6729 -0.0656
   34MOL   H13910765   0.310   3.645   7.689 -0.5152  1.0229  1.7056
   34MOL   H14010766   0.236   3.402   7.708  1.3728  0.8763  1.1057
   34MOL   H14110767   0.070   3.449   7.722  0.6645 -0.0597 -4.4075
   34MOL   H14210768   0.202   3.493   0.019 -0.1199  1.0039 -0.2707
   34MOL   H14310769   0.221   3.716   7.460 -1.3580 -0.3572 -1.2677
   34MOL   H14410770   0.273   3.543   7.467 -0.1853  0.4039 -0.8505
   34MOL   H14510771   0.101   3.595   7.477 -0.4214 -0.6740  1.0102
   34MOL   C14610772   0.008   3.846   0.051  0.1049 -0.3809  0.7659
   34MOL   C14710773   7.718   3.744   0.071  0.2812  0.0535 -0.2951
   34MOL   O14810774   7.742   3.677   0.197  0.0177 -0.5262  0.3966
   34MOL   C14910775   7.753   3.540   0.208  0.6364 -0.8636 -0.6314
   34MOL   C15010776   7.638   3.466   0.135 -0.4000  0.3050 -0.1157
   34MOL   C15110777   7.738   3.524   0.359  0.9792  0.7185  0.6602
   34MOL   H15210778   7.799   3.926   7.802 -3.9246 -0.7870  1.8531
   34MOL   H15310779   0.018   3.899   0.145  2.0996 -1.7292  1.3331
   34MOL   H15410780   7.702   3.679   7.805 -1.3161 -0.3386  0.2742
   34MOL   H15510781   0.025   3.497   0.168  0.3738 -0.3324 -1.8616
   34MOL   H15610782   7.632   3.365   0.176  2.2643  0.0204 -0.3210
   34MOL   H15710783   7.655   3.457   0.028 -1.1201  1.1217 -0.3061
   34MOL   H15810784   7.539   3.507   0.157  0.4819  1.5470  1.6649
   34MOL   H15910785   0.008   3.561   0.406  0.5630  0.9811  1.2584
   34MOL   H16010786   7.734   3.418   0.381  2.6012  0.3419 -0.7604
   34MOL   H16110787   7.648   3.577   0.391 -1.5796 -2.3557 -1.0633
   34MOL   C16210788   7.589   3.821   0.112 -0.2548 -0.1221  0.1020
   34MOL   C16310789   7.506   3.887   0.010  0.2747  0.4121  0.6512
   34MOL   O16410790   7.439   3.777   7.765 -0.0571  0.1451 -0.1269
   34MOL   C16510791   7.428   3.782   7.621 -0.7095  0.3842  0.1322
   34MOL   C16610792   7.346   3.655   7.591  0.8669  0.4931  0.1398
   34MOL   C16710793   7.564   3.779   7.544  0.9551 -0.2463 -0.0363
   34MOL   H16810794   7.526   3.750   0.164  0.0905 -1.4602 -1.2623
   34MOL   H16910795   7.612   3.895   0.189 -1.4176 -0.9748  1.2860
   34MOL   H17010796   7.562   3.943   7.756 -1.8862  0.4340 -1.0195
   34MOL   H17110797   7.382   3.878   7.599  0.2181  0.4646 -1.4534
   34MOL   H17210798   7.326   3.634   7.486 -0.5236 -1.1440  0.7108
   34MOL   H17310799   7.250   3.677   7.637  0.9721  3.7852 -1.0708
   34MOL   H17410800   7.385   3.568   7.644 -0.0308  0.8206  1.3376
   34MOL   H17510801   7.628   3.693   7.565  2.4709  1.1659  1.2237
   34MOL   H17610802   7.627   3.868   7.549 -0.0780  0.4548  0.8232
   34MOL   H17710803   7.533   3.763   7.440 -2.7621 -0.7767  1.0957
   34MOL   C17810804   7.410   3.984   0.081  0.6565  0.3344  0.3059
   34MOL   C17910805   7.476   4.114   0.132  0.0123 -0.4608 -0.2297
   34MOL   O18010806   7.511   4.173   0.009 -0.0124  0.0300  0.6024
   34MOL   C18110807   7.603   4.281   7.816  0.7561 -0.4136 -0.6685
   34MOL   C18210808   7.598   4.308   7.662  0.9540 -0.3696  0.1818
   34MOL   C18310809   7.751   4.244   0.033  0.2519 -0.1940 -0.5094
   34MOL   H18410810   7.332   3.942   0.145  0.5255  1.2458  0.7533
   34MOL   H18510811   7.344   4.016   7.820  0.6784 -1.6938 -0.5433
   34MOL   H18610812   7.562   4.112   0.199 -0.4700  2.8738  0.5891
   34MOL   H18710813   7.564   4.360   0.060  0.0593 -0.7891 -0.6218
   34MOL   H18810814   7.610   4.220   7.599  0.3028  1.1661 -2.1496
   34MOL   H18910815   7.670   4.387   7.639 -0.6674  0.8695 -0.7115
   34MOL   H19010816   7.499   4.339   7.630  1.0983 -0.8066 -0.6948
   34MOL   H19110817   7.763   4.222   0.139  1.5995  2.4823 -0.0507
   34MOL   H19210818   0.008   4.312   7.817 -0.7770  1.8956  1.0410
   34MOL   H19310819   7.758   4.147   7.806  0.5246  0.0507 -0.9717
   34MOL   C19410820   7.368   4.198   0.206 -0.7536 -0.7541  0.0132
   34MOL   C19510821   7.336   4.141   0.349  0.3647 -0.9999 -0.7165
   34MOL   O19610822   7.205   4.172   0.391 -0.1288 -0.0892  0.3573
   34MOL   C19710823   7.108   4.073   0.361 -0.6189 -0.5687  0.8662
   34MOL   C19810824   7.030   4.059   0.493 -0.7887  0.0669 -0.3916
   34MOL   C19910825   7.015   4.115   0.246  0.3430 -0.2305  0.6240
   34MOL   H20010826   7.397   4.301   0.223  0.9862 -1.2238  0.0341
   34MOL   H20110827   7.279   4.218   0.148  0.8492  2.4539 -1.4274
   34MOL   H20210828   7.350   4.033   0.347  0.4782 -0.9704 -2.0445
   34MOL   H20310829   7.143   3.973   0.334  1.4313  0.3258  0.0712
   34MOL   H20410830   7.088   4.017   0.575 -1.4657 -0.1683 -0.0217
   34MOL   H20510831   6.985   4.153   0.524 -0.8191 -0.1463  0.2230
   34MOL   H20610832   6.946   3.990   0.477 -0.6473 -0.7737  2.1348
   34MOL   H20710833   7.067   4.137   0.153  1.8635 -0.2129  1.4567
   34MOL   H20810834   6.944   4.039   0.214 -0.1560  0.5955 -0.2634
   34MOL   H20910835   6.958   4.202   0.277 -0.8220 -1.8557  3.1855
   34MOL   C21010836   7.424   4.200   0.464  0.0740  0.1441  0.0381
   34MOL   C21110837   7.426   4.114   0.592 -0.0334  0.1554  0.5233
   34MOL   O21210838   7.509   4.002   0.570  0.4172  0.5685  0.1734
   34MOL   C21310839   7.464   3.872   0.620  0.2148  0.5426  0.4093
   34MOL   C21410840   7.369   3.806   0.526  0.2554  0.1354 -0.0154
   34MOL   C21510841   7.592   3.790   0.625  0.4031  0.2676 -0.2619
   34MOL   H21610842   7.403   4.304   0.486 -0.1473  0.2096 -0.4762
   34MOL   H21710843   7.523   4.222   0.423  1.3782 -0.5105  2.7074
   34MOL   H21810844   7.325   4.080   0.615  0.4370 -0.9630  0.9962
   34MOL   H21910845   7.427   3.880   0.723 -1.9527 -1.6930 -0.1479
   34MOL   H22010846   7.277   3.864   0.515  0.6517  0.6134 -0.8029
   34MOL   H22110847   7.328   3.714   0.569  0.1071 -0.7513 -2.0312
   34MOL   H22210848   7.414   3.778   0.431  2.6194 -0.4490  1.2268
   34MOL   H22310849   7.674   3.829   0.685 -0.2187  1.2430 -0.0190
   34MOL   H22410850   7.647   3.790   0.532 -1.2086  0.6389 -1.2392
   34MOL   H22510851   7.562   3.689   0.651 -0.5793  0.5575 -0.2436
   34MOL   C22610852   7.487   4.194   0.709 -0.3167 -0.2501 -0.1756
   34MOL   C22710853   7.465   4.130   0.853  0.3362 -0.9310 -0.4724
   34MOL   O22810854   7.326   4.160   0.888  0.5654  0.1762 -0.1334
   34MOL   C22910855   7.262   4.085   0.992  0.4878 -1.0460  0.3071
   34MOL   C23010856   7.144   4.001   0.946 -0.2931 -0.4280  0.3785
   34MOL   C23110857   7.227   4.184   1.099  0.4580  0.5622 -0.5509
   34MOL   H23210858   7.444   4.294   0.713 -2.0022 -0.9445 -0.4706
   34MOL   H23310859   7.593   4.213   0.692 -0.3615 -0.3540 -0.5791
   34MOL   H23410860   7.477   4.021   0.850 -2.0997 -1.3457  2.8131
   34MOL   H23510861   7.334   4.016   1.036  0.1821 -0.1083  2.3689
   34MOL   H23610862   7.061   4.062   0.911 -0.8854 -2.7141 -2.4621
   34MOL   H23710863   7.166   3.942   0.857 -1.4759 -0.9897  0.4422
   34MOL   H23810864   7.116   3.935   1.028  0.1385 -0.9848  0.0812
   34MOL   H23910865   7.175   4.136   1.182  0.5467  1.1114 -0.1692
   34MOL   H24010866   7.161   4.264   1.066  1.9415  1.7166 -0.8283
   34MOL   H24110867   7.315   4.238   1.136  0.2216 -0.3542  1.4432
   34MOL   C24210868   7.558   4.205   0.944  0.6939  0.5883 -0.1522
   34MOL   C24310869   7.644   4.113   1.036  0.2748 -0.1908  0.1687
   34MOL   O24410870   7.699   4.193   1.142 -0.0781  0.2014 -0.2952
   34MOL   C24510871   7.601   4.229   1.237 -0.5785  0.4475 -0.4741
   34MOL   C24610872   7.611   4.137   1.352 -0.0679  0.7316  0.2887
   34MOL   C24710873   7.623   4.372   1.284 -0.0949  0.0151 -0.1451
   34MOL   H24810874   7.634   4.262   0.892  1.3821 -1.3772 -1.3703
   34MOL   H24910875   7.501   4.277   1.003  3.3668  2.0598  0.7041
   34MOL   H25010876   7.577   4.036   1.075 -0.7922  0.0303 -1.1957
   34MOL   H25110877   7.499   4.220   1.197 -0.5167  1.8657 -0.9787
   34MOL   H25210878   7.638   4.044   1.302  3.3712  2.8603 -1.9977
   34MOL   H25310879   7.707   4.156   1.401  0.3827  0.9497 -0.6781
   34MOL   H25410880   7.530   4.128   1.425  2.4289 -2.8125  2.8190
   34MOL   H25510881   7.559   4.379   1.372  1.2714  1.1574  0.7759
   34MOL   H25610882   7.723   4.398   1.316  0.7788 -1.7397 -1.3507
   34MOL   H25710883   7.589   4.446   1.213  1.1752  0.2039 -0.5659
   34MOL   C25810884   7.767   4.035   0.975  0.7341 -0.0537  0.8105
   34MOL   C25910885   0.010   3.923   1.070  0.1268  0.2444  0.1299
   34MOL   O26010886   0.135   3.876   1.013 -0.0772 -0.1331 -0.1039
   34MOL   C26110887   0.258   3.909   1.082  0.5804  0.1674 -0.5994
   34MOL   C26210888   0.369   3.821   1.036  0.4331  0.1330 -0.2580
   34MOL   C26310889   0.291   4.054   1.045 -0.0167  0.5238 -0.3804
   34MOL   H26410890   7.738   3.982   0.884  2.4999 -0.4241  0.4276
   34MOL   H26510891   0.028   4.104   0.951 -1.2522  2.3392  0.7946
   34MOL   H26610892   0.048   3.986   1.151  0.6985  1.3086 -0.9597
   34MOL   H26710893   0.241   3.909   1.189  2.0246 -0.9972 -0.3532
   34MOL   H26810894   0.463   3.876   1.046  0.4789  0.1202 -0.6256
   34MOL   H26910895   0.371   3.817   0.927  0.4772 -1.5551 -0.2145
   34MOL   H27010896   0.383   3.721   1.078  0.8416  1.4457  2.9439
   34MOL   H27110897   0.298   4.083   0.940 -2.4718 -0.4634 -0.8458
   34MOL   H27210898   0.216   4.124   1.080 -0.2321  1.1797 -2.0978
   34MOL   H27310899   0.381   4.093   1.094 -0.5168 -0.3745  1.2877
   34MOL   C27410900   7.739   3.803   1.110 -0.0132 -0.3819 -0.3193
   34MOL   C27510901   7.790   3.735   1.238  0.5384  0.3816 -0.6105
   34MOL   O27610902   7.741   3.804   1.354  0.0240  0.5680  0.2345
   34MOL   C27710903   7.814   3.792   1.474 -0.3066  0.2156 -0.7427
   34MOL   C27810904   7.710   3.788   1.588  0.9755 -0.4885 -0.4610
   34MOL   C27910905   0.089   3.914   1.489  0.3975 -0.0578  0.0651
   34MOL   H28010906   7.636   3.839   1.117  0.8044  1.8747  0.4869
   34MOL   H28110907   7.736   3.732   1.027  1.6154  1.1088 -1.6615
   34MOL   H28210908   0.078   3.726   1.237  0.5824  0.7560  0.5111
   34MOL   H28310909   0.048   3.697   1.472 -0.6462 -0.0435  1.2475
   34MOL   H28410910   7.754   3.769   1.686  1.2982  0.2070 -0.4672
   34MOL   H28510911   7.657   3.883   1.579 -0.4666 -1.2509 -0.0843
   34MOL   H28610912   7.638   3.708   1.570  0.4995 -0.8067  2.5546
   34MOL   H28710913   0.143   3.940   1.398 -0.2110  0.7445 -0.0734
   34MOL   H28810914   0.164   3.887   1.563 -0.8770  0.4807  1.5855
   34MOL   H28910915   0.047   4.012   1.511 -1.3547 -0.5133 -1.1634
   34MOL   C29010916   7.732   3.589   1.243 -0.2916 -0.0189  0.1981
   34MOL   C29110917   7.585   3.542   1.224  0.6213  0.2830 -0.0789
   34MOL   O29210918   7.553   3.521   1.087  0.0947 -0.4164  0.1668
   34MOL   C29310919   7.419   3.552   1.037  0.4982  0.1171 -0.7497
   34MOL   C29410920   7.382   3.449   0.926 -0.0721 -0.0818 -0.1638
   34MOL   C29510921   7.411   3.701   1.001 -0.2928 -0.4886  0.4847
   34MOL   H29610922   7.764   3.536   1.332 -0.9938  1.6757  1.4923
   34MOL   H29710923   7.792   3.541   1.166  0.2923  1.2219 -0.1346
   34MOL   H29810924   7.516   3.619   1.260 -1.6810 -0.9503 -1.7208
   34MOL   H29910925   7.351   3.539   1.121  2.2642 -2.7888  0.3062
   34MOL   H30010926   7.431   3.352   0.938 -2.4046 -1.2329  0.2118
   34MOL   H30110927   7.276   3.431   0.913 -0.2435 -1.1577  2.5302
   34MOL   H30210928   7.413   3.499   0.834 -0.4070 -1.1783 -0.8834
   34MOL   H30310929   7.434   3.767   1.084 -1.0765 -2.2876  2.1810
   34MOL   H30410930   7.478   3.733   0.922  0.6738 -1.0934  1.0431
   34MOL   H30510931   7.313   3.724   0.959  0.4584 -3.5198 -3.2410
   34MOL   C30610932   7.552   3.415   1.303  0.2333  0.7253  0.0421
   34MOL   C30710933   7.545   3.432   1.462 -0.0946  0.4173 -0.0042
   34MOL   O30810934   7.451   3.335   1.510 -0.3605  0.4917  0.1120
   34MOL   C30910935   7.496   3.200   1.513  0.0780  0.1437  0.0758
   34MOL   C31010936   7.512   3.168   1.659 -0.5382 -0.2438 -0.1326
   34MOL   C31110937   7.391   3.103   1.453  0.2431  0.1342 -0.0289
   34MOL   H31210938   7.614   3.333   1.266  0.3367  0.1177  1.5439
   34MOL   H31310939   7.453   3.392   1.263 -0.1574  2.4040 -0.0219
   34MOL   H31410940   7.638   3.425   1.517  1.5645 -0.8513 -2.8503
   34MOL   H31510941   7.597   3.194   1.474  0.3445  1.4006  0.5605
   34MOL   H31610942   7.555   3.069   1.678  0.4828  0.4908  1.5137
   34MOL   H31710943   7.422   3.170   1.720 -0.5861  0.5889 -0.2362
   34MOL   H31810944   7.586   3.232   1.707  1.7169 -2.8326  0.0024
   34MOL   H31910945   7.296   3.103   1.506  0.3598 -3.0609  0.2596
   34MOL   H32010946   7.435   3.003   1.459 -0.3958 -0.3759 -2.8384
   34MOL   H32110947   7.375   3.129   1.348 -1.0235  0.7442  0.2998
   34MOL   H32210948   7.488   3.525   1.473 -0.0128  0.6765 -1.6123
   35MOL     C110949   6.459   5.584   4.628  0.5243 -0.3973 -0.4193
   35MOL     C210950   6.493   5.551   4.486  0.1599 -0.0359 -0.7493
   35MOL     O310951   6.389   5.477   4.422 -0.2696  0.0828  0.0990
   35MOL     C410952   6.440   5.378   4.332  0.1648 -0.6717  0.2450
   35MOL     C510953   6.341   5.376   4.212  0.1870  0.6026 -0.4243
   35MOL     C610954   6.447   5.243   4.402  0.5821 -0.3077 -0.9773
   35MOL     H710955   6.461   5.505   4.703  0.4678 -0.0026  0.0077
   35MOL     H810956   6.524   5.664   4.663 -1.3270  0.6598  0.6985
   35MOL     H910957   6.578   5.484   4.498  0.5771  0.7715  0.9569
   35MOL    H1010958   6.537   5.410   4.296 -0.6981 -0.3900 -1.9026
   35MOL    H1110959   6.381   5.316   4.130  1.9685 -0.9905  1.5599
   35MOL    H1210960   6.243   5.344   4.246  0.3395 -0.3697 -0.8850
   35MOL    H1310961   6.323   5.476   4.171 -3.3259  0.1624 -0.1306
   35MOL    H1410962   6.518   5.231   4.484  0.7302  0.9765 -0.8996
   35MOL    H1510963   6.349   5.208   4.431  1.6435 -2.1571  0.4695
   35MOL    H1610964   6.490   5.172   4.331 -0.2437 -0.8241 -0.9619
   35MOL    H1710965   6.359   5.628   4.627  0.1798 -1.1733 -0.3832
   35MOL    C1810966   6.519   5.668   4.397 -0.2873 -0.0879  0.4666
   35MOL    C1910967   6.646   5.761   4.420  0.2150 -0.5887  0.7423
   35MOL    O2010968   6.652   5.842   4.297  0.1997  0.5440 -0.2284
   35MOL    C2110969   6.657   5.979   4.308  0.5244  0.0561  0.4005
   35MOL    C2210970   6.613   6.041   4.179 -0.2944  0.1899 -0.1604
   35MOL    C2310971   6.802   6.017   4.346 -0.2223  0.1349  0.0183
   35MOL    H2410972   6.515   5.638   4.293 -1.5174 -1.5586  0.9148
   35MOL    H2510973   6.432   5.733   4.398 -0.5604 -0.4174 -0.7136
   35MOL    H2610974   6.635   5.827   4.505 -0.2288 -1.1423  1.1115
   35MOL    H2710975   6.584   6.003   4.385  1.3595  1.1315  0.8726
   35MOL    H2810976   6.618   6.149   4.190  1.5362  0.0241  0.7759
   35MOL    H2910977   6.679   6.009   4.099  1.6270  0.0044  1.4520
   35MOL    H3010978   6.513   6.014   4.145  0.5154 -0.3076 -2.2335
   35MOL    H3110979   6.825   6.120   4.316  1.2342 -0.1475  0.1319
   35MOL    H3210980   6.863   5.950   4.285  0.0716 -0.0241  0.4817
   35MOL    H3310981   6.831   5.996   4.448 -2.3043 -0.1257  0.5802
   35MOL    C3410982   6.772   5.683   4.418 -0.1494 -0.3708  0.4270
   35MOL    C3510983   6.823   5.648   4.555  0.7082  0.4079  0.4822
   35MOL    O3610984   6.938   5.564   4.541  0.2960  0.1758 -0.3058
   35MOL    C3710985   6.911   5.421   4.560 -0.6797 -0.2550  0.2757
   35MOL    C3810986   6.885   5.347   4.423 -0.1992  0.6783  0.3987
   35MOL    C3910987   7.032   5.354   4.626  0.0483 -0.4874 -0.2306
   35MOL    H4010988   6.844   5.741   4.360  0.0090  0.0884  1.0776
   35MOL    H4110989   6.765   5.596   4.353  1.0340 -0.2339  0.1073
   35MOL    H4210990   6.740   5.592   4.598  0.2535  0.7018 -0.0032
   35MOL    H4310991   6.828   5.404   4.628 -0.0171  0.3771  1.2425
   35MOL    H4410992   6.802   5.382   4.361  0.1274 -0.6745 -0.8117
   35MOL    H4510993   6.872   5.240   4.434  2.1375  0.1961 -1.1853
   35MOL    H4610994   6.977   5.353   4.366 -0.5834  3.7068 -0.0081
   35MOL    H4710995   7.123   5.352   4.566  0.7436 -2.2989  0.8218
   35MOL    H4810996   7.053   5.401   4.722 -0.4836  1.3920 -1.0172
   35MOL    H4910997   7.004   5.249   4.639  1.7525 -0.8256  1.0051
   35MOL    C5010998   6.874   5.770   4.635  0.5880  0.4724  0.3089
   35MOL    C5110999   6.900   5.734   4.782  0.0566  0.4143 -0.0758
   35MOL    O5211000   6.774   5.710   4.853 -0.1560  0.5054  0.1111
   35MOL    C5311001   6.774   5.633   4.970  0.0897  0.4600  0.0045
   35MOL    C5411002   6.736   5.489   4.936 -0.1962 -0.5239  0.7506
   35MOL    C5511003   6.669   5.697   5.055 -0.3164  0.1313  0.5037
   35MOL    H5611004   6.952   5.821   4.579  0.3555  1.9592  1.3138
   35MOL    H5711005   6.808   5.857   4.637 -1.4028 -0.9848  0.3111
   35MOL    H5811006   6.940   5.632   4.789 -0.1184  0.3608  0.1453
   35MOL    H5911007   6.864   5.620   5.032  1.3546 -1.9341 -2.2394
   35MOL    H6011008   6.715   5.429   5.025 -0.2077 -1.4415  0.1385
   35MOL    H6111009   6.812   5.432   4.882  0.2513  0.0884  0.7328
   35MOL    H6211010   6.645   5.489   4.875  0.8888  1.2808 -0.9189
   35MOL    H6311011   6.575   5.709   5.003  0.3436 -1.1975 -1.0300
   35MOL    H6411012   6.696   5.801   5.072  0.4889 -0.3861  2.5645
   35MOL    H6511013   6.651   5.653   5.154 -0.1905  2.4741  1.5944
   35MOL    C6611014   6.965   5.854   4.854 -0.5712 -0.0018  0.2718
   35MOL    C6711015   7.107   5.912   4.798  0.0565 -0.2742  0.2534
   35MOL    O6811016   7.196   5.796   4.791 -0.6219 -0.7276  0.0053
   35MOL    C6911017   7.230   5.754   4.664 -1.1060 -0.7578  0.1973
   35MOL    C7011018   7.312   5.849   4.581  0.4880  0.0441 -0.6159
   35MOL    C7111019   7.304   5.625   4.668 -0.3510  0.3384 -0.2341
   35MOL    H7211020   6.889   5.932   4.862 -1.2634 -0.5823 -0.5930
   35MOL    H7311021   6.994   5.818   4.953  0.8385 -1.5094 -0.6672
   35MOL    H7411022   7.100   5.955   4.698  0.7104 -0.3933  0.1505
   35MOL    H7511023   7.133   5.738   4.618 -0.8890  0.0026 -0.5255
   35MOL    H7611024   7.353   5.806   4.490  1.4729  0.6285 -0.4544
   35MOL    H7711025   7.245   5.921   4.534  1.5444  1.0558 -0.5816
   35MOL    H7811026   7.386   5.907   4.637 -0.4414 -0.4854  1.2152
   35MOL    H7911027   7.322   5.577   4.571  2.0145 -0.9756  0.8058
   35MOL    H8011028   7.264   5.551   4.736 -0.2127  1.9870  1.6673
   35MOL    H8111029   7.403   5.651   4.706 -0.1812  0.4753 -0.7532
   35MOL    C8211030   7.158   6.023   4.889 -0.5530 -0.9736 -0.8014
   35MOL    C8311031   7.113   6.168   4.845 -0.0594  0.3834  0.4026
   35MOL    O8411032   7.140   6.270   4.946  0.1537 -0.1334  0.4024
   35MOL    C8511033   7.048   6.278   5.054 -0.1085  0.5697 -0.1685
   35MOL    C8611034   6.937   6.384   5.027  0.3695 -0.6066 -0.2998
   35MOL    C8711035   7.137   6.315   5.171  0.2024  0.2918 -0.4589
   35MOL    H8811036   7.132   5.995   4.991  1.4367  1.0949  0.3395
   35MOL    H8911037   7.267   6.020   4.881 -0.6505 -2.1191 -1.9645
   35MOL    H9011038   7.007   6.169   4.821  0.4989 -0.4673 -2.3782
   35MOL    H9111039   7.007   6.182   5.085 -1.4540  0.5466 -1.9681
   35MOL    H9211040   6.874   6.345   4.947  1.7742  1.2378 -2.3928
   35MOL    H9311041   6.888   6.382   5.124  0.9678 -0.2543  0.0104
   35MOL    H9411042   6.965   6.487   5.007 -0.6539 -0.3281 -0.2821
   35MOL    H9511043   7.200   6.229   5.190 -0.0290  0.7551  2.6056
   35MOL    H9611044   7.200   6.402   5.154  0.9130  0.3282  2.2182
   35MOL    H9711045   7.080   6.331   5.263 -0.9719 -2.0782 -0.7466
   35MOL    C9811046   7.175   6.229   4.719  0.6643 -0.5737 -0.2127
   35MOL    C9911047   7.131   6.377   4.674  0.2090  0.0197  0.7174
   35MOL   O10011048   7.001   6.358   4.600 -0.3798 -0.1771 -0.3265
   35MOL   C10111049   6.880   6.419   4.635 -0.5707 -0.8173 -0.6872
   35MOL   C10211050   6.770   6.350   4.559 -0.1312 -0.1771 -0.7032
   35MOL   C10311051   6.881   6.571   4.618  0.1167 -0.0086 -0.6929
   35MOL   H10411052   7.281   6.235   4.745  0.4158  0.8461  0.5123
   35MOL   H10511053   7.175   6.159   4.635  0.1126  0.6131 -1.2194
   35MOL   H10611054   7.116   6.444   4.758 -0.5880  1.2050 -0.3459
   35MOL   H10711055   6.871   6.391   4.740  2.1439 -0.0967 -0.2235
   35MOL   H10811056   6.675   6.400   4.580 -1.1377 -2.9139  1.5752
   35MOL   H10911057   6.761   6.248   4.596  1.0015 -0.8000 -2.1070
   35MOL   H11011058   6.796   6.351   4.453  1.8371 -2.0408 -0.2549
   35MOL   H11111059   6.969   6.608   4.670 -0.0217  0.7742 -1.0189
   35MOL   H11211060   6.792   6.614   4.664  1.9417  0.4881  2.4947
   35MOL   H11311061   6.885   6.595   4.511 -1.2023 -2.3017 -1.2900
   35MOL   C11411062   7.230   6.437   4.579  0.2934  0.3127  0.3005
   35MOL   C11511063   7.290   6.571   4.625  0.0343  0.2290  0.0815
   35MOL   O11611064   7.379   6.540   4.735 -0.1477  0.6297  0.1867
   35MOL   C11711065   7.375   6.634   4.844 -0.0479  0.1900 -0.7348
   35MOL   C11811066   7.502   6.622   4.936  0.4317 -0.6171  0.1793
   35MOL   C11911067   7.254   6.619   4.935 -0.9912 -0.5943 -0.2862
   35MOL   H12011068   7.176   6.445   4.485  0.6252  0.6946  0.1426
   35MOL   H12111069   7.312   6.367   4.566  1.2776  1.2900  1.1930
   35MOL   H12211070   7.211   6.640   4.658  2.1999  2.4809  0.7251
   35MOL   H12311071   7.375   6.739   4.814 -1.6919  0.3144 -0.3303
   35MOL   H12411072   7.591   6.639   4.874 -0.7391 -0.7796 -1.5730
   35MOL   H12511073   7.508   6.528   4.990  1.2175 -0.8131 -0.2446
   35MOL   H12611074   7.498   6.698   5.015 -2.1739 -0.2142 -0.2987
   35MOL   H12711075   7.266   6.696   5.011 -2.2942 -1.1331  0.4848
   35MOL   H12811076   7.261   6.526   4.991  1.3514  0.7269  1.7209
   35MOL   H12911077   7.157   6.624   4.885 -1.6149 -1.0935  0.8606
   35MOL   C13011078   7.372   6.640   4.505 -0.0645 -0.0197 -1.4063
   35MOL   C13111079   7.291   6.669   4.375 -0.5063 -0.8981 -0.8452
   35MOL   O13211080   7.384   6.728   4.288 -0.4613 -0.3975 -0.1801
   35MOL   C13311081   7.393   6.675   4.155  0.2840  0.1050  0.5643
   35MOL   C13411082   7.489   6.765   4.067 -0.1821 -0.4939  0.3787
   35MOL   C13511083   7.450   6.529   4.162 -0.1536 -0.5882 -1.1496
   35MOL   H13611084   7.460   6.576   4.494 -0.6149 -0.6566 -2.0745
   35MOL   H13711085   7.418   6.734   4.538 -0.7151 -0.0792 -0.3250
   35MOL   H13811086   7.257   6.575   4.331 -0.9152 -1.0158 -0.2853
   35MOL   H13911087   7.295   6.664   4.109  2.0490 -2.0536 -2.9389
   35MOL   H14011088   7.592   6.767   4.104 -0.5927 -1.0600  1.5616
   35MOL   H14111089   7.452   6.866   4.055  0.1075 -0.6246 -1.8013
   35MOL   H14211090   7.487   6.716   3.969 -0.6251  0.6553 -0.2007
   35MOL   H14311091   7.373   6.457   4.191  0.5853 -1.1000 -0.4261
   35MOL   H14411092   7.490   6.488   4.070  0.3498 -0.1419 -1.1282
   35MOL   H14511093   7.522   6.514   4.243  0.4606 -0.6036 -1.7020
   35MOL   C14611094   7.166   6.766   4.381 -0.0515 -0.8249  0.4215
   35MOL   C14711095   7.195   6.916   4.386 -0.1544 -0.6008  0.1652
   35MOL   O14811096   7.078   6.991   4.349 -0.0312 -0.2897 -0.4256
   35MOL   C14911097   7.050   7.006   4.211 -0.1543  0.2796 -0.4322
   35MOL   C15011098   7.098   7.144   4.167 -0.2760  0.4456  0.1089
   35MOL   C15111099   6.899   6.992   4.197  0.0305  0.4069  0.6386
   35MOL   H15211100   7.111   6.747   4.473 -0.0268  1.6289  0.9832
   35MOL   H15311101   7.085   6.752   4.309 -1.0112 -1.6437  1.6519
   35MOL   H15411102   7.273   6.948   4.317 -1.8775  1.4433 -0.9018
   35MOL   H15511103   7.115   6.929   4.170 -0.6161  0.0096 -0.6611
   35MOL   H15611104   7.069   7.146   4.062  1.5325 -1.7578 -0.4617
   35MOL   H15711105   7.206   7.143   4.177 -0.3206 -0.6256  0.5753
   35MOL   H15811106   7.056   7.227   4.225  1.0801 -0.9708  3.2482
   35MOL   H15911107   6.872   7.021   4.096 -0.8700 -1.5798  0.2777
   35MOL   H16011108   6.845   7.065   4.258 -1.1094  1.0210 -1.0660
   35MOL   H16111109   6.853   6.893   4.207  0.6652 -0.0590 -0.9872
   35MOL   C16211110   7.225   6.966   4.531  0.9649  0.6847  0.2537
   35MOL   C16311111   7.247   7.117   4.541  0.3683  0.1661  0.5156
   35MOL   O16411112   7.257   7.145   4.680  0.5578  0.5170  0.0685
   35MOL   C16511113   7.177   7.252   4.722 -1.1343 -0.5283  0.0528
   35MOL   C16611114   7.245   7.312   4.841 -0.6650 -0.1135 -0.0863
   35MOL   C16711115   7.041   7.210   4.745 -0.6902  0.3233 -0.7909
   35MOL   H16811116   7.154   6.928   4.605 -1.1912 -1.7971 -2.9661
   35MOL   H16911117   7.322   6.926   4.562  0.2241 -0.2644  1.3806
   35MOL   H17011118   7.167   7.175   4.495  1.0994 -0.3700 -1.5034
   35MOL   H17111119   7.176   7.329   4.645 -0.9847 -1.6228 -1.0547
   35MOL   H17211120   7.350   7.337   4.825 -0.9285  0.3280 -1.1788
   35MOL   H17311121   7.237   7.239   4.921  1.1561  0.2092  0.4224
   35MOL   H17411122   7.198   7.401   4.884  0.2186  0.4625 -0.2901
   35MOL   H17511123   6.986   7.288   4.796 -0.1878 -1.7121  2.9922
   35MOL   H17611124   7.045   7.123   4.810  0.2449 -0.2131 -1.5394
   35MOL   H17711125   6.993   7.187   4.650 -1.9646  2.8609 -0.7823
   35MOL   C17811126   7.382   7.172   4.481  0.2109 -0.1888  0.0161
   35MOL   C17911127   7.397   7.327   4.458  0.0236  0.2694  0.1835
   35MOL   O18011128   7.542   7.357   4.429  0.0734  0.6017  0.6019
   35MOL   C18111129   7.613   7.437   4.515 -0.0458  0.0877 -1.1480
   35MOL   C18211130   7.717   7.507   4.429 -0.8178 -0.6063  0.0710
   35MOL   C18311131   7.671   7.350   4.632  0.0195  0.0432  0.1978
   35MOL   H18411132   7.391   7.125   4.383 -1.7112  0.1470 -0.3428
   35MOL   H18511133   7.463   7.143   4.548  0.7472  0.1328 -0.4932
   35MOL   H18611134   7.367   7.368   4.554  0.7834  0.6717  0.2493
   35MOL   H18711135   7.545   7.515   4.547 -0.8022 -1.0536  0.0539
   35MOL   H18811136   7.784   7.575   4.483 -2.6908  1.3961 -0.0391
   35MOL   H18911137   7.682   7.569   4.346 -1.0245 -0.6022  0.1607
   35MOL   H19011138   7.773   7.431   4.376  2.7316  0.0782  2.6411
   35MOL   H19111139   7.751   7.282   4.604 -0.8490 -2.0041  2.5011
   35MOL   H19211140   7.589   7.291   4.673  1.1724 -1.7723 -0.1158
   35MOL   H19311141   7.711   7.398   4.721  1.5387 -1.5295  0.3692
   35MOL   C19411142   7.303   7.374   4.349  0.3182  0.5731  0.6755
   35MOL   C19511143   7.316   7.526   4.317 -0.2717 -0.5936 -0.2866
   35MOL   O19611144   7.215   7.609   4.379  0.1906  0.3848  0.2756
   35MOL   C19711145   7.250   7.667   4.505  1.1600  0.4149  0.4350
   35MOL   C19811146   7.317   7.800   4.511 -0.0588 -0.2699  0.2681
   35MOL   C19911147   7.127   7.671   4.598 -0.8475  0.1560 -0.1691
   35MOL   H20011148   7.335   7.315   4.262  0.8334  2.6315 -0.5605
   35MOL   H20111149   7.203   7.345   4.380  0.1368  1.9391  1.3831
   35MOL   H20211150   7.417   7.562   4.338  0.0784 -1.1114 -1.0684
   35MOL   H20311151   7.296   7.580   4.554  0.6682  0.6943  1.4008
   35MOL   H20411152   7.387   7.800   4.427  3.0399 -4.2636  2.6846
   35MOL   H20511153   7.239   0.055   4.504  1.4258  1.5286  2.4940
   35MOL   H20611154   7.364   7.819   4.607 -1.8393  1.0872  0.8901
   35MOL   H20711155   7.169   7.681   4.698 -2.5366  2.1620  0.3847
   35MOL   H20811156   7.057   7.752   4.579 -0.7891 -0.1149 -1.6096
   35MOL   H20911157   7.066   7.584   4.576  0.0453 -0.4934 -0.0884
   35MOL   C21011158   7.290   7.544   4.167  0.3847 -0.0868  0.2751
   35MOL   C21111159   7.414   7.504   4.078 -0.4542  0.8712 -0.0269
   35MOL   O21211160   7.441   7.363   4.057 -0.5323  0.7216 -0.2452
   35MOL   C21311161   7.570   7.321   4.009 -0.5554  0.2901  0.0090
   35MOL   C21411162   7.646   7.248   4.119 -0.3367 -0.9723  0.2018
   35MOL   C21511163   7.549   7.231   3.890 -0.0173 -0.4008  0.4656
   35MOL   H21611164   7.267   7.649   4.152 -1.6926 -0.5257  0.2341
   35MOL   H21711165   7.198   7.493   4.136 -0.9375  0.9948  2.2938
   35MOL   H21811166   7.499   7.541   4.136 -0.5444 -0.4816  0.9767
   35MOL   H21911167   7.621   7.411   3.975  1.1640 -0.2268  1.1605
   35MOL   H22011168   7.592   7.156   4.140  0.2430 -1.1900  0.7859
   35MOL   H22111169   7.648   7.306   4.212  0.0101 -1.8150  0.7354
   35MOL   H22211170   7.747   7.222   4.087 -1.1255 -1.8834 -1.5821
   35MOL   H22311171   7.512   7.289   3.806  0.8775 -0.7942 -0.1991
   35MOL   H22411172   7.483   7.151   3.925 -1.1404 -0.7708 -2.4244
   35MOL   H22511173   7.640   7.185   3.852  0.4130  1.5761 -0.9322
   35MOL   C22611174   7.403   7.572   3.936 -0.3032  0.9597 -0.3118
   35MOL   C22711175   7.456   7.721   3.945 -0.0050  0.3225  0.6114
   35MOL   O22811176   7.415   7.806   3.830  0.0959 -0.4348 -0.2635
   35MOL   C22911177   7.289   0.040   3.851  0.2826 -0.4708  0.5640
   35MOL   C23011178   7.210   0.034   3.718  0.1831  0.9595  0.2887
   35MOL   C23111179   7.302   0.184   3.911 -0.1421 -0.0534  0.5812
   35MOL   H23211180   7.299   7.580   3.906 -0.7611  1.9122  1.4775
   35MOL   H23311181   7.447   7.516   3.853  0.9786 -0.5241  1.3145
   35MOL   H23411182   7.421   7.768   4.037 -1.8667  1.5315 -0.6881
   35MOL   H23511183   7.225   7.806   3.921  0.7552 -3.3803 -1.2120
   35MOL   H23611184   7.265   0.108   3.660  0.3758 -0.7417 -1.7609
   35MOL   H23711185   7.214   7.755   3.674 -2.1738  0.7471  0.5175
   35MOL   H23811186   7.103   0.054   3.720 -0.1093 -0.5890  0.6974
   35MOL   H23911187   7.200   0.214   3.933  0.2362  1.0681  0.8249
   35MOL   H24011188   7.369   0.234   3.841 -0.6795 -2.1263 -1.4811
   35MOL   H24111189   7.352   0.178   4.008  2.4246 -0.1353 -0.7062
   35MOL   C24211190   7.611   7.717   3.947  0.7586  0.8279 -0.3324
   35MOL   C24311191   7.678   0.030   3.980  0.1150 -0.0432 -0.6573
   35MOL   O24411192   0.001   0.019   3.969 -0.5748  0.1493 -0.1484
   35MOL   C24511193   0.059   0.115   3.881  0.1865 -0.5238 -0.1807
   35MOL   C24611194   0.202   0.138   3.919 -0.3473  0.6687 -0.3111
   35MOL   C24711195   0.032   0.060   3.744  0.0323 -0.5762 -0.0569
   35MOL   H24811196   7.650   7.646   4.020  0.1897 -0.5556 -1.3607
   35MOL   H24911197   7.649   7.685   3.850  1.1167 -0.6187  0.2801
   35MOL   H25011198   7.632   0.109   3.920  0.6497  1.1198  0.4458
   35MOL   H25111199   0.007   0.209   3.900 -1.8790 -1.6939  0.0783
   35MOL   H25211200   0.256   0.169   3.830  0.5315 -0.9932 -0.3774
   35MOL   H25311201   0.216   0.204   4.004 -0.7886  1.0610 -0.5371
   35MOL   H25411202   0.236   0.038   3.948 -0.6990  1.0252  1.3726
   35MOL   H25511203   0.075   0.132   3.674  0.9956 -2.9258 -1.9834
   35MOL   H25611204   0.092   7.791   3.723  0.4460  0.0050 -1.3699
   35MOL   H25711205   7.751   0.039   3.710  0.4311 -0.0880 -1.5990
   35MOL   C25811206   7.658   0.060   4.129  0.6704 -0.5232 -0.1244
   35MOL   C25911207   7.702   0.204   4.180  0.3773 -0.1389  0.9733
   35MOL   O26011208   7.661   0.221   4.313 -0.2335 -0.2805 -0.0535
   35MOL   C26111209   7.765   0.198   4.407 -0.1149 -0.4607  0.0510
   35MOL   C26211210   7.787   0.326   4.486 -0.0539 -0.7186  0.3378
   35MOL   C26311211   7.702   0.087   4.505 -0.5085 -0.0546  0.1093
   35MOL   H26411212   7.554   0.058   4.163  1.3458 -0.7969  2.0084
   35MOL   H26511213   7.709   7.806   4.191 -0.6931 -0.4665  1.1157
   35MOL   H26611214   7.807   0.229   4.165  0.8191 -1.1841  2.2789
   35MOL   H26711215   0.037   0.159   4.364  1.4382  0.5521  2.3937
   35MOL   H26811216   0.042   0.314   4.564 -0.4227 -0.8842  0.6710
   35MOL   H26911217   7.697   0.364   4.534 -1.6796 -3.0522 -0.7734
   35MOL   H27011218   7.820   0.414   4.431  0.5726 -1.0500  0.1847
   35MOL   H27111219   7.609   0.128   4.544 -0.8915  0.1652 -1.0266
   35MOL   H27211220   7.687   7.810   4.457 -0.7381  0.1343 -0.2000
   35MOL   H27311221   7.765   0.062   4.591  0.1586 -1.1317 -0.6709
   35MOL   C27411222   7.619   0.318   4.121  0.3005 -0.1571  0.1915
   35MOL   C27511223   7.674   0.457   4.143 -0.3460 -0.1448 -0.6900
   35MOL   O27611224   7.794   0.449   4.068  0.1305  0.8020  0.3710
   35MOL   C27711225   0.077   0.543   4.101  1.0418  0.4065 -0.2160
   35MOL   C27811226   0.091   0.630   3.976 -0.0746  0.2899  0.2515
   35MOL   C27911227   0.204   0.470   4.136  0.2500 -0.2078 -0.0584
   35MOL   H28011228   7.607   0.303   4.014  0.0206 -2.0688  0.4649
   35MOL   H28111229   7.518   0.315   4.163  0.2758  2.3830  0.4096
   35MOL   H28211230   7.687   0.474   4.250 -0.5392  2.0157 -0.9967
   35MOL   H28311231   0.048   0.597   4.191 -1.8461 -0.7825 -0.3834
   35MOL   H28411232   0.000   0.677   3.937 -0.8288  0.9113  2.6277
   35MOL   H28511233   0.171   0.702   3.994  0.3071 -0.0143 -0.2153
   35MOL   H28611234   0.114   0.559   3.897 -2.2870 -0.8453  0.5994
   35MOL   H28711235   0.279   0.543   4.168  0.2753 -0.0583 -0.4515
   35MOL   H28811236   0.249   0.425   4.048 -0.4286 -0.9525 -0.0317
   35MOL   H28911237   0.188   0.392   4.210 -0.3342  0.2296  0.2801
   35MOL   C29011238   7.585   0.569   4.100 -0.5028 -0.1565 -0.2908
   35MOL   C29111239   7.439   0.570   4.153  0.1772 -0.0036  0.3089
   35MOL   O29211240   7.470   0.567   4.288  0.1957  0.1571  0.2600
   35MOL   C29311241   7.360   0.559   4.375  0.3415 -0.1021 -1.0951
   35MOL   C29411242   7.386   0.648   4.495 -0.9118 -0.0883  0.0739
   35MOL   C29511243   7.320   0.411   4.412 -0.7162  0.1594  0.0163
   35MOL   H29611244   7.585   0.568   3.991 -0.2700 -0.5350 -0.2886
   35MOL   H29711245   7.634   0.665   4.119 -0.6151 -0.3336  0.9818
   35MOL   H29811246   7.404   0.469   4.135 -1.7895  0.7858 -0.4192
   35MOL   H29911247   7.263   0.592   4.337 -0.2067 -1.4001 -0.8360
   35MOL   H30011248   7.400   0.753   4.470  0.5743  0.2870  2.3354
   35MOL   H30111249   7.305   0.640   4.568 -2.2770  1.6950 -1.1875
   35MOL   H30211250   7.483   0.623   4.537 -0.5043  1.5491  0.1304
   35MOL   H30311251   7.230   0.406   4.473 -0.7645  0.2676 -0.0461
   35MOL   H30411252   7.314   0.348   4.324 -0.0351  1.1270 -0.7305
   35MOL   H30511253   7.400   0.357   4.463  0.2000  0.7973 -0.7341
   35MOL   C30611254   7.353   0.685   4.097  0.3072  0.0748 -0.2509
   35MOL   C30711255   7.286   0.664   3.960  0.3088 -0.6905  0.5290
   35MOL   O30811256   7.197   0.771   3.938 -0.3144 -0.5693  0.4170
   35MOL   C30911257   7.140   0.774   3.816  0.8734 -1.0842 -0.4534
   35MOL   C31011258   7.016   0.865   3.817  0.1583 -0.2919 -0.8827
   35MOL   C31111259   7.244   0.824   3.715  0.2367  0.1463  0.0475
   35MOL   H31211260   7.412   0.776   4.088 -0.5211  0.5267 -1.1946
   35MOL   H31311261   7.267   0.704   4.161 -0.7277 -1.9578 -1.0130
   35MOL   H31411262   7.364   0.670   3.884 -0.0875 -1.5438  0.0461
   35MOL   H31511263   7.120   0.674   3.778 -0.9802 -0.5140 -1.0293
   35MOL   H31611264   6.944   0.806   3.873 -0.9440 -0.0246 -1.9979
   35MOL   H31711265   6.986   0.872   3.712  1.3356  1.3325 -1.1419
   35MOL   H31811266   7.033   0.961   3.864 -0.8977 -0.0025 -1.0860
   35MOL   H31911267   7.272   0.929   3.721 -0.4975  0.3437  0.1006
   35MOL   H32011268   7.208   0.815   3.613  1.4550 -0.1782 -0.3639
   35MOL   H32111269   7.338   0.771   3.708  0.5884  0.4616  2.0693
   35MOL   H32211270   7.226   0.574   3.947 -0.2821 -0.7233  3.2988
   36MOL     C111271   3.882   7.330   0.851  0.1818  0.0654  0.3835
   36MOL     C211272   3.806   7.464   0.821 -0.1488  0.0755 -0.1949
   36MOL     O311273   3.809   7.483   0.679 -0.1648 -0.2421  0.6452
   36MOL     C411274   3.933   7.508   0.618 -0.0983 -0.4268 -0.2623
   36MOL     C511275   3.917   7.662   0.582 -0.1655  0.8572 -0.2644
   36MOL     C611276   3.932   7.415   0.497 -0.2739 -0.0596 -0.1447
   36MOL     H711277   3.855   7.280   0.944  1.0083 -1.1476 -0.0164
   36MOL     H811278   3.874   7.253   0.774 -1.3193 -0.3784  0.9545
   36MOL     H911279   3.859   7.539   0.880  0.4785 -0.8486  0.4337
   36MOL    H1011280   4.015   7.489   0.687 -0.9411  1.8695  1.4603
   36MOL    H1111281   4.010   7.682   0.529  2.1295  0.6854  3.4916
   36MOL    H1211282   3.837   7.674   0.510  0.8437  1.3847 -1.3200
   36MOL    H1311283   3.906   7.720   0.673  3.5960  1.0862  0.1374
   36MOL    H1411284   3.912   7.311   0.524 -2.3503 -0.4502 -2.9771
   36MOL    H1511285   3.836   7.436   0.452 -0.6958  0.2945  0.8903
   36MOL    H1611286   4.017   7.430   0.430  1.2146 -0.0269  1.6810
   36MOL    H1711287   3.990   7.343   0.850  0.2764 -0.5404 -3.1596
   36MOL    C1811288   3.656   7.450   0.852 -0.3306  0.0675  0.2958
   36MOL    C1911289   3.618   7.417   0.994 -0.1562  0.0519  0.2842
   36MOL    O2011290   3.473   7.387   1.007  0.4078 -0.3208 -0.1159
   36MOL    C2111291   3.441   7.253   1.039 -0.2874 -0.0414 -0.4550
   36MOL    C2211292   3.462   7.152   0.927  0.6334 -0.6433  0.2300
   36MOL    C2311293   3.294   7.247   1.083  0.2328  0.0057 -0.3174
   36MOL    H2411294   3.615   7.547   0.824  0.8156  0.5656  0.2901
   36MOL    H2511295   3.616   7.368   0.792 -2.5829  0.9895  0.4897
   36MOL    H2611296   3.675   7.333   1.036  1.5507  1.2412  0.3880
   36MOL    H2711297   3.494   7.243   1.134 -1.9344  0.2227  0.4943
   36MOL    H2811298   3.566   7.146   0.893  0.1789 -2.9133 -0.8499
   36MOL    H2911299   3.437   7.052   0.964 -2.4661 -0.1137 -0.3269
   36MOL    H3011300   3.395   7.170   0.844  0.9412 -1.5525 -0.2260
   36MOL    H3111301   3.284   7.154   1.138 -0.5739 -0.8011 -1.7893
   36MOL    H3211302   3.227   7.241   0.997 -1.9223  0.7687  1.2462
   36MOL    H3311303   3.259   7.333   1.140 -1.5008 -0.9661  0.1241
   36MOL    C3411304   3.639   7.535   1.089  0.4272  0.4413  0.0066
   36MOL    C3511305   3.664   7.483   1.234  0.7875 -0.2553 -0.2706
   36MOL    O3611306   3.794   7.418   1.234  0.4755  0.5301  0.1295
   36MOL    C3711307   3.819   7.327   1.343  0.8844  0.1856  0.1317
   36MOL    C3811308   3.809   7.190   1.272 -0.1901  0.2084 -0.1730
   36MOL    C3911309   3.964   7.343   1.386 -0.0628 -0.8334 -0.1277
   36MOL    H4011310   3.551   7.598   1.090  0.3316  0.3794 -2.2243
   36MOL    H4111311   3.714   7.600   1.043 -1.9155  1.5274 -2.3930
   36MOL    H4211312   3.589   7.410   1.262  0.4452 -1.2966 -3.7336
   36MOL    H4311313   3.764   7.353   1.434  0.4911 -0.0488 -0.0390
   36MOL    H4411314   3.711   7.178   1.225 -0.1290  0.3252 -0.3322
   36MOL    H4511315   3.824   7.108   1.341 -0.4221  2.6030  2.8325
   36MOL    H4611316   3.887   7.170   1.198 -1.0278  0.0423 -1.0231
   36MOL    H4711317   3.989   7.446   1.412 -0.7549 -0.7236  0.1020
   36MOL    H4811318   3.988   7.284   1.475  0.5134 -2.3575 -1.2775
   36MOL    H4911319   4.031   7.311   1.307 -0.2560  0.3425 -0.7728
   36MOL    C5011320   3.652   7.608   1.325 -0.0627  0.0608  0.8868
   36MOL    C5111321   3.516   7.609   1.389  0.1161 -0.3179 -0.4378
   36MOL    O5211322   3.510   7.745   1.441 -0.0301  0.7389 -0.5748
   36MOL    C5311323   3.400   0.003   1.400  0.0300 -0.5585  0.4295
   36MOL    C5411324   3.385   0.020   1.243  0.6681  0.2193 -0.2695
   36MOL    C5511325   3.414   0.134   1.473  0.3639  0.5971  0.7305
   36MOL    H5611326   3.737   7.609   1.392 -1.0600 -0.4755  2.1816
   36MOL    H5711327   3.670   7.697   1.264  2.7055 -0.2420  1.2254
   36MOL    H5811328   3.441   7.594   1.310  0.6042 -0.3578 -0.8942
   36MOL    H5911329   3.308   7.780   1.437 -1.6183  0.1469 -2.7120
   36MOL    H6011330   3.486   0.038   1.205  0.7685 -0.3309 -0.2680
   36MOL    H6111331   3.315   0.100   1.218  0.8372  0.8835  1.3051
   36MOL    H6211332   3.343   7.751   1.197 -0.5819  0.0310  1.2133
   36MOL    H6311333   3.433   0.117   1.579  0.1716 -1.9481  0.3914
   36MOL    H6411334   3.321   0.191   1.467  1.0604  1.5706 -1.1457
   36MOL    H6511335   3.496   0.181   1.420  0.5391 -0.3990  0.1086
   36MOL    C6611336   3.493   7.504   1.509 -0.0829  0.0893 -0.0853
   36MOL    C6711337   3.343   7.493   1.545  0.1082  0.1816 -0.5645
   36MOL    O6811338   3.330   7.439   1.678  0.3893  0.0770 -0.3280
   36MOL    C6911339   3.346   7.530   1.789 -0.5135 -0.1120 -0.2531
   36MOL    C7011340   3.211   7.555   1.853  0.7327  0.5926 -0.0177
   36MOL    C7111341   3.438   7.452   1.879 -0.3929 -0.2712  0.1597
   36MOL    H7211342   3.539   7.410   1.481  2.3078  1.3500 -0.5386
   36MOL    H7311343   3.542   7.542   1.599 -1.6485  0.2434  0.7204
   36MOL    H7411344   3.304   7.594   1.550 -0.2331  0.0841 -1.2170
   36MOL    H7511345   3.397   7.622   1.761 -3.0086  1.1826 -0.7069
   36MOL    H7611346   3.146   7.613   1.787  0.5822  0.9931  0.4699
   36MOL    H7711347   3.144   7.471   1.872  2.6851 -0.7843  0.9510
   36MOL    H7811348   3.198   7.610   1.947  0.4460  1.7083 -0.6986
   36MOL    H7911349   3.402   7.355   1.914 -1.1743 -0.2240 -0.4776
   36MOL    H8011350   3.475   7.513   1.961 -2.2255  0.7439  0.2672
   36MOL    H8111351   3.530   7.425   1.828  0.4758  0.5954  1.2591
   36MOL    C8211352   3.267   7.410   1.437 -0.6792 -0.2404  0.3195
   36MOL    C8311353   3.117   7.413   1.460 -0.7059  0.3599 -0.7732
   36MOL    O8411354   3.069   7.388   1.324  0.2460 -0.2250 -0.0398
   36MOL    C8511355   2.989   7.491   1.281  0.3823  0.2215 -0.7992
   36MOL    C8611356   2.901   7.430   1.175 -1.2211  0.6517  0.7476
   36MOL    C8711357   3.072   7.605   1.220 -0.5019 -0.2833  0.2691
   36MOL    H8811358   3.296   7.433   1.335  3.5453  1.0532  1.7048
   36MOL    H8911359   3.306   7.310   1.456 -0.8911 -0.0721  1.7061
   36MOL    H9011360   3.081   7.506   1.504  0.6625 -0.6223  2.6207
   36MOL    H9111361   2.922   7.545   1.348 -0.0583  0.1779 -1.1996
   36MOL    H9211362   2.828   7.366   1.224 -0.3925  0.1701  1.3667
   36MOL    H9311363   2.842   7.500   1.116 -0.9400  0.1780 -0.1059
   36MOL    H9411364   2.959   7.357   1.119 -1.4674  2.0984 -1.4577
   36MOL    H9511365   3.099   7.670   1.303 -0.3376 -2.1198  1.6829
   36MOL    H9611366   3.167   7.583   1.172 -0.7054  0.1393 -0.3425
   36MOL    H9711367   3.004   7.661   1.155  0.7933 -0.4966 -1.2919
   36MOL    C9811368   3.074   7.300   1.550 -0.2112 -0.4348 -0.1635
   36MOL    C9911369   2.929   7.299   1.593 -0.3026  0.3062 -0.0244
   36MOL   O10011370   2.901   7.404   1.689 -0.5176 -0.0599 -0.2022
   36MOL   C10111371   2.765   7.439   1.716  0.3197 -0.4923  0.3905
   36MOL   C10211372   2.746   7.579   1.658 -0.0648 -0.1778 -0.0769
   36MOL   C10311373   2.750   7.437   1.871  0.3512  0.0519 -0.3676
   36MOL   H10411374   3.113   7.214   1.496  1.7041 -0.9522  1.9525
   36MOL   H10511375   3.130   7.318   1.642  1.6901  1.6660 -1.6759
   36MOL   H10611376   2.859   7.305   1.510 -2.3063  1.4942  1.6966
   36MOL   H10711377   2.691   7.375   1.669 -0.0061 -0.7744  1.2895
   36MOL   H10811378   2.643   7.607   1.683 -0.0001 -0.3197  0.3514
   36MOL   H10911379   2.767   7.588   1.552  0.0166  0.0274 -0.0434
   36MOL   H11011380   2.806   7.656   1.707  0.1283  0.4618 -1.2972
   36MOL   H11111381   2.654   7.480   1.900  0.3411 -0.7636  0.8347
   36MOL   H11211382   2.829   7.493   1.922 -1.1253  1.7657  0.0919
   36MOL   H11311383   2.746   7.334   1.905 -3.9474  0.0498 -0.6183
   36MOL   C11411384   2.908   7.164   1.660  0.4859  0.1084  0.1836
   36MOL   C11511385   2.858   7.050   1.559 -0.4582  0.6905  0.0345
   36MOL   O11611386   2.967   7.003   1.490 -0.1072  0.4260 -0.0140
   36MOL   C11711387   2.947   6.951   1.365 -0.3484 -0.1897  0.2223
   36MOL   C11811388   3.038   6.824   1.350 -0.2333 -0.4558  0.8380
   36MOL   C11911389   2.986   7.048   1.248  0.2613 -0.4803 -0.2370
   36MOL   H12011390   2.835   7.184   1.739  0.3621 -0.5659  0.2420
   36MOL   H12111391   2.989   7.134   1.726 -0.0586 -1.5776  0.1182
   36MOL   H12211392   2.786   7.084   1.484 -0.8779 -0.6506 -0.1741
   36MOL   H12311393   2.847   6.910   1.359  0.2644 -1.5028 -1.6752
   36MOL   H12411394   3.009   6.750   1.423 -0.0014 -0.7136  0.6712
   36MOL   H12511395   3.142   6.852   1.367 -0.7755  1.9713  0.4334
   36MOL   H12611396   3.016   6.785   1.251  0.2774  0.5797  0.3009
   36MOL   H12711397   2.921   7.135   1.241  0.7542 -0.1504 -0.7084
   36MOL   H12811398   2.977   6.995   1.153  0.5781 -0.7504 -0.1159
   36MOL   H12911399   3.092   7.070   1.260  1.1507 -4.7796  0.5537
   36MOL   C13011400   2.796   6.937   1.633  0.4049  0.5329 -0.3349
   36MOL   C13111401   2.656   6.956   1.683 -0.1874 -0.1029  0.0172
   36MOL   O13211402   2.634   6.847   1.770 -0.3656 -0.2578  0.2304
   36MOL   C13311403   2.629   6.884   1.904  0.0169  0.2526 -0.5031
   36MOL   C13411404   2.561   6.764   1.980  0.6403 -0.2027 -0.2318
   36MOL   C13511405   2.778   6.893   1.951  0.0353 -1.1603 -0.3115
   36MOL   H13611406   2.855   6.898   1.716 -2.0254  0.9466  1.6433
   36MOL   H13711407   2.794   6.845   1.574 -0.5935  0.9255 -0.9173
   36MOL   H13811408   2.646   7.049   1.739 -0.1701 -0.2492  0.2627
   36MOL   H13911409   2.573   6.975   1.926  1.5091  1.1398 -0.2643
   36MOL   H14011410   2.461   6.742   1.944  0.4341  2.1486 -1.1285
   36MOL   H14111411   2.563   6.770   2.089 -0.7878  3.2685 -0.3545
   36MOL   H14211412   2.607   6.672   1.943  1.1010  0.4473 -1.2918
   36MOL   H14311413   2.810   6.997   1.940 -0.1858 -0.9279  1.1178
   36MOL   H14411414   2.781   6.872   2.058  1.0050  0.8266  0.0797
   36MOL   H14511415   2.842   6.815   1.910  0.8842  0.6884 -2.6276
   36MOL   C14611416   2.561   6.941   1.564 -0.0842 -0.4114  0.1072
   36MOL   C14711417   2.414   6.955   1.602 -0.5601 -0.5184  0.8953
   36MOL   O14811418   2.394   7.097   1.613 -0.9802 -0.0868 -0.1286
   36MOL   C14911419   2.276   7.136   1.681  0.1877 -0.0650  0.0480
   36MOL   C15011420   2.254   7.283   1.648  0.3489 -0.6124  0.4372
   36MOL   C15111421   2.292   7.117   1.836 -0.2506 -0.3583  0.2446
   36MOL   H15211422   2.568   6.834   1.545  0.0937 -0.7222  1.8322
   36MOL   H15311423   2.584   7.006   1.480 -0.1451  0.4669  0.7620
   36MOL   H15411424   2.401   6.922   1.705  0.3717 -0.4772  1.0256
   36MOL   H15511425   2.186   7.085   1.647 -0.1711 -1.0682  2.3981
   36MOL   H15611426   2.319   7.351   1.703  0.0226 -1.7276  2.2396
   36MOL   H15711427   2.150   7.314   1.661  0.6252  0.4302  0.2219
   36MOL   H15811428   2.280   7.310   1.546  1.3277  1.4999  1.2114
   36MOL   H15911429   2.380   7.173   1.866  1.6406 -1.7158 -2.5560
   36MOL   H16011430   2.304   7.011   1.859  2.5344 -0.8326 -2.9933
   36MOL   H16111431   2.200   7.157   1.880 -1.2088 -1.5876 -0.5922
   36MOL   C16211432   2.306   6.885   1.511 -0.6424  0.0959 -0.0332
   36MOL   C16311433   2.306   6.915   1.359  0.3232 -0.4129  0.4441
   36MOL   O16411434   2.237   6.807   1.288 -0.3428  0.5714  0.2997
   36MOL   C16511435   2.316   6.694   1.254  0.1748  0.1277 -0.0710
   36MOL   C16611436   2.399   6.738   1.129 -0.2403  0.1784  0.1839
   36MOL   C16711437   2.219   6.584   1.217 -0.2128 -0.2313 -0.1944
   36MOL   H16811438   2.327   6.781   1.537 -0.0211  0.0442 -0.7515
   36MOL   H16911439   2.204   6.892   1.551 -0.1766 -0.4543  1.2899
   36MOL   H17011440   2.408   6.919   1.320 -0.0070  3.2886 -0.2583
   36MOL   H17111441   2.393   6.656   1.321  1.6195  0.9171 -1.2284
   36MOL   H17211442   2.474   6.662   1.107  1.5575  1.3284  2.1013
   36MOL   H17311443   2.460   6.826   1.149  1.2781 -1.0557  1.0913
   36MOL   H17411444   2.336   6.754   1.041 -1.2648  0.4556  0.9593
   36MOL   H17511445   2.281   6.502   1.182 -0.1576  0.0764 -0.8174
   36MOL   H17611446   2.153   6.628   1.142 -0.2123  0.3021  0.1101
   36MOL   H17711447   2.175   6.528   1.300 -0.5842  1.5702  0.8562
   36MOL   C17811448   2.239   7.052   1.331  0.5015  0.8006 -0.9476
   36MOL   C17911449   2.245   7.095   1.181 -0.0215 -0.0945 -0.1104
   36MOL   O18011450   2.168   7.222   1.189 -0.1984  0.6018 -0.0289
   36MOL   C18111451   2.034   7.216   1.160 -0.2702 -0.3190 -0.4558
   36MOL   C18211452   2.018   7.233   1.007  0.2892 -0.7544  0.0924
   36MOL   C18311453   1.954   7.326   1.235 -0.5472 -0.0496 -0.0725
   36MOL   H18411454   2.294   7.124   1.392  1.0558 -1.7114  1.6342
   36MOL   H18511455   2.138   7.043   1.371  0.7025 -0.6971 -0.7510
   36MOL   H18611456   2.194   7.028   1.111  1.1791 -0.5081 -0.6077
   36MOL   H18711457   1.998   7.119   1.194 -2.5138  1.6516  3.0241
   36MOL   H18811458   2.038   7.336   0.978  1.9085 -0.9009  0.6677
   36MOL   H18911459   1.913   7.221   0.979  0.3219  1.2341 -1.0512
   36MOL   H19011460   2.074   7.166   0.942 -0.4133 -1.2317 -0.0255
   36MOL   H19111461   1.850   7.334   1.203 -0.2041 -2.9699 -2.0677
   36MOL   H19211462   2.003   7.422   1.220 -0.7325  0.2950  1.4143
   36MOL   H19311463   1.961   7.317   1.344 -2.2461  0.4244  0.1034
   36MOL   C19411464   2.384   7.127   1.136  0.1422  0.6707 -0.4100
   36MOL   C19511465   2.403   7.141   0.991  0.0723 -0.4030  0.5038
   36MOL   O19611466   2.391   7.005   0.946  0.1834 -0.7744 -0.2431
   36MOL   C19711467   2.414   6.988   0.812  0.6486 -0.1973 -0.3824
   36MOL   C19811468   2.547   6.915   0.786  0.9718  0.6264 -0.9615
   36MOL   C19911469   2.292   6.918   0.746  0.0429 -0.2480  0.7931
   36MOL   H20011470   2.422   7.212   1.193  1.6410  0.2698 -0.7988
   36MOL   H20111471   2.454   7.049   1.165 -2.9128 -2.4001 -0.9640
   36MOL   H20211472   2.319   7.196   0.949 -0.3220  1.5571  3.6743
   36MOL   H20311473   2.410   7.080   0.753  0.6507  1.9579  2.8775
   36MOL   H20411474   2.526   6.821   0.837 -0.4592  0.5707 -1.6190
   36MOL   H20511475   2.559   6.897   0.679 -1.9398 -0.2343 -1.1908
   36MOL   H20611476   2.629   6.977   0.823  0.1245  1.2177 -0.0266
   36MOL   H20711477   2.286   6.814   0.780  0.7945 -0.8817 -0.9776
   36MOL   H20811478   2.200   6.974   0.765  0.8073  1.1382  0.4562
   36MOL   H20911479   2.307   6.919   0.638  0.9886 -1.9649  0.8870
   36MOL   C21011480   2.534   7.225   0.962 -0.0141  0.2089 -0.4102
   36MOL   C21111481   2.518   7.382   0.974  0.0411 -0.1779 -0.2151
   36MOL   O21211482   2.585   7.417   1.090 -0.3591 -0.0960  0.1099
   36MOL   C21311483   2.503   7.477   1.188 -0.4600 -0.5874 -0.3796
   36MOL   C21411484   2.562   7.464   1.334 -0.7020 -0.1686 -0.6424
   36MOL   C21511485   2.497   7.628   1.153 -0.0177  0.4764 -0.2126
   36MOL   H21611486   2.556   7.210   0.856  0.6442 -0.5012 -0.1780
   36MOL   H21711487   2.620   7.185   1.016 -1.4745 -0.5844  1.3418
   36MOL   H21811488   2.412   7.408   0.979  0.3414  0.9376  0.5419
   36MOL   H21911489   2.404   7.434   1.204 -1.9675  1.4188 -3.8041
   36MOL   H22011490   2.508   7.531   1.401 -2.1233 -0.5081 -1.4131
   36MOL   H22111491   2.665   7.496   1.342 -0.6670 -0.4764  0.1182
   36MOL   H22211492   2.555   7.364   1.378 -0.5834  0.3957  0.6722
   36MOL   H22311493   2.594   7.671   1.129 -0.7356  1.6024 -1.1933
   36MOL   H22411494   2.443   7.694   1.220  0.1164  1.4030 -1.0005
   36MOL   H22511495   2.436   7.643   1.063  1.7500 -1.6715 -1.8238
   36MOL   C22611496   2.584   7.464   0.862  0.3736  0.3459 -0.9386
   36MOL   C22711497   2.508   7.448   0.727 -0.7359 -0.3381  0.2689
   36MOL   O22811498   2.605   7.479   0.628  0.2690 -0.2042  0.0487
   36MOL   C22911499   2.676   7.367   0.581 -0.0223 -0.6512 -0.3853
   36MOL   C23011500   2.806   7.424   0.534 -0.3004 -0.6955 -0.1659
   36MOL   C23111501   2.600   7.282   0.480  0.1622 -0.3170  0.4153
   36MOL   H23211502   2.685   7.425   0.851  0.8423  1.0117  0.8503
   36MOL   H23311503   2.603   7.568   0.889  1.1230 -0.5738  2.3166
   36MOL   H23411504   2.484   7.344   0.708 -0.5534 -0.4238  0.4999
   36MOL   H23511505   2.703   7.297   0.660  0.1258 -0.3783 -0.1909
   36MOL   H23611506   2.874   7.471   0.605  0.5341 -2.2168  0.0617
   36MOL   H23711507   2.873   7.346   0.497  2.0531  0.9759  0.4391
   36MOL   H23811508   2.788   7.492   0.451 -1.1718 -0.9888 -0.2238
   36MOL   H23911509   2.603   7.321   0.379 -0.8445  1.1558  0.9299
   36MOL   H24011510   2.499   7.254   0.510 -0.1904  0.5915  0.0677
   36MOL   H24111511   2.664   7.194   0.470 -0.7508 -0.8549 -0.6613
   36MOL   C24211512   2.386   7.545   0.731  0.1329 -0.1320  0.1033
   36MOL   C24311513   2.290   7.544   0.609  0.3640  0.2645 -0.0864
   36MOL   O24411514   2.188   7.645   0.623 -0.2576  0.3179  0.0764
   36MOL   C24511515   2.166   7.746   0.531 -0.0131 -0.4939  0.2455
   36MOL   C24611516   2.016   7.769   0.536 -0.2044 -0.4554  1.0786
   36MOL   C24711517   2.231   0.055   0.584 -0.6664 -0.2207 -0.1665
   36MOL   H24811518   2.326   7.531   0.821  0.2386  2.0007  0.5331
   36MOL   H24911519   2.427   7.645   0.744  0.9072 -0.3039 -0.9514
   36MOL   H25011520   2.351   7.571   0.522  1.5597 -0.1949  0.6006
   36MOL   H25111521   2.192   7.719   0.429 -0.2189  2.3607 -0.6177
   36MOL   H25211522   1.999   7.813   0.634 -0.7856 -1.7264  1.5592
   36MOL   H25311523   1.982   0.016   0.457 -0.4831  1.7757  3.0276
   36MOL   H25411524   1.963   7.675   0.521  0.1562 -0.6561  1.0632
   36MOL   H25511525   2.213   0.079   0.689 -2.7053  1.6870 -0.8986
   36MOL   H25611526   2.339   0.044   0.571 -0.3280  0.1537  2.0594
   36MOL   H25711527   2.204   0.145   0.529 -0.8978 -1.1817 -1.6356
   36MOL   C25811528   2.219   7.415   0.579  0.2416  0.8795  0.5798
   36MOL   C25911529   2.149   7.398   0.439  0.2026  0.0055  0.8516
   36MOL   O26011530   2.062   7.280   0.435 -0.2694 -0.2243  1.0769
   36MOL   C26111531   1.959   7.270   0.541  0.1213 -0.0996  0.7831
   36MOL   C26211532   1.825   7.245   0.476  0.3268  0.8260  0.0477
   36MOL   C26311533   1.988   7.156   0.636 -0.3318  0.3693  0.1836
   36MOL   H26411534   2.285   7.329   0.579 -0.8546  0.0302  1.1265
   36MOL   H26511535   2.142   7.391   0.653 -0.7117 -1.0754 -0.9823
   36MOL   H26611536   2.079   7.481   0.425 -1.9427 -1.2725  3.4983
   36MOL   H26711537   1.951   7.361   0.602  0.1812 -0.9621  2.0978
   36MOL   H26811538   1.804   7.330   0.411 -0.1952  1.4799  1.0726
   36MOL   H26911539   1.738   7.251   0.541  1.3869 -0.4869  1.6015
   36MOL   H27011540   1.801   7.150   0.428  0.2080  0.4135  0.9220
   36MOL   H27111541   2.081   7.171   0.691  0.3512 -0.1704 -0.8023
   36MOL   H27211542   1.907   7.152   0.709  1.4043 -3.1303  2.0759
   36MOL   H27311543   1.986   7.063   0.578 -0.0424  0.5001 -0.0370
   36MOL   C27411544   2.244   7.399   0.318  0.5354 -0.0595  0.1152
   36MOL   C27511545   2.172   7.388   0.182 -0.8238 -0.0093 -0.4158
   36MOL   O27611546   2.072   7.489   0.159 -0.2545 -0.0668  0.2556
   36MOL   C27711547   1.941   7.441   0.156  0.1332  0.2884 -0.1462
   36MOL   C27811548   1.903   7.389   0.020  0.2655 -0.4173  0.8286
   36MOL   C27911549   1.836   7.539   0.212 -0.4496 -0.2527  0.3186
   36MOL   H28011550   2.292   7.496   0.320 -0.8886  0.6286  2.4920
   36MOL   H28111551   2.317   7.319   0.329 -0.5412 -1.1222 -0.2858
   36MOL   H28211552   2.131   7.286   0.179 -0.1743 -0.3157  0.7985
   36MOL   H28311553   1.926   7.349   0.213  0.7417  0.1549 -0.1950
   36MOL   H28411554   1.933   7.459   7.762  1.5251 -1.0984  0.6927
   36MOL   H28511555   1.958   7.296   0.012 -1.3523 -1.4398  1.4045
   36MOL   H28611556   1.798   7.368   0.001  0.7035 -2.4275  0.5426
   36MOL   H28711557   1.734   7.501   0.210 -0.3387 -0.5875  1.0025
   36MOL   H28811558   1.833   7.628   0.150  1.2839 -0.4492 -0.0846
   36MOL   H28911559   1.864   7.566   0.313 -0.4773 -0.1678  0.3036
   36MOL   C29011560   2.276   7.401   0.073  0.7258  0.0314  0.5610
   36MOL   C29111561   2.231   7.387   7.745  0.4923 -0.0997  0.1965
   36MOL   O29211562   2.343   7.420   7.658  0.3707 -0.2605 -0.3150
   36MOL   C29311563   2.368   7.562   7.661  0.4520 -0.2373  0.1681
   36MOL   C29411564   2.318   7.625   7.527  0.1550  0.1932 -0.4975
   36MOL   C29511565   2.518   7.566   7.677 -0.5670 -0.6345 -0.3040
   36MOL   H29611566   2.347   7.320   0.092 -0.9274 -1.2121  1.5984
   36MOL   H29711567   2.331   7.492   0.094  0.4658  0.1297  0.8197
   36MOL   H29811568   2.144   7.451   7.732  0.1893 -1.1693 -3.4635
   36MOL   H29911569   2.317   7.614   7.742  1.9507 -0.7897  1.4984
   36MOL   H30011570   2.213   7.616   7.498 -0.4761 -1.0695  2.0253
   36MOL   H30111571   2.350   7.729   7.523  1.6663 -0.1816  1.1374
   36MOL   H30211572   2.377   7.579   7.448  2.2722 -0.3608  1.3542
   36MOL   H30311573   2.577   7.522   7.596  2.4628  0.5142  1.1716
   36MOL   H30411574   2.546   7.672   7.672  0.1192 -0.8010 -0.0444
   36MOL   H30511575   2.553   7.519   7.769 -0.9579  1.4828  0.9535
   36MOL   C30611576   2.201   7.240   7.711  0.0544  0.2062  0.0476
   36MOL   C30711577   2.101   7.229   7.594  0.1321  0.3384 -0.2583
   36MOL   O30811578   2.099   7.092   7.555  0.0477  0.5161  0.5918
   36MOL   C30911579   2.035   7.061   7.428  0.4335 -0.3412  0.2556
   36MOL   C31011580   2.028   6.909   7.417  0.3083  0.0442 -0.1192
   36MOL   C31111581   1.886   7.116   7.416 -0.0049  0.5378 -0.0794
   36MOL   H31211582   2.153   7.195   7.798 -0.2916  1.5934  0.5865
   36MOL   H31311583   2.286   7.173   7.695  0.6436  0.1383  3.1830
   36MOL   H31411584   2.000   7.263   7.613 -0.4581 -1.9293  0.8160
   36MOL   H31511585   2.098   7.098   7.347 -0.8108 -0.3354 -0.7431
   36MOL   H31611586   2.038   6.853   7.510  0.6366  0.5027  0.1187
   36MOL   H31711587   2.113   6.875   7.358  0.8997  2.1986 -0.5199
   36MOL   H31811588   1.945   6.868   7.359 -0.5983  2.0061 -0.2273
   36MOL   H31911589   1.840   7.088   7.321  0.9041  4.6840 -1.8834
   36MOL   H32011590   1.893   7.222   7.392  1.5811  0.2772 -0.8868
   36MOL   H32111591   1.819   7.089   7.497  0.8875 -0.8797  0.2085
   36MOL   H32211592   2.141   7.286   7.510  0.8649  1.4599  0.8270
   37MOL     C111593   4.765   3.559   3.384  0.2071  0.0725  0.1863
   37MOL     C211594   4.914   3.586   3.392  0.1335 -0.3877  0.2842
   37MOL     O311595   4.942   3.699   3.311  0.0169  0.8502 -0.4452
   37MOL     C411596   4.930   3.688   3.174  0.2787 -0.1252  0.4985
   37MOL     C511597   5.071   3.719   3.114 -0.0933  0.3040  0.1313
   37MOL     C611598   4.809   3.779   3.122  0.5656  0.1426 -0.1464
   37MOL     H711599   4.705   3.650   3.391 -0.5124 -0.2444 -1.5882
   37MOL     H811600   4.728   3.524   3.288  0.4049  0.9012 -0.1935
   37MOL     H911601   4.979   3.501   3.370  2.5675  1.5348 -0.1918
   37MOL    H1011602   4.906   3.585   3.145  0.2163 -0.2518  0.9834
   37MOL    H1111603   5.089   3.826   3.106 -0.8628  0.2490 -2.6219
   37MOL    H1211604   5.158   3.672   3.161 -0.2162  0.8907  0.9663
   37MOL    H1311605   5.075   3.687   3.010 -0.7169  0.1070  0.1708
   37MOL    H1411606   4.810   3.772   3.013 -0.7382 -0.2150 -0.1432
   37MOL    H1511607   4.709   3.738   3.139  0.5153  0.3845  0.1590
   37MOL    H1611608   4.820   3.886   3.142 -0.0090  0.4083 -1.2257
   37MOL    H1711609   4.719   3.488   3.453 -0.0085  0.6341  0.6284
   37MOL    C1811610   4.957   3.618   3.537 -0.1608 -0.3730 -0.3559
   37MOL    C1911611   5.113   3.611   3.555  0.4643  0.4524 -0.3700
   37MOL    O2011612   5.154   3.474   3.546 -0.0291  0.1348 -0.3521
   37MOL    C2111613   5.294   3.462   3.509  0.9929 -0.9415 -0.3214
   37MOL    C2211614   5.307   3.457   3.354  0.1985  0.1567  0.5983
   37MOL    C2311615   5.357   3.346   3.593  0.0862  0.4457  0.4873
   37MOL    H2411616   4.914   3.710   3.578 -0.0330 -0.5954  0.2862
   37MOL    H2511617   4.905   3.548   3.602  0.7652  0.5098  1.3602
   37MOL    H2611618   5.151   3.670   3.472 -0.2249  0.6459 -0.5488
   37MOL    H2711619   5.357   3.546   3.539 -0.8071  0.7670 -1.1873
   37MOL    H2811620   5.256   3.534   3.297 -1.2680 -1.5406 -0.4494
   37MOL    H2911621   5.414   3.462   3.332  0.3727 -2.3453  0.7075
   37MOL    H3011622   5.273   3.363   3.309  1.6573 -0.5038  0.8158
   37MOL    H3111623   5.456   3.325   3.554  0.4349  1.1435  0.9743
   37MOL    H3211624   5.289   3.261   3.589  1.0601 -0.3307  0.4102
   37MOL    H3311625   5.372   3.372   3.698 -0.4455 -0.9790  0.9229
   37MOL    C3411626   5.155   3.669   3.690 -0.3001 -0.0593 -0.0983
   37MOL    C3511627   5.127   3.819   3.713 -1.0239  0.2045  0.0231
   37MOL    O3611628   5.145   3.852   3.848 -0.0515  0.2551  0.2686
   37MOL    C3711629   5.047   3.817   3.939 -0.0897  0.6561  0.3437
   37MOL    C3811630   5.111   3.762   4.056  0.2372 -0.3579 -0.0456
   37MOL    C3911631   4.976   3.946   3.975 -0.0975  0.0650 -0.5158
   37MOL    H4011632   5.260   3.659   3.720  0.8971  3.5865 -2.6906
   37MOL    H4111633   5.098   3.616   3.766 -0.0394 -0.6556 -0.3107
   37MOL    H4211634   5.024   3.845   3.692 -0.4095  0.4121 -2.9177
   37MOL    H4311635   4.974   3.741   3.911 -0.2262  0.0982  2.1380
   37MOL    H4411636   5.059   3.784   4.149  0.2376  0.1252 -0.1598
   37MOL    H4511637   5.212   3.801   4.072  0.1397  0.3589 -1.1530
   37MOL    H4611638   5.133   3.655   4.048  0.4431 -0.3648  0.5528
   37MOL    H4711639   4.884   3.933   4.032 -0.5886  0.5799 -1.1778
   37MOL    H4811640   5.050   3.999   4.035 -2.4077  1.2904  1.3403
   37MOL    H4911641   4.966   4.002   3.882  0.5610  1.7557  0.4037
   37MOL    C5011642   5.221   3.903   3.625  0.6594  0.0512  0.6507
   37MOL    C5111643   5.199   4.053   3.632  0.3317  0.2164 -0.0119
   37MOL    O5211644   5.218   4.103   3.496  0.0888 -0.3167  0.3131
   37MOL    C5311645   5.101   4.099   3.418  0.0881  0.5820 -0.4210
   37MOL    C5411646   5.142   4.051   3.281 -0.0122  0.7040  0.4074
   37MOL    C5511647   5.033   4.237   3.421 -1.0889 -0.1857 -0.1084
   37MOL    H5611648   5.329   3.890   3.635  0.9396  1.6343 -0.1180
   37MOL    H5711649   5.201   3.864   3.525 -0.8063 -0.7357  1.2333
   37MOL    H5811650   5.097   4.072   3.666  0.2690  1.7374 -0.9950
   37MOL    H5911651   5.024   4.031   3.456 -0.6074  1.8090  0.4306
   37MOL    H6011652   5.179   3.950   3.297  0.8019  1.0197  0.5343
   37MOL    H6111653   5.226   4.110   3.243 -0.8484  0.5974 -1.6427
   37MOL    H6211654   5.061   4.061   3.209 -0.2686 -1.6582  0.3578
   37MOL    H6311655   5.108   4.311   3.393 -2.4057  1.5634  0.8861
   37MOL    H6411656   5.005   4.263   3.523 -1.9236  0.2923 -0.4490
   37MOL    H6511657   4.947   4.238   3.354 -0.3473  0.5133 -1.0653
   37MOL    C6611658   5.301   4.121   3.726  0.2919  0.6373  0.4405
   37MOL    C6711659   5.258   4.262   3.776 -0.0062 -0.6575 -0.4089
   37MOL    O6811660   5.370   4.338   3.828  0.7908  0.2355 -0.0931
   37MOL    C6911661   5.451   4.386   3.721 -0.5145  0.1670  0.2505
   37MOL    C7011662   5.393   4.522   3.673 -0.0837  0.3057  0.2749
   37MOL    C7111663   5.593   4.401   3.779  0.2213 -0.2926  0.0332
   37MOL    H7211664   5.309   4.062   3.817 -1.2053 -0.2235  0.0302
   37MOL    H7311665   5.401   4.119   3.682 -1.3507  1.2529 -3.5020
   37MOL    H7411666   5.199   4.308   3.697 -1.4646  0.2837  1.2118
   37MOL    H7511667   5.461   4.315   3.639  0.3566 -0.0933  0.5667
   37MOL    H7611668   5.375   4.566   3.771  0.1287 -0.3919  0.6353
   37MOL    H7711669   5.468   4.584   3.624 -1.1128  0.5669 -1.0019
   37MOL    H7811670   5.307   4.513   3.607  1.9818  0.4634 -2.5613
   37MOL    H7911671   5.666   4.422   3.701 -0.4838  0.7794 -0.3541
   37MOL    H8011672   5.618   4.302   3.817  0.3328 -0.2529  0.0628
   37MOL    H8111673   5.589   4.478   3.857  1.7480 -0.5047  0.3401
   37MOL    C8211674   5.161   4.246   3.893 -0.5516  0.7709 -0.0118
   37MOL    C8311675   5.069   4.368   3.926  0.5021  0.0213 -0.2405
   37MOL    O8411676   4.980   4.377   3.818  0.3660  0.1724  0.4539
   37MOL    C8511677   4.931   4.508   3.776 -0.3016 -0.7072  0.2791
   37MOL    C8611678   4.790   4.495   3.710  0.3446  0.2684  0.6778
   37MOL    C8711679   5.027   4.569   3.677 -0.1786 -0.0063 -0.6565
   37MOL    H8811680   5.097   4.162   3.865 -0.2098  0.4949  0.0396
   37MOL    H8911681   5.213   4.216   3.984  1.4779  1.9097 -0.7759
   37MOL    H9011682   5.124   4.461   3.938 -0.5578  0.7043 -0.5883
   37MOL    H9111683   4.924   4.567   3.867  0.9099 -2.2553  1.3948
   37MOL    H9211684   4.755   4.591   3.672 -2.6902 -0.7451  0.8018
   37MOL    H9311685   4.799   4.430   3.622 -0.1685  1.3578 -0.1810
   37MOL    H9411686   4.719   4.455   3.782 -0.2056  0.8629  0.4660
   37MOL    H9511687   4.967   4.637   3.617 -1.6711 -1.0337 -0.3497
   37MOL    H9611688   5.117   4.609   3.723  0.1894 -1.4081 -0.1425
   37MOL    H9711689   5.062   4.498   3.603  0.4592 -1.3501  0.9038
   37MOL    C9811690   4.982   4.339   4.047  0.3273  0.2853 -0.0292
   37MOL    C9911691   5.052   4.359   4.181 -0.1545  0.5277 -0.8147
   37MOL   O10011692   5.056   4.222   4.226  0.3044  0.7980  0.5584
   37MOL   C10111693   5.160   4.173   4.313 -0.3255  0.4799  0.6911
   37MOL   C10211694   5.296   4.159   4.232  0.1956 -0.4047 -0.6014
   37MOL   C10311695   5.125   4.037   4.367 -0.2236 -0.6855  0.5817
   37MOL   H10411696   4.898   4.408   4.049 -0.0673 -0.2417  2.5347
   37MOL   H10511697   4.933   4.242   4.036  0.0294  0.2098  1.8438
   37MOL   H10611698   5.151   4.401   4.162  0.0088  0.1040 -0.9253
   37MOL   H10711699   5.182   4.246   4.391  0.9104  1.2596 -0.3548
   37MOL   H10811700   5.327   4.251   4.181 -0.9169 -0.3628 -1.2070
   37MOL   H10911701   5.278   4.082   4.157  2.4484 -0.4424 -1.1734
   37MOL   H11011702   5.375   4.133   4.302  2.3679  4.8106 -0.8250
   37MOL   H11111703   5.034   4.042   4.426  0.6314 -0.3526  1.9072
   37MOL   H11211704   5.211   3.990   4.414 -0.2417 -1.8174 -0.4841
   37MOL   H11311705   5.104   3.971   4.282 -1.5913  2.5779 -1.7046
   37MOL   C11411706   4.966   4.426   4.294 -0.5748 -0.0798  0.1104
   37MOL   C11511707   4.909   4.571   4.268 -0.1806  1.3010 -0.7104
   37MOL   O11611708   4.870   4.612   4.397 -0.2506  0.0207 -0.8667
   37MOL   C11711709   4.736   4.588   4.437  0.1497  0.4270 -0.1354
   37MOL   C11811710   4.664   4.713   4.405  0.6504 -1.0786  0.5478
   37MOL   C11911711   4.747   4.561   4.588  0.3212 -0.0461  0.2668
   37MOL   H12011712   5.027   4.435   4.383 -0.0442  0.1160 -0.2704
   37MOL   H12111713   4.881   4.360   4.314  0.0878 -0.2496  2.4378
   37MOL   H12211714   4.824   4.560   4.200 -0.6331 -0.0033  0.0626
   37MOL   H12311715   4.689   4.499   4.394  0.7854 -0.9003  1.8204
   37MOL   H12411716   4.665   4.735   4.299  1.5529  0.1056  0.7842
   37MOL   H12511717   4.704   4.807   4.445  0.7781 -0.4366 -1.0579
   37MOL   H12611718   4.556   4.711   4.420  0.7117  0.1023  1.2457
   37MOL   H12711719   4.790   4.464   4.611 -2.3788 -0.4989  3.8703
   37MOL   H12811720   4.645   4.558   4.627  0.3671 -3.4390  0.2083
   37MOL   H12911721   4.800   4.639   4.644 -1.2585  1.5527 -0.4051
   37MOL   C13011722   5.024   4.655   4.204  0.7491  0.6861 -0.1581
   37MOL   C13111723   4.990   4.796   4.167  1.0349 -0.0170 -0.1637
   37MOL   O13211724   4.962   4.868   4.286  0.6264 -0.4451  0.1970
   37MOL   C13311725   5.073   4.903   4.373  0.1160 -0.5018  0.3944
   37MOL   C13411726   5.193   4.976   4.313 -0.0127  0.2384 -0.0706
   37MOL   C13511727   5.004   4.979   4.492  0.0582 -0.3522 -0.0308
   37MOL   H13611728   5.052   4.625   4.103  0.5653  0.5474 -0.1662
   37MOL   H13711729   5.115   4.646   4.263  0.8069 -0.6041 -0.4315
   37MOL   H13811730   5.080   4.831   4.117  2.6132 -1.1041  1.8267
   37MOL   H13911731   5.108   4.805   4.406  0.1705 -0.4942  0.3604
   37MOL   H14011732   5.240   4.913   4.239  0.0037  1.6807 -1.3143
   37MOL   H14111733   5.281   4.976   4.377  0.5374 -1.0157 -0.8273
   37MOL   H14211734   5.171   5.074   4.270 -0.6026  0.0446 -0.2214
   37MOL   H14311735   4.904   4.934   4.493  0.0813 -0.4538 -1.1642
   37MOL   H14411736   5.054   4.951   4.584  0.6980 -0.9182 -0.5429
   37MOL   H14511737   5.001   5.087   4.479  0.0048 -0.0723  2.1535
   37MOL   C14611738   4.869   4.816   4.065 -0.2291  0.4590  0.1131
   37MOL   C14711739   4.858   4.963   4.000  0.0787 -0.4172  0.1508
   37MOL   O14811740   4.946   4.950   3.894 -0.6686  0.0838 -0.3653
   37MOL   C14911741   4.984   5.067   3.816 -0.0697 -0.3936 -0.5471
   37MOL   C15011742   4.997   5.025   3.668  0.8235  0.0437 -0.0329
   37MOL   C15111743   5.120   5.104   3.877 -0.1793  0.1198  0.2671
   37MOL   H15211744   4.777   4.786   4.115  0.4719 -3.8643 -0.9295
   37MOL   H15311745   4.877   4.741   3.986 -1.9614  0.8827 -0.4792
   37MOL   H15411746   4.896   5.038   4.071 -1.0318 -1.6869  2.1426
   37MOL   H15511747   4.924   5.157   3.831 -1.2002 -1.2038 -0.2402
   37MOL   H15611748   5.025   5.104   3.599  0.6224  2.0766  2.1253
   37MOL   H15711749   4.902   4.992   3.628  0.9459 -1.3096  0.7675
   37MOL   H15811750   5.073   4.949   3.648 -0.4876 -1.0793 -0.7623
   37MOL   H15911751   5.106   5.150   3.975  2.4831 -1.4217  1.4113
   37MOL   H16011752   5.171   5.171   3.808  3.1486 -1.9527  0.6492
   37MOL   H16111753   5.194   5.026   3.896  2.0380  2.6754  2.6396
   37MOL   C16211754   4.710   4.994   3.957 -0.3793  0.5130 -0.0852
   37MOL   C16311755   4.610   5.008   4.072  0.0050  0.4240  0.3255
   37MOL   O16411756   4.639   5.132   4.142 -0.1582 -0.3319 -0.1799
   37MOL   C16511757   4.710   5.111   4.270 -0.1143  0.2143 -0.4709
   37MOL   C16611758   4.605   5.078   4.382  0.2030 -0.2729  0.3463
   37MOL   C16711759   4.798   5.227   4.319 -0.2602  0.3465 -0.6063
   37MOL   H16811760   4.701   5.082   3.893  0.8347 -0.6123 -1.8566
   37MOL   H16911761   4.680   4.924   3.879  1.0271  0.0972 -0.2818
   37MOL   H17011762   4.614   4.925   4.143 -3.2627  1.4327  1.8490
   37MOL   H17111763   4.783   5.031   4.259 -1.1817 -0.8604  0.1186
   37MOL   H17211764   4.534   5.001   4.354  1.6356 -1.0293 -1.3183
   37MOL   H17311765   4.539   5.160   4.408 -1.0940 -1.5922  1.3123
   37MOL   H17411766   4.664   5.049   4.469 -0.1436 -0.5915  0.4761
   37MOL   H17511767   4.744   5.317   4.348  0.8960  0.3657  1.5770
   37MOL   H17611768   4.873   5.256   4.246  0.0220 -0.0057 -0.4616
   37MOL   H17711769   4.853   5.207   4.411  0.9829 -0.3868 -1.4845
   37MOL   C17811770   4.465   5.018   4.017 -0.1791 -0.3535  0.1025
   37MOL   C17911771   4.399   4.901   3.947  0.1075  0.5905 -0.0003
   37MOL   O18011772   4.439   4.787   4.016  0.6666  0.4223  0.0049
   37MOL   C18111773   4.431   4.660   3.949 -0.8715  0.2710 -0.3261
   37MOL   C18211774   4.505   4.561   4.048 -0.1280 -0.5389  0.2915
   37MOL   C18311775   4.493   4.661   3.812  0.8906 -0.5458 -0.3516
   37MOL   H18411776   4.453   5.110   3.959 -0.9497 -0.2409  0.4448
   37MOL   H18511777   4.396   5.034   4.100 -1.7817 -2.1746 -0.8516
   37MOL   H18611778   4.438   4.902   3.845 -1.6352  1.2400 -0.6729
   37MOL   H18711779   4.324   4.644   3.944 -1.0108  1.0421  0.0305
   37MOL   H18811780   4.614   4.574   4.048 -0.2637  0.7487 -0.6397
   37MOL   H18911781   4.488   4.457   4.020  1.2982  0.1238 -3.3299
   37MOL   H19011782   4.480   4.576   4.153  2.6528 -0.1595  0.9423
   37MOL   H19111783   4.447   4.729   3.741 -1.5896  1.0590  2.6518
   37MOL   H19211784   4.489   4.564   3.762  0.5669  0.0128 -1.4079
   37MOL   H19311785   4.593   4.703   3.824  0.1606  0.6681  1.7675
   37MOL   C19411786   4.246   4.907   3.930  0.6147 -1.1851 -0.3812
   37MOL   C19511787   4.195   5.036   3.865  0.3771  0.7716 -0.3219
   37MOL   O19611788   4.057   5.000   3.846 -0.1006 -0.7131 -0.2218
   37MOL   C19711789   3.957   5.065   3.926  0.4090 -0.1501 -0.1450
   37MOL   C19811790   3.826   5.059   3.850  0.2513 -0.1322  1.4930
   37MOL   C19911791   3.954   4.999   4.065  0.0816 -0.3659 -0.4587
   37MOL   H20011792   4.217   4.832   3.857 -0.1358 -1.7912  0.5355
   37MOL   H20111793   4.195   4.877   4.021 -1.1744  0.2975 -0.8547
   37MOL   H20211794   4.212   5.126   3.925  0.3537  1.1670 -0.9115
   37MOL   H20311795   3.971   5.173   3.931  0.8751 -0.2227  0.1016
   37MOL   H20411796   3.741   5.104   3.901  0.2804 -0.3143  1.6999
   37MOL   H20511797   3.848   5.118   3.760  1.7612 -0.3492  1.7002
   37MOL   H20611798   3.816   4.955   3.820  0.2638  0.5151 -0.9495
   37MOL   H20711799   3.966   4.891   4.053 -1.0962 -0.6337  0.6775
   37MOL   H20811800   4.044   5.020   4.124  0.1476 -2.2927  0.1627
   37MOL   H20911801   3.861   5.014   4.120 -0.6221 -2.9920 -0.8734
   37MOL   C21011802   4.260   5.063   3.720  0.6577  0.3154  0.3892
   37MOL   C21111803   4.232   5.210   3.666 -0.1438  0.6103  0.4575
   37MOL   O21211804   4.332   5.248   3.575 -0.3537  0.5062 -0.3776
   37MOL   C21311805   4.442   5.307   3.639 -0.3500 -0.7194  0.4083
   37MOL   C21411806   4.558   5.237   3.579 -0.0790 -0.0476  0.7396
   37MOL   C21511807   4.454   5.456   3.601 -0.1763  0.1814 -0.4300
   37MOL   H21611808   4.224   4.987   3.650  1.2730  0.0385  0.3757
   37MOL   H21711809   4.369   5.064   3.721  0.6524 -0.3779  1.1594
   37MOL   H21811810   4.234   5.272   3.755  1.8216 -1.6481  2.0167
   37MOL   H21911811   4.451   5.299   3.748  2.4047  0.8262  0.3319
   37MOL   H22011812   4.657   5.273   3.606  1.7201 -2.9490 -1.6950
   37MOL   H22111813   4.545   5.226   3.471 -1.6981  0.8861  0.8255
   37MOL   H22211814   4.557   5.132   3.608 -1.5386 -0.6772 -1.4483
   37MOL   H22311815   4.549   5.503   3.624 -0.4444 -0.0541  1.2102
   37MOL   H22411816   4.384   5.518   3.656  0.7211  1.1469 -0.3820
   37MOL   H22511817   4.436   5.468   3.494  2.2024 -1.4705 -1.0529
   37MOL   C22611818   4.099   5.223   3.595  0.6288  0.1136 -0.1694
   37MOL   C22711819   4.027   5.363   3.609  0.0830 -0.0629 -0.0490
   37MOL   O22811820   3.970   5.369   3.739 -0.1179  0.3109  0.0801
   37MOL   C22911821   4.014   5.481   3.811  0.4444  0.9017 -0.3157
   37MOL   C23011822   3.981   5.441   3.957  0.1403 -0.4750  0.3464
   37MOL   C23111823   3.941   5.609   3.776 -0.7547  0.4729  0.2614
   37MOL   H23211824   4.041   5.140   3.635  0.7495 -0.5997 -1.4572
   37MOL   H23311825   4.115   5.195   3.491 -1.5237 -0.9381 -0.2241
   37MOL   H23411826   4.105   5.435   3.585  1.5108 -1.6830 -0.4038
   37MOL   H23511827   4.121   5.493   3.794  0.4575  0.2985 -0.6384
   37MOL   H23611828   4.058   5.365   3.978  0.0766 -1.0323 -1.3396
   37MOL   H23711829   4.007   5.515   4.032  0.1724 -0.8919  0.7506
   37MOL   H23811830   3.879   5.410   3.976 -0.6367  1.2729 -0.8820
   37MOL   H23911831   3.980   5.683   3.846  2.1373 -1.2175  0.5117
   37MOL   H24011832   3.834   5.594   3.787 -0.5422  0.6416  2.8087
   37MOL   H24111833   3.967   5.631   3.672 -0.5413 -1.0472 -0.0309
   37MOL   C24211834   3.903   5.388   3.512  0.3520 -0.1882 -0.0321
   37MOL   C24311835   3.935   5.460   3.377  0.4784  0.1252 -0.5467
   37MOL   O24411836   3.984   5.588   3.410 -0.3527 -0.2820 -0.1068
   37MOL   C24511837   4.074   5.632   3.309 -0.3636  0.1306 -0.8951
   37MOL   C24611838   4.052   5.778   3.307 -0.0123 -0.0817 -0.0840
   37MOL   C24711839   4.219   5.594   3.344 -0.0298  0.1665  0.1782
   37MOL   H24811840   3.847   5.295   3.497 -0.6923  0.4594 -0.2268
   37MOL   H24911841   3.835   5.459   3.558 -0.2999 -1.3401  0.8043
   37MOL   H25011842   4.016   5.400   3.334  0.5897 -0.9126  1.0589
   37MOL   H25111843   4.047   5.586   3.214 -0.2527 -1.2141 -0.2939
   37MOL   H25211844   4.119   5.822   3.232 -0.1069 -1.6194 -1.1068
   37MOL   H25311845   3.950   5.800   3.278  0.0797  2.1454  1.1657
   37MOL   H25411846   4.071   5.806   3.411 -0.1857 -0.8335  0.1505
   37MOL   H25511847   4.295   5.620   3.270 -0.4309 -0.4455 -0.4554
   37MOL   H25611848   4.241   5.657   3.430  1.3497  1.3238 -0.9898
   37MOL   H25711849   4.238   5.488   3.362 -0.0892  0.2392  0.6802
   37MOL   C25811850   3.810   5.463   3.289  0.0228 -0.2933 -0.3653
   37MOL   C25911851   3.777   5.334   3.210  0.3954 -0.0404  0.4477
   37MOL   O26011852   3.883   5.317   3.117  0.2349  0.0452 -0.5180
   37MOL   C26111853   3.921   5.193   3.063  0.4433  0.1965  0.0261
   37MOL   C26211854   4.010   5.219   2.942 -0.5911 -0.4864  0.0389
   37MOL   C26311855   3.993   5.109   3.163 -0.2860 -0.1389 -0.5120
   37MOL   H26411856   3.725   5.500   3.346  0.2474  0.1265 -0.3036
   37MOL   H26511857   3.812   5.542   3.214 -1.1382  1.6400  1.5936
   37MOL   H26611858   3.782   5.248   3.276 -0.2408 -1.0993 -0.8650
   37MOL   H26711859   3.829   5.145   3.028 -0.9384  0.3520  3.3043
   37MOL   H26811860   3.951   5.268   2.865  0.0828  0.8158  0.3373
   37MOL   H26911861   4.039   5.121   2.905  0.4366 -0.2525  0.2211
   37MOL   H27011862   4.098   5.279   2.967 -0.8106 -0.2943  0.3587
   37MOL   H27111863   3.921   5.070   3.236  0.2958  1.3705  0.8930
   37MOL   H27211864   4.052   5.029   3.118 -1.0156  0.1984 -2.0649
   37MOL   H27311865   4.066   5.169   3.218 -1.1272 -1.0998  1.7488
   37MOL   C27411866   3.644   5.328   3.129  0.5607  0.0286  0.4841
   37MOL   C27511867   3.509   5.365   3.205 -0.0893  0.6209 -0.0412
   37MOL   O27611868   3.419   5.364   3.098 -0.4260  0.1540  0.4268
   37MOL   C27711869   3.376   5.491   3.053  0.1611 -0.2445  0.9931
   37MOL   C27811870   3.287   5.545   3.155 -0.0421  0.7037  0.3949
   37MOL   C27911871   3.318   5.483   2.912 -0.2952  0.1236  0.0330
   37MOL   H28011872   3.654   5.389   3.040  2.6782  0.4586  0.9931
   37MOL   H28111873   3.631   5.227   3.092  0.7876  0.3200 -0.3983
   37MOL   H28211874   3.511   5.459   3.260 -0.0729  0.1049  0.8379
   37MOL   H28311875   3.466   5.554   3.053  0.3060 -0.4507 -0.1104
   37MOL   H28411876   3.223   5.467   3.197  2.3487 -2.1713 -1.1569
   37MOL   H28511877   3.339   5.584   3.243  1.6715 -1.4624  0.3740
   37MOL   H28611878   3.227   5.619   3.102 -2.6294 -0.9327  0.9143
   37MOL   H28711879   3.277   5.580   2.884  1.1397  0.9824  0.8550
   37MOL   H28811880   3.248   5.400   2.905  0.5026 -0.8678  3.1722
   37MOL   H28911881   3.389   5.457   2.833  0.6423  0.4252  0.7584
   37MOL   C29011882   3.438   5.257   3.295  0.0593  0.1839  0.1682
   37MOL   C29111883   3.535   5.200   3.410 -0.2004 -0.0883 -0.3666
   37MOL   O29211884   3.477   5.199   3.538 -0.2232  0.2430 -0.2879
   37MOL   C29311885   3.569   5.185   3.646  0.0093  0.1035 -0.9541
   37MOL   C29411886   3.498   5.081   3.736  0.4147  0.0298  0.3816
   37MOL   C29511887   3.577   5.321   3.721  0.2582 -0.7721 -0.0595
   37MOL   H29611888   3.404   5.172   3.236  2.0132  1.3992 -2.8523
   37MOL   H29711889   3.350   5.302   3.340 -2.5227 -1.2193 -3.2776
   37MOL   H29811890   3.613   5.275   3.424  0.4052 -0.9718  1.1397
   37MOL   H29911891   3.664   5.140   3.616  0.3635 -0.3284  0.7573
   37MOL   H30011892   3.502   5.101   3.843 -1.0861 -0.0591  0.4662
   37MOL   H30111893   3.391   5.089   3.716  0.5375 -0.3663 -0.4470
   37MOL   H30211894   3.512   4.976   3.711  2.0275  0.1599  0.7062
   37MOL   H30311895   3.647   5.327   3.804 -2.8764 -2.5972  2.8135
   37MOL   H30411896   3.612   5.402   3.657 -1.7996  1.8603  2.0298
   37MOL   H30511897   3.475   5.342   3.754  0.2368  0.7202 -1.0190
   37MOL   C30611898   3.597   5.066   3.376  0.0272 -0.8237 -0.4183
   37MOL   C30711899   3.507   4.946   3.397  0.0566  1.1205  0.1425
   37MOL   O30811900   3.575   4.822   3.399  0.3853 -0.0742  0.0425
   37MOL   C30911901   3.484   4.711   3.413  0.0497  0.4853  0.3669
   37MOL   C31011902   3.390   4.709   3.293 -0.1261  0.1321 -0.0875
   37MOL   C31111903   3.560   4.583   3.432  0.4302  0.0538  0.4876
   37MOL   H31211904   3.698   5.048   3.413  0.1504 -2.0986 -1.3496
   37MOL   H31311905   3.631   5.067   3.273 -0.2148  1.6153 -0.5144
   37MOL   H31411906   3.455   4.955   3.492  0.7799  3.2683  0.3559
   37MOL   H31511907   3.424   4.720   3.504 -0.1992  1.1071  0.1427
   37MOL   H31611908   3.312   4.785   3.297 -0.9832 -0.7622  0.3995
   37MOL   H31711909   3.353   4.609   3.269 -0.3313  0.2449 -0.2472
   37MOL   H31811910   3.443   4.726   3.200  0.1318  1.3101  0.2582
   37MOL   H31911911   3.506   4.489   3.449 -0.7224  0.3424 -1.4765
   37MOL   H32011912   3.608   4.592   3.530 -0.1850  0.9894  0.7085
   37MOL   H32111913   3.630   4.566   3.350  0.9177  0.9085  0.7255
   37MOL   H32211914   3.435   4.958   3.316 -0.3173  1.2599  0.4914
   38MOL     C111915   1.667   3.624   1.945 -0.3963 -0.1722  0.2538
   38MOL     C211916   1.727   3.483   1.995 -0.1730  0.3682 -0.7567
   38MOL     O311917   1.830   3.432   1.907  0.4803 -0.6257  0.2802
   38MOL     C411918   1.819   3.305   1.856  0.1164  0.1879  0.6077
   38MOL     C511919   1.956   3.257   1.812 -0.2118  0.2659  0.5977
   38MOL     C611920   1.709   3.311   1.744 -0.0618 -0.6172  0.1850
   38MOL     H711921   1.679   3.629   1.836 -1.3996 -3.9696 -0.1230
   38MOL     H811922   1.566   3.640   1.981 -1.0093 -0.4780 -1.2902
   38MOL     H911923   1.635   3.423   1.998 -1.6015  2.5711  1.7111
   38MOL    H1011924   1.767   3.247   1.931 -2.7406 -1.3365 -2.4344
   38MOL    H1111925   2.007   3.187   1.878 -0.7375 -1.1771 -0.5055
   38MOL    H1211926   1.947   3.187   1.729 -0.2644  0.7230  0.2130
   38MOL    H1311927   2.019   3.340   1.779  0.2940  0.9753  3.2165
   38MOL    H1411928   1.736   3.390   1.674 -0.0944 -0.7507  0.0211
   38MOL    H1511929   1.702   3.218   1.689 -0.4824 -0.5909  0.1938
   38MOL    H1611930   1.611   3.336   1.785 -0.8731 -2.1859 -0.7513
   38MOL    H1711931   1.730   3.710   1.966 -2.9466  1.6078  0.7503
   38MOL    C1811932   1.781   3.507   2.142  0.6234 -0.0143 -0.1712
   38MOL    C1911933   1.769   3.396   2.247  0.8072 -0.5168  0.8994
   38MOL    O2011934   1.781   3.465   2.373  0.4220 -0.0762  0.2383
   38MOL    C2111935   1.680   3.431   2.467 -0.5333 -0.0323 -0.9563
   38MOL    C2211936   1.545   3.497   2.423 -0.4352  0.1476 -0.0271
   38MOL    C2311937   1.737   3.466   2.597 -0.0371 -0.4981  0.2601
   38MOL    H2411938   1.887   3.534   2.142  0.7035 -0.2704  1.0566
   38MOL    H2511939   1.733   3.601   2.169  1.3561 -0.0383  1.2974
   38MOL    H2611940   1.676   3.346   2.219  0.6314 -0.0603  0.6595
   38MOL    H2711941   1.666   3.323   2.468 -1.6673  0.1244 -0.1152
   38MOL    H2811942   1.524   3.481   2.317  2.1792  1.0046 -0.6918
   38MOL    H2911943   1.462   3.449   2.476 -1.7772  0.6183 -1.6603
   38MOL    H3011944   1.540   3.601   2.454  0.2194 -0.5876  2.6826
   38MOL    H3111945   1.760   3.572   2.605  2.4300 -0.9400 -0.4179
   38MOL    H3211946   1.832   3.414   2.613 -1.3214 -3.2343 -0.6730
   38MOL    H3311947   1.678   3.440   2.684  1.7312  1.3679  2.0784
   38MOL    C3411948   1.880   3.287   2.233  0.0676  0.0527  0.5446
   38MOL    C3511949   1.872   3.170   2.328  0.4538 -0.6851 -0.2366
   38MOL    O3611950   1.757   3.101   2.289 -0.1930  0.0167  0.3559
   38MOL    C3711951   1.704   2.996   2.367 -0.6810 -0.1630 -0.4391
   38MOL    C3811952   1.670   3.038   2.511 -0.6337  0.0216  0.0807
   38MOL    C3911953   1.577   2.964   2.285 -0.5738 -0.0420 -0.4526
   38MOL    H4011954   1.975   3.337   2.245 -0.5343  1.6534 -1.0749
   38MOL    H4111955   1.884   3.244   2.133  0.8983 -1.4325  1.1957
   38MOL    H4211956   1.861   3.221   2.424  0.2082  1.5279 -1.4073
   38MOL    H4311957   1.769   2.909   2.377  0.1921  0.7835  2.4331
   38MOL    H4411958   1.600   3.120   2.493  1.8941  2.0016 -1.0934
   38MOL    H4511959   1.762   3.057   2.566  1.0617  0.6981 -2.8519
   38MOL    H4611960   1.608   2.965   2.561  0.8652 -1.0037  0.4673
   38MOL    H4711961   1.497   3.034   2.311 -0.3374  0.5119 -1.1973
   38MOL    H4811962   1.594   2.960   2.178 -1.7176 -0.5104 -0.6160
   38MOL    H4911963   1.545   2.864   2.313 -1.8493  0.3179 -0.6136
   38MOL    C5011964   2.000   3.086   2.328 -0.2838  0.9226  0.9598
   38MOL    C5111965   2.048   3.018   2.199 -0.1439  0.3577  0.2483
   38MOL    O5211966   1.959   2.906   2.182  0.0549 -0.2254  0.5822
   38MOL    C5311967   1.956   2.842   2.063 -0.4617 -0.2585  0.1231
   38MOL    C5411968   1.814   2.826   2.020  0.7260 -0.3497  0.6457
   38MOL    C5511969   2.026   2.711   2.075 -0.1757  0.0604  0.1084
   38MOL    H5611970   2.085   3.135   2.376  1.1714 -1.6088  1.0967
   38MOL    H5711971   1.981   3.004   2.398  1.0618 -1.8143 -1.7497
   38MOL    H5811972   2.034   3.089   2.118 -2.2165  1.2405  1.3363
   38MOL    H5911973   2.014   2.894   1.987 -0.2240 -1.3236 -0.4344
   38MOL    H6011974   1.761   2.798   2.111 -0.9943  0.2474 -0.1342
   38MOL    H6111975   1.805   2.746   1.946  2.3384  0.7747 -0.8072
   38MOL    H6211976   1.770   2.917   1.978  1.9796  0.4540  1.0626
   38MOL    H6311977   2.036   2.655   1.983  1.3534 -1.4253  1.1581
   38MOL    H6411978   1.983   2.646   2.151 -1.8970  0.5866 -0.3831
   38MOL    H6511979   2.126   2.721   2.117 -0.7153  0.6064  1.2994
   38MOL    C6611980   2.198   2.970   2.209 -0.9479  0.5286 -0.2024
   38MOL    C6711981   2.299   3.082   2.218  0.0323  0.6399 -0.5709
   38MOL    O6811982   2.337   3.127   2.084  0.1372  0.1431 -0.2200
   38MOL    C6911983   2.325   3.264   2.069  0.4056  0.2757 -0.2856
   38MOL    C7011984   2.434   3.343   2.148 -0.1476 -0.1481  0.2398
   38MOL    C7111985   2.335   3.290   1.925 -0.6765 -0.6876  0.0531
   38MOL    H7211986   2.194   2.894   2.287 -1.3538  0.1391 -0.6046
   38MOL    H7311987   2.229   2.919   2.117 -0.0790  1.5827 -0.5083
   38MOL    H7411988   2.257   3.153   2.289 -0.5893  1.6113 -1.8968
   38MOL    H7511989   2.223   3.295   2.092  0.1720  0.0515 -1.0129
   38MOL    H7611990   2.404   3.342   2.252 -0.0329  0.6915  0.2908
   38MOL    H7711991   2.531   3.294   2.149  1.1883  2.3607 -0.6642
   38MOL    H7811992   2.436   3.451   2.130 -1.0022 -0.1087  0.3736
   38MOL    H7911993   2.323   3.398   1.912 -0.8747 -0.4721  1.8643
   38MOL    H8011994   2.257   3.233   1.874  1.2301 -3.1316 -0.1918
   38MOL    H8111995   2.431   3.261   1.882 -0.8345 -0.4177 -0.4904
   38MOL    C8211996   2.418   3.026   2.296 -0.1485 -0.3339  0.0752
   38MOL    C8311997   2.386   3.013   2.449  0.2749 -0.7116 -0.2403
   38MOL    O8411998   2.486   2.923   2.505 -0.1516 -0.2279 -0.1680
   38MOL    C8511999   2.455   2.788   2.496  0.4124 -0.4033  0.2884
   38MOL    C8612000   2.344   2.721   2.579 -0.4934 -0.6080  0.2255
   38MOL    C8712001   2.587   2.722   2.529  0.9092  0.2715  0.2471
   38MOL    H8812002   2.437   2.929   2.250 -2.5394 -0.5637 -0.5077
   38MOL    H8912003   2.516   3.067   2.274 -1.1457  1.5023 -1.0767
   38MOL    H9012004   2.284   2.978   2.467 -0.8981  0.4929 -4.0435
   38MOL    H9112005   2.428   2.758   2.394 -3.8096 -2.4147  1.8617
   38MOL    H9212006   2.356   2.749   2.684  2.0391 -0.5463 -0.0418
   38MOL    H9312007   2.250   2.765   2.548  0.1493 -0.0251 -0.9322
   38MOL    H9412008   2.344   2.614   2.557  2.3921  0.0167 -3.2227
   38MOL    H9512009   2.599   2.633   2.467 -0.3955  1.4973 -1.8392
   38MOL    H9612010   2.666   2.791   2.501  0.9043 -0.1326 -0.7617
   38MOL    H9712011   2.590   2.698   2.636 -2.1418 -0.9122  0.1271
   38MOL    C9812012   2.433   3.145   2.521 -0.0945 -0.0182  0.3609
   38MOL    C9912013   2.366   3.182   2.659  0.2966  0.1405  0.4045
   38MOL   O10012014   2.360   3.322   2.680 -0.8310 -0.1888 -0.3284
   38MOL   C10112015   2.271   3.400   2.601  0.3842 -0.0732  0.1533
   38MOL   C10212016   2.327   3.542   2.595  0.8518 -0.1901 -0.4706
   38MOL   C10312017   2.128   3.383   2.670 -0.1701 -0.1940  0.5034
   38MOL   H10412018   2.540   3.157   2.537 -0.1026 -0.4615  0.7617
   38MOL   H10512019   2.405   3.225   2.453 -0.3715 -0.0378  0.4525
   38MOL   H10612020   2.259   3.158   2.661  0.7513 -2.0864 -0.6508
   38MOL   H10712021   2.257   3.360   2.501 -1.6869 -0.8395  0.7384
   38MOL   H10812022   2.254   3.610   2.549  1.0348 -0.8131 -1.6997
   38MOL   H10912023   2.427   3.550   2.552  0.9857  2.0880  0.1733
   38MOL   H11012024   2.343   3.585   2.694 -0.8275  0.9728 -0.6831
   38MOL   H11112025   2.124   3.446   2.759  0.1175 -0.0080  0.3843
   38MOL   H11212026   2.098   3.287   2.713  0.6059  0.4093  2.4500
   38MOL   H11312027   2.047   3.419   2.608  1.7669  1.8288 -0.9193
   38MOL   C11412028   2.439   3.110   2.774  0.2901 -0.5103 -0.0302
   38MOL   C11512029   2.373   3.102   2.915  0.4005  0.1202  0.3870
   38MOL   O11612030   2.307   2.978   2.922 -0.3822  0.0770 -0.1522
   38MOL   C11712031   2.179   2.981   2.982 -0.1070 -0.1906 -0.3359
   38MOL   C11812032   2.125   2.831   2.974  0.0671 -0.5649 -0.2569
   38MOL   C11912033   2.077   3.062   2.904 -0.3868  0.1981  0.4299
   38MOL   H12012034   2.530   3.169   2.781  1.0790 -2.0084  3.5511
   38MOL   H12112035   2.463   3.010   2.739  0.9490 -0.7645  1.1262
   38MOL   H12212036   2.294   3.176   2.923  0.2397  0.1932 -1.6098
   38MOL   H12312037   2.193   3.008   3.087  3.4571 -1.3734 -0.4245
   38MOL   H12412038   2.177   2.770   3.048  1.3707  0.0487 -0.6425
   38MOL   H12512039   2.139   2.787   2.875  1.8011 -0.6026 -0.0066
   38MOL   H12612040   2.024   2.824   3.014  0.0001 -0.6492 -0.4400
   38MOL   H12712041   1.980   3.024   2.937 -1.0233  1.1376 -0.3408
   38MOL   H12812042   2.082   3.052   2.796  0.0921  0.2298  0.4461
   38MOL   H12912043   2.064   3.167   2.929 -1.0331  0.3792 -0.6454
   38MOL   C13012044   2.469   3.110   3.039  0.2028 -0.0763 -0.0240
   38MOL   C13112045   2.468   3.251   3.105  0.4441  0.5476  0.7688
   38MOL   O13212046   2.574   3.261   3.203  0.2336  0.2848  0.1966
   38MOL   C13312047   2.698   3.291   3.147  0.7760 -0.6455  0.4376
   38MOL   C13412048   2.706   3.442   3.155 -0.7435  0.0415 -0.5149
   38MOL   C13512049   2.796   3.221   3.238 -0.8946  0.4841  0.2848
   38MOL   H13612050   2.564   3.063   3.013  1.1661  0.1615  2.9748
   38MOL   H13712051   2.443   3.045   3.122  4.1546  0.2750  1.6141
   38MOL   H13812052   2.467   3.330   3.029 -1.5308 -1.7927 -1.7565
   38MOL   H13912053   2.708   3.256   3.045 -2.1608  1.7373 -0.7750
   38MOL   H14012054   2.809   3.470   3.133 -0.7203  0.8654  0.6014
   38MOL   H14112055   2.691   3.473   3.259  0.6006 -0.5848 -0.1122
   38MOL   H14212056   2.653   3.500   3.079  1.6826  0.7788 -1.7035
   38MOL   H14312057   2.901   3.232   3.212 -1.0925 -0.7695 -1.1027
   38MOL   H14412058   2.798   3.259   3.340 -2.0870 -1.7790  1.1806
   38MOL   H14512059   2.764   3.118   3.252 -1.3264  0.7347  1.1114
   38MOL   C14612060   2.345   3.265   3.195  0.2584  0.5873 -1.2644
   38MOL   C14712061   2.316   3.407   3.249  0.7765 -0.1121 -0.2154
   38MOL   O14812062   2.238   3.480   3.151  0.2429 -0.4469 -0.2164
   38MOL   C14912063   2.259   3.622   3.159 -0.4641 -0.0937 -0.3106
   38MOL   C15012064   2.125   3.695   3.141 -0.6952 -0.2183 -0.4230
   38MOL   C15112065   2.366   3.672   3.057  0.4514  0.1251 -0.8714
   38MOL   H15212066   2.361   3.192   3.274 -0.2171  0.9697 -0.8126
   38MOL   H15312067   2.260   3.216   3.148  1.9551 -2.3990 -1.3361
   38MOL   H15412068   2.405   3.465   3.275  1.5003 -0.9133 -0.9060
   38MOL   H15512069   2.309   3.657   3.248  0.7069 -0.9829 -0.6034
   38MOL   H15612070   2.080   3.678   3.043 -1.6525  1.4741 -0.2799
   38MOL   H15712071   2.148   3.801   3.149  1.1160 -0.8125  3.0186
   38MOL   H15812072   2.061   3.674   3.226  1.6463 -0.6602  1.2811
   38MOL   H15912073   2.313   3.676   2.962 -0.4376  3.1449 -0.3172
   38MOL   H16012074   2.451   3.605   3.044  0.9442  0.9426 -1.8953
   38MOL   H16112075   2.410   3.766   3.091  0.8153 -1.4014  3.2997
   38MOL   C16212076   2.230   3.412   3.384 -0.0512  0.6606 -0.3016
   38MOL   C16312077   2.319   3.410   3.513  0.8048 -0.2175 -0.1398
   38MOL   O16412078   2.310   3.545   3.564 -0.3353  0.6075  0.2145
   38MOL   C16512079   2.428   3.608   3.615  0.2210 -0.2496 -0.1003
   38MOL   C16612080   2.385   3.713   3.717  0.2127 -0.1914 -0.0559
   38MOL   C16712081   2.506   3.674   3.496  0.9076 -0.3538 -0.2562
   38MOL   H16812082   2.169   3.502   3.378 -2.4348 -0.9131 -0.0118
   38MOL   H16912083   2.159   3.329   3.383  0.3341  0.2679  1.6329
   38MOL   H17012084   2.425   3.398   3.490  0.7700 -1.4430  0.2989
   38MOL   H17112085   2.490   3.541   3.676  1.4233 -0.3395 -1.4077
   38MOL   H17212086   2.314   3.784   3.675 -0.6523  0.0160  1.6968
   38MOL   H17312087   2.475   3.762   3.753  0.2633  0.7046 -1.3600
   38MOL   H17412088   2.325   3.657   3.788  0.5266 -1.5523 -0.8500
   38MOL   H17512089   2.537   3.602   3.421 -0.8641 -1.1181 -0.2825
   38MOL   H17612090   2.594   3.710   3.550  1.0067 -0.7445 -0.1560
   38MOL   H17712091   2.464   3.762   3.447 -0.4132 -0.0534  1.3678
   38MOL   C17812092   2.271   3.325   3.631 -0.8979 -0.3796  0.3084
   38MOL   C17912093   2.266   3.174   3.616  0.3599 -0.6762 -0.1613
   38MOL   O18012094   2.386   3.118   3.662 -0.1593 -0.0369 -0.5121
   38MOL   C18112095   2.505   3.148   3.585 -0.2967 -1.3673  0.0654
   38MOL   C18212096   2.576   3.022   3.546  0.2377 -0.7854 -0.3082
   38MOL   C18312097   2.597   3.225   3.677  0.2108 -0.0317 -0.5674
   38MOL   H18412098   2.170   3.363   3.646 -1.4261 -1.0456 -1.4281
   38MOL   H18512099   2.325   3.358   3.720 -0.1477 -0.0853 -0.2479
   38MOL   H18612100   2.247   3.156   3.511  2.0215  0.1492 -0.6240
   38MOL   H18712101   2.481   3.209   3.498 -0.6377 -1.2638  0.2297
   38MOL   H18812102   2.508   2.974   3.475  0.7712 -1.7636 -0.1711
   38MOL   H18912103   2.590   2.943   3.619 -0.6743 -2.1449 -1.5657
   38MOL   H19012104   2.671   3.043   3.497 -0.5927  0.7397 -1.3104
   38MOL   H19112105   2.624   3.157   3.758 -0.5002  0.0876 -0.2257
   38MOL   H19212106   2.547   3.315   3.713 -0.7123 -0.4713 -0.7151
   38MOL   H19312107   2.687   3.269   3.636 -0.3127  1.1629 -0.4423
   38MOL   C19412108   2.146   3.112   3.694 -0.1253 -1.0197 -0.5941
   38MOL   C19512109   2.116   2.971   3.661 -0.1553  0.6766  0.0959
   38MOL   O19612110   2.081   2.971   3.520 -0.5247  0.1913 -0.0549
   38MOL   C19712111   2.076   2.849   3.452  0.2238 -0.3427 -0.8973
   38MOL   C19812112   1.967   2.851   3.347  0.7186  0.3718 -0.7887
   38MOL   C19912113   2.214   2.842   3.384 -1.2345  1.2147 -0.0168
   38MOL   H20012114   2.179   3.117   3.798 -0.3343  0.1302 -0.5806
   38MOL   H20112115   2.060   3.176   3.676  1.3995  1.0065 -0.8337
   38MOL   H20212116   2.208   2.917   3.684  1.0371  1.9276 -1.5715
   38MOL   H20312117   2.067   2.763   3.518  0.1733 -0.2781 -0.8211
   38MOL   H20412118   1.966   2.757   3.293 -1.7849 -0.2791  0.3692
   38MOL   H20512119   1.868   2.884   3.376  1.0049  1.2024 -0.7166
   38MOL   H20612120   2.004   2.913   3.264  0.6721 -1.0034 -1.8611
   38MOL   H20712121   2.248   2.940   3.351  1.8011 -0.0077 -0.7023
   38MOL   H20812122   2.289   2.797   3.449 -0.0631 -1.9426 -3.3534
   38MOL   H20912123   2.194   2.778   3.297 -0.3561  1.3452 -0.3155
   38MOL   C21012124   1.991   2.907   3.739  0.2534  0.2488 -0.5696
   38MOL   C21112125   2.006   2.905   3.894 -0.4867 -0.5669  0.1488
   38MOL   O21212126   1.870   2.875   3.926 -0.3517  0.3332  0.2021
   38MOL   C21312127   1.813   2.987   3.994  0.1749  0.4104  0.2691
   38MOL   C21412128   1.748   3.082   3.900 -0.3894  0.7027  0.4630
   38MOL   C21512129   1.711   2.924   4.092  0.1536 -0.0382  0.0677
   38MOL   H21612130   1.961   2.809   3.704 -1.2726  0.4169  0.2439
   38MOL   H21712131   1.906   2.967   3.707 -0.4700 -0.5287 -0.1130
   38MOL   H21812132   2.039   3.001   3.933 -1.2216 -0.2785  0.0806
   38MOL   H21912133   1.885   3.042   4.054  1.0520  0.9978 -1.2863
   38MOL   H22012134   1.676   3.039   3.830  0.5761 -0.6790  0.2762
   38MOL   H22112135   1.831   3.125   3.843 -0.6025 -1.1126 -1.3074
   38MOL   H22212136   1.712   3.172   3.949 -0.9820  0.0038  1.3204
   38MOL   H22312137   1.631   2.874   4.038  1.6883 -2.6847  0.1732
   38MOL   H22412138   1.673   2.996   4.166 -2.5129 -0.7703 -0.5462
   38MOL   H22512139   1.746   2.838   4.149 -1.0684 -0.4814  0.1524
   38MOL   C22612140   2.095   2.784   3.929  0.4979  0.1998 -0.4673
   38MOL   C22712141   2.126   2.773   4.078  0.2198  0.2419  0.0108
   38MOL   O22812142   2.207   2.879   4.109 -0.6242 -0.2476  0.3699
   38MOL   C22912143   2.207   2.935   4.245 -0.1093 -0.3274 -0.4246
   38MOL   C23012144   2.092   3.035   4.258  0.2158 -0.1900  0.4544
   38MOL   C23112145   2.339   2.990   4.291  0.2705  0.1653  0.3437
   38MOL   H23212146   2.198   2.793   3.893  0.7467  0.2831  0.2731
   38MOL   H23312147   2.058   2.690   3.889  1.8509 -0.5346 -0.0059
   38MOL   H23412148   2.036   2.769   4.140  0.0390 -1.6946 -0.3399
   38MOL   H23512149   2.193   2.848   4.310  1.0496 -0.3563 -0.2199
   38MOL   H23612150   2.010   2.985   4.206  0.2566  1.9433 -1.7506
   38MOL   H23712151   2.071   3.076   4.357 -1.2482  0.3788 -0.0791
   38MOL   H23812152   2.122   3.125   4.205  0.7829  0.6126  2.1078
   38MOL   H23912153   2.410   2.908   4.288 -0.9699 -0.9517  1.0592
   38MOL   H24012154   2.332   3.034   4.391 -2.8039  0.6077 -0.0189
   38MOL   H24112155   2.366   3.068   4.220 -1.4149 -2.2394 -3.0356
   38MOL   C24212156   2.214   2.648   4.111 -0.0549  0.1377 -0.4539
   38MOL   C24312157   2.185   2.509   4.062 -0.3071 -0.3797 -0.6166
   38MOL   O24412158   2.066   2.465   4.129  0.3383  0.2047  0.2993
   38MOL   C24512159   2.003   2.355   4.064  0.7372  0.6541  0.1854
   38MOL   C24612160   1.933   2.277   4.179 -0.2592 -0.3442  0.4823
   38MOL   C24712161   1.898   2.431   3.966  0.1549  0.3583 -0.0641
   38MOL   H24812162   2.317   2.666   4.081  0.2408 -1.0579 -0.1745
   38MOL   H24912163   2.205   2.648   4.220  2.0310 -1.5223 -0.2558
   38MOL   H25012164   2.173   2.511   3.954 -2.7872 -0.4944 -0.3800
   38MOL   H25112165   2.065   2.292   4.001  1.3206  2.3431 -0.9513
   38MOL   H25212166   1.840   2.235   4.140 -0.2101  1.5781 -1.8436
   38MOL   H25312167   2.001   2.204   4.222 -0.8592 -0.5711  1.0681
   38MOL   H25412168   1.911   2.342   4.263  0.7996 -0.9399  1.2237
   38MOL   H25512169   1.857   2.509   4.031  0.4402 -0.1495  0.7297
   38MOL   H25612170   1.949   2.490   3.889 -0.8547  0.2976 -0.7943
   38MOL   H25712171   1.833   2.353   3.928  0.5003 -0.2969  0.6726
   38MOL   C25812172   2.297   2.402   4.084  1.1457  0.0515 -0.3521
   38MOL   C25912173   2.344   2.342   3.952  0.6527  0.0635  0.0572
   38MOL   O26012174   2.431   2.238   3.976 -0.3755  0.0835  0.9189
   38MOL   C26112175   2.364   2.110   3.995 -0.5419 -0.0614  0.3177
   38MOL   C26212176   2.378   2.022   3.870 -0.1708  0.0520 -0.2149
   38MOL   C26312177   2.403   2.045   4.125 -0.3161 -0.7918  0.2297
   38MOL   H26412178   2.385   2.447   4.130  0.9380  1.8287 -1.6318
   38MOL   H26512179   2.259   2.324   4.150  2.0370 -1.0200 -1.0733
   38MOL   H26612180   2.254   2.315   3.896  0.3584  2.0624 -0.4736
   38MOL   H26712181   2.259   2.133   4.014 -1.1016 -0.3936 -2.1496
   38MOL   H26812182   2.482   2.000   3.848 -0.2512 -0.3831 -0.1714
   38MOL   H26912183   2.328   2.063   3.782  0.8154  0.5005 -0.5693
   38MOL   H27012184   2.324   1.928   3.879  0.9356 -0.4354  1.5124
   38MOL   H27112185   2.355   1.950   4.145 -0.7489 -0.8363 -0.9926
   38MOL   H27212186   2.509   2.020   4.130 -0.1752 -0.2101  0.2998
   38MOL   H27312187   2.372   2.103   4.212 -0.6516 -1.4628  0.5587
   38MOL   C27412188   2.415   2.446   3.862  0.3571  0.2109 -0.1306
   38MOL   C27512189   2.478   2.386   3.731 -0.1008  0.1043  0.0843
   38MOL   O27612190   2.384   2.400   3.624 -0.4829  0.2628  0.1128
   38MOL   C27712191   2.293   2.300   3.595  0.2545 -0.1495  0.3547
   38MOL   C27812192   2.354   2.218   3.483 -1.0380  0.4489 -0.3033
   38MOL   C27912193   2.162   2.374   3.551 -0.1360  0.2686 -0.0476
   38MOL   H28012194   2.352   2.530   3.833 -1.3107 -0.4741  1.3727
   38MOL   H28112195   2.489   2.500   3.922  0.5405 -2.6785  2.3744
   38MOL   H28212196   2.504   2.280   3.731  1.1599  0.4017 -1.0466
   38MOL   H28312197   2.277   2.246   3.688 -1.0914  1.9902  1.4013
   38MOL   H28412198   2.372   2.283   3.397 -1.3943  0.2183 -0.5546
   38MOL   H28512199   2.449   2.167   3.499 -0.5339  0.7754 -2.1968
   38MOL   H28612200   2.281   2.143   3.453 -2.2760  2.8405 -3.5954
   38MOL   H28712201   2.182   2.441   3.468 -0.2709  0.1226 -0.1965
   38MOL   H28812202   2.099   2.414   3.630  1.2630  2.0129  0.2241
   38MOL   H28912203   2.108   2.291   3.505  1.3956 -1.8295  1.8029
   38MOL   C29012204   2.615   2.449   3.690 -0.4196  0.4803 -0.1833
   38MOL   C29112205   2.732   2.435   3.786 -0.4576  0.1131 -0.2310
   38MOL   O29212206   2.778   2.303   3.767 -0.1358  0.2723 -0.2472
   38MOL   C29312207   2.771   2.225   3.882 -0.3418  0.6898 -0.4466
   38MOL   C29412208   2.894   2.264   3.969 -0.0796  0.6257 -0.3759
   38MOL   C29512209   2.779   2.078   3.844 -0.5504  0.6655 -0.2980
   38MOL   H29612210   2.595   2.556   3.693 -0.7098  0.4964 -1.9681
   38MOL   H29712211   2.662   2.419   3.596 -0.9614  0.2843 -0.4000
   38MOL   H29812212   2.701   2.443   3.890 -0.3069 -4.4221  0.2246
   38MOL   H29912213   2.678   2.242   3.936  0.0097 -0.0542  0.3930
   38MOL   H30012214   2.985   2.223   3.926 -0.7943 -0.6559 -0.6928
   38MOL   H30112215   2.905   2.370   3.994  0.4271  0.4218  0.2675
   38MOL   H30212216   2.882   2.203   4.059 -1.6428 -0.2356 -1.1422
   38MOL   H30312217   2.868   2.058   3.784 -0.5655  0.8998 -0.4005
   38MOL   H30412218   2.766   2.022   3.937 -1.8359  1.7104  0.1749
   38MOL   H30512219   2.691   2.060   3.783 -1.8061  0.6614  1.4731
   38MOL   C30612220   2.843   2.541   3.757 -0.5911  0.6133  1.0110
   38MOL   C30712221   2.800   2.693   3.771  0.4327  0.1019  0.2434
   38MOL   O30812222   2.734   2.712   3.895 -0.1900  0.6099  0.6622
   38MOL   C30912223   2.684   2.847   3.909 -0.2893 -0.6212 -0.4169
   38MOL   C31012224   2.536   2.839   3.875 -0.2814  0.7485  0.0771
   38MOL   C31112225   2.703   2.882   4.059 -0.3410  0.4222 -1.2105
   38MOL   H31212226   2.877   2.531   3.654  0.3377 -0.3405  1.4040
   38MOL   H31312227   2.932   2.526   3.818  0.7632 -0.3474 -1.1354
   38MOL   H31412228   2.885   2.762   3.763 -0.0226  0.7661  1.1310
   38MOL   H31512229   2.739   2.915   3.843 -0.0263  0.9561  1.3824
   38MOL   H31612230   2.486   2.935   3.882 -2.4090 -0.1738 -1.6846
   38MOL   H31712231   2.478   2.765   3.930  2.1190 -0.8539  0.5322
   38MOL   H31812232   2.522   2.818   3.769  0.9961  2.5062 -0.4499
   38MOL   H31912233   2.670   2.985   4.070  0.6300  0.7390 -1.2206
   38MOL   H32012234   2.806   2.868   4.090 -1.1781 -1.3185  0.9407
   38MOL   H32112235   2.637   2.826   4.125 -0.5008  1.0099 -0.8716
   38MOL   H32212236   2.734   2.728   3.691 -0.1219  0.3756  0.8188
   39MOL     C112237   7.255   0.289   3.076  0.7982  0.0564 -0.4838
   39MOL     C212238   7.188   0.163   3.021  0.5428 -0.8544 -0.1033
   39MOL     O312239   7.175   0.089   3.136  0.5422 -0.1677  0.3225
   39MOL     C412240   7.289   0.022   3.195  0.1135 -0.1813  0.5753
   39MOL     C512241   7.301   7.707   3.129 -0.0882  0.2555  0.0805
   39MOL     C612242   7.263   7.819   3.344  0.1073 -0.0305  0.0774
   39MOL     H712243   7.277   0.355   2.993  1.9007 -1.8598 -1.7533
   39MOL     H812244   7.182   0.339   3.139 -0.9372  0.1009 -2.4712
   39MOL     H912245   7.255   0.121   2.945 -0.4914 -0.4634 -1.2376
   39MOL    H1012246   7.380   0.082   3.189  0.0688 -0.2814 -1.5706
   39MOL    H1112247   7.381   7.647   3.172 -2.1430 -1.8969  0.9980
   39MOL    H1212248   7.206   7.654   3.132  1.1617 -2.0148  0.9670
   39MOL    H1312249   7.340   7.726   3.029 -0.3781  0.1596 -0.0525
   39MOL    H1412250   7.263   0.095   3.396 -0.6949  0.3268 -0.5690
   39MOL    H1512251   7.171   7.762   3.363  0.1541  0.8026  3.1257
   39MOL    H1612252   7.342   7.765   3.396 -0.2132 -2.0374 -1.4857
   39MOL    H1712253   7.350   0.275   3.128  1.0963  1.1739 -0.7257
   39MOL    C1812254   7.048   0.186   2.964  0.4175  0.6989 -0.1351
   39MOL    C1912255   7.011   0.074   2.867  0.3334 -0.1512  0.4592
   39MOL    O2012256   6.898   0.114   2.778  0.2498 -0.0862  0.2534
   39MOL    C2112257   6.941   0.197   2.668  0.2387 -0.0234 -0.0611
   39MOL    C2212258   6.847   0.319   2.659 -0.0827  0.0072  0.5160
   39MOL    C2312259   6.945   0.124   2.539 -0.7445  0.3254  0.6612
   39MOL    H2412260   6.966   0.213   3.031 -0.2621  1.3752 -1.2145
   39MOL    H2512261   7.055   0.282   2.912 -3.5651  1.4079  0.4882
   39MOL    H2612262   7.089   0.066   2.792 -0.4332 -0.5057 -0.2985
   39MOL    H2712263   7.042   0.238   2.676  0.0231  0.6117 -0.6570
   39MOL    H2812264   6.814   0.358   2.756  1.4715 -2.3602  2.0406
   39MOL    H2912265   6.895   0.393   2.596  2.5559 -1.9582  0.1316
   39MOL    H3012266   6.751   0.303   2.611 -0.6428  1.7522  1.0110
   39MOL    H3112267   7.030   0.057   2.538 -1.6182 -0.7825 -1.5029
   39MOL    H3212268   6.952   0.197   2.458 -0.5501 -0.2622  0.1389
   39MOL    H3312269   6.853   0.075   2.508 -0.1403 -0.0669 -0.5668
   39MOL    C3412270   6.984   7.761   2.931 -0.0143 -0.5564 -0.4098
   39MOL    C3512271   7.034   7.631   2.865 -0.4500  0.0382  0.0068
   39MOL    O3612272   7.175   7.633   2.863 -0.2028 -0.0693  0.2300
   39MOL    C3712273   7.227   7.568   2.744 -0.0177  0.1556 -0.1746
   39MOL    C3812274   7.308   7.682   2.675  0.3546  0.0118  0.4249
   39MOL    C3912275   7.322   7.477   2.815 -0.0898 -0.9183 -0.6450
   39MOL    H4012276   6.875   7.752   2.930 -0.1215  0.3722  1.0136
   39MOL    H4112277   7.000   7.761   3.039  1.1298  0.1231 -0.5708
   39MOL    H4212278   6.991   7.615   2.766 -1.4347  0.5836  0.3360
   39MOL    H4312279   7.164   7.514   2.672  0.0221  0.5217 -0.4878
   39MOL    H4412280   7.365   7.744   2.744  0.4852  0.8371 -0.4115
   39MOL    H4512281   7.244   7.757   2.628  2.4821  0.3488 -2.0766
   39MOL    H4612282   7.374   7.635   2.602  1.1624 -2.3659  2.5918
   39MOL    H4712283   7.283   7.387   2.864 -1.6543 -1.0668 -2.1264
   39MOL    H4812284   7.393   7.447   2.738 -1.0243 -0.6150 -1.6322
   39MOL    H4912285   7.374   7.538   2.888 -1.0768  1.5674 -1.9747
   39MOL    C5012286   7.001   7.506   2.952 -0.0233 -0.5449  0.2460
   39MOL    C5112287   6.985   7.367   2.889  0.2008 -0.2213  0.4933
   39MOL    O5212288   6.849   7.370   2.840  0.2750  0.0535 -0.2898
   39MOL    C5312289   6.834   7.358   2.698 -0.0406  0.2389 -0.2037
   39MOL    C5412290   6.690   7.391   2.666 -0.0127 -0.1468  0.3730
   39MOL    C5512291   6.859   7.216   2.645  0.3272  0.3983  0.3067
   39MOL    H5612292   7.076   7.506   3.032 -0.3306  1.3623  0.5564
   39MOL    H5712293   6.907   7.533   2.998  1.2743  2.2434  1.3422
   39MOL    H5812294   7.058   7.346   2.811  0.2301  0.5688  0.3078
   39MOL    H5912295   6.891   7.424   2.633  1.6965  0.0878  1.1053
   39MOL    H6012296   6.685   7.498   2.686  0.1453  0.1405 -1.0667
   39MOL    H6112297   6.624   7.341   2.737 -1.2662  0.6758 -0.1975
   39MOL    H6212298   6.660   7.377   2.563  1.2875  0.3558 -0.0926
   39MOL    H6312299   6.799   7.139   2.694 -0.5668 -0.0811 -1.4923
   39MOL    H6412300   6.967   7.203   2.651  0.2869 -0.6039 -0.8303
   39MOL    H6512301   6.836   7.222   2.538  1.6368  1.7606  0.0848
   39MOL    C6612302   6.986   7.262   3.001 -0.6112 -0.2373 -0.3801
   39MOL    C6712303   6.950   7.119   2.966  0.0290  0.2824  0.1749
   39MOL    O6812304   6.910   7.044   3.083 -0.7661  0.4942  0.1430
   39MOL    C6912305   6.778   7.005   3.096 -0.1151 -0.6856 -0.0237
   39MOL    C7012306   6.778   6.917   3.221  0.1103 -0.2547  0.1675
   39MOL    C7112307   6.677   7.127   3.097 -0.3234  0.0298  0.5982
   39MOL    H7212308   7.080   7.270   3.055  0.3269 -2.0873 -1.6847
   39MOL    H7312309   6.913   7.283   3.079  0.0872  0.4377  0.0987
   39MOL    H7412310   6.871   7.115   2.891 -0.1272  4.3699  0.0133
   39MOL    H7512311   6.751   6.943   3.011 -0.6159 -1.0908  0.4285
   39MOL    H7612312   6.678   6.876   3.238  0.5278 -2.3790 -2.2926
   39MOL    H7712313   6.862   6.849   3.211 -1.9381 -2.3960 -3.1551
   39MOL    H7812314   6.795   6.977   3.311 -0.8585 -1.9973  1.5590
   39MOL    H7912315   6.697   7.178   3.003 -2.2086 -0.5118 -0.1308
   39MOL    H8012316   6.698   7.183   3.188 -2.5039 -0.4721  1.4618
   39MOL    H8112317   6.571   7.100   3.095 -0.4006  0.3787 -1.1814
   39MOL    C8212318   7.072   7.058   2.895 -0.3716 -0.0886  0.3485
   39MOL    C8312319   7.042   6.908   2.860  0.0764 -0.4570  0.6940
   39MOL    O8412320   6.987   6.901   2.728  0.6853  0.1715 -1.2960
   39MOL    C8512321   6.933   6.776   2.670  0.2007 -0.5523  0.5855
   39MOL    C8612322   6.907   6.796   2.522 -0.0192 -0.4040  0.8199
   39MOL    C8712323   6.818   6.729   2.748 -0.4324  0.2919 -0.3727
   39MOL    H8812324   7.104   7.116   2.809  0.7067 -0.5440  0.4249
   39MOL    H8912325   7.157   7.056   2.964 -1.4394  1.5004  1.7420
   39MOL    H9012326   6.977   6.860   2.934  0.1667 -1.7055 -0.0186
   39MOL    H9112327   7.010   6.700   2.679  0.7437  0.1030  1.5306
   39MOL    H9212328   6.867   6.706   2.476  1.9071 -2.5847  3.2774
   39MOL    H9312329   6.837   6.879   2.510 -0.0886 -0.8725 -2.5688
   39MOL    H9412330   7.004   6.816   2.478 -0.3598  2.7544  1.3451
   39MOL    H9512331   6.751   6.815   2.755 -0.5230  0.2444 -0.6720
   39MOL    H9612332   6.770   6.653   2.688  1.3924 -1.5183  0.3752
   39MOL    H9712333   6.843   6.704   2.852 -2.2288  1.7823  0.4539
   39MOL    C9812334   7.173   6.817   2.852 -0.6193  0.4600 -0.2505
   39MOL    C9912335   7.263   6.810   2.984  0.4930 -0.0231  0.0697
   39MOL   O10012336   7.348   6.697   2.977 -0.0917  0.3083 -0.3796
   39MOL   C10112337   7.470   6.717   3.048  0.5501  0.1839  0.3726
   39MOL   C10212338   7.581   6.748   2.944  0.0788 -0.2801  0.0504
   39MOL   C10312339   7.493   6.588   3.122  0.0757  0.3507  0.5642
   39MOL   H10412340   7.141   6.714   2.839  0.5553 -0.0358  0.7054
   39MOL   H10512341   7.225   6.851   2.763  0.7730 -2.4288 -0.5706
   39MOL   H10612342   7.325   6.900   2.994  2.5336 -1.1316 -2.2641
   39MOL   H10712343   7.459   6.801   3.116 -1.5209 -1.0547  1.6420
   39MOL   H10812344   7.676   6.748   2.998  0.0313 -0.4652  0.1322
   39MOL   H10912345   7.570   6.841   2.888  0.0578 -0.6797 -0.6096
   39MOL   H11012346   7.580   6.661   2.879 -1.0739 -0.5231  0.3974
   39MOL   H11112347   7.476   6.500   3.060  1.3675 -1.0828  2.1939
   39MOL   H11212348   7.435   6.581   3.214  0.6924  0.0701  0.9354
   39MOL   H11312349   7.600   6.596   3.139  0.0178 -0.0776  1.1707
   39MOL   C11412350   7.181   6.789   3.114  0.5479  0.0280 -0.1629
   39MOL   C11512351   7.235   6.850   3.247  0.4796 -0.2126 -0.2258
   39MOL   O11612352   7.258   6.984   3.210 -0.3613  0.6933 -0.2425
   39MOL   C11712353   7.388   7.043   3.256  0.1637  0.3730  0.3028
   39MOL   C11812354   7.393   7.066   3.413 -0.0386 -0.3889 -0.2136
   39MOL   C11912355   7.407   7.179   3.181 -0.3448  0.5816 -0.1600
   39MOL   H12012356   7.150   6.684   3.113  1.5582 -0.2960  0.5251
   39MOL   H12112357   7.086   6.840   3.105  0.5097 -0.0124  0.0039
   39MOL   H12212358   7.332   6.809   3.276  0.0780 -1.0676 -0.0687
   39MOL   H12312359   7.475   6.990   3.217  1.0659  0.9188  1.5564
   39MOL   H12412360   7.483   7.121   3.440 -0.2220 -0.7924  1.2675
   39MOL   H12512361   7.399   6.970   3.465 -1.7906 -1.2462 -1.5230
   39MOL   H12612362   7.315   7.134   3.445  1.0496  1.3177 -1.1060
   39MOL   H12712363   7.491   7.237   3.221 -1.2800  1.5342  0.4291
   39MOL   H12812364   7.312   7.230   3.196 -1.3974 -1.8034  1.5699
   39MOL   H12912365   7.409   7.177   3.072 -0.2549 -1.1665 -0.1400
   39MOL   C13012366   7.144   6.846   3.370  0.2218  0.2297 -0.1621
   39MOL   C13112367   7.146   6.700   3.436 -0.2548 -0.6981 -0.3163
   39MOL   O13212368   7.038   6.694   3.527 -0.3627  0.0950 -0.0277
   39MOL   C13312369   6.915   6.662   3.463 -0.0397  0.6102 -0.2278
   39MOL   C13412370   6.889   6.519   3.508 -0.5612  0.1495  0.2937
   39MOL   C13512371   6.794   6.749   3.514  0.0912  0.3849 -0.0475
   39MOL   H13612372   7.044   6.869   3.332  1.5502  1.3897 -3.1332
   39MOL   H13712373   7.161   6.928   3.440  0.4506  0.5160 -0.5445
   39MOL   H13812374   7.133   6.624   3.359  0.9988  1.3791 -2.6672
   39MOL   H13912375   6.919   6.663   3.354  0.8084 -0.0918 -0.2009
   39MOL   H14012376   6.967   6.456   3.464 -0.2082  2.0518 -1.9033
   39MOL   H14112377   6.803   6.486   3.450 -0.8290  2.0445 -0.4287
   39MOL   H14212378   6.879   6.505   3.616 -0.1398 -0.1513  0.2939
   39MOL   H14312379   6.703   6.723   3.460  0.8240 -0.6303 -0.8185
   39MOL   H14412380   6.775   6.741   3.621  0.7278 -0.9548 -0.0222
   39MOL   H14512381   6.820   6.852   3.492 -0.9502  0.9486  1.2732
   39MOL   C14612382   7.278   6.671   3.509  0.2621 -0.1120 -0.0739
   39MOL   C14712383   7.287   6.527   3.558 -0.1624  0.0612 -0.2982
   39MOL   O14812384   7.331   6.446   3.447  0.0618  0.5763  0.5068
   39MOL   C14912385   7.270   6.314   3.428 -0.6397 -0.0442 -0.6913
   39MOL   C15012386   7.382   6.206   3.414  0.0700 -0.5988 -0.1249
   39MOL   C15112387   7.184   6.319   3.304  0.1024 -0.1732 -0.4774
   39MOL   H15212388   7.291   6.750   3.584  0.7036  2.6902 -2.9998
   39MOL   H15312389   7.370   6.673   3.452  0.6788  1.4135  0.6201
   39MOL   H15412390   7.181   6.507   3.577 -0.0724  0.5262  0.7642
   39MOL   H15512391   7.213   6.283   3.515  0.3942 -2.5289 -0.8515
   39MOL   H15612392   7.345   6.105   3.396 -0.0363 -0.6021  0.1113
   39MOL   H15712393   7.455   6.206   3.496 -0.0435  0.6807 -0.0184
   39MOL   H15812394   7.443   6.239   3.330 -1.1951  0.3630 -0.6774
   39MOL   H15912395   7.096   6.382   3.313 -0.4895 -0.8381 -1.5080
   39MOL   H16012396   7.154   6.216   3.282  3.6439 -1.1761 -0.9537
   39MOL   H16112397   7.241   6.354   3.217 -0.3802  0.8924 -0.3688
   39MOL   C16212398   7.378   6.504   3.683  0.8913  0.1011  0.3710
   39MOL   C16312399   7.333   6.395   3.777 -0.0674  0.0198  0.0337
   39MOL   O16412400   7.442   6.372   3.854 -0.5636  0.3248  0.1823
   39MOL   C16512401   7.510   6.256   3.823  0.0753  0.1865 -0.4757
   39MOL   C16612402   7.444   6.142   3.893  0.4330  0.1254  0.4187
   39MOL   C16712403   7.650   6.279   3.862  0.0260 -0.2145 -0.6149
   39MOL   H16812404   7.476   6.492   3.637  0.5116  4.5413 -1.7977
   39MOL   H16912405   7.389   6.589   3.750  1.2070 -0.5173  1.1128
   39MOL   H17012406   7.307   6.305   3.720  0.4904  0.2188 -0.5404
   39MOL   H17112407   7.517   6.251   3.714  0.8384 -0.0419 -0.4209
   39MOL   H17212408   7.399   6.171   3.988 -1.2983 -1.4614  0.0948
   39MOL   H17312409   7.522   6.070   3.917  1.0416  0.1531 -1.3637
   39MOL   H17412410   7.375   6.080   3.836  1.6217 -2.1947  1.4424
   39MOL   H17512411   7.686   6.374   3.824  1.3886 -0.1050  0.8981
   39MOL   H17612412   7.704   6.193   3.823  0.5445 -0.1264 -0.1026
   39MOL   H17712413   7.658   6.270   3.970 -0.0432  2.2909 -0.3641
   39MOL   C17812414   7.218   6.427   3.874  0.2363  0.0915  0.6710
   39MOL   C17912415   7.134   6.306   3.931  0.5774  0.9965 -0.2690
   39MOL   O18012416   7.035   6.345   4.026  1.0132  0.3810 -1.0445
   39MOL   C18112417   7.072   6.385   4.157 -0.0626 -0.1378 -0.9123
   39MOL   C18212418   7.101   6.260   4.245  0.3484  0.5806 -0.3922
   39MOL   C18312419   6.955   6.457   4.215  0.3905  0.0704 -0.3193
   39MOL   H18412420   7.141   6.479   3.817  0.3679 -0.0612  0.3517
   39MOL   H18512421   7.263   6.490   3.951  2.3200 -2.7389  1.8480
   39MOL   H18612422   7.201   6.246   3.994 -1.9819 -0.9331  0.7166
   39MOL   H18712423   7.154   6.457   4.156  1.0926 -1.4356 -0.9529
   39MOL   H18812424   7.170   6.185   4.208  2.5080  1.5709  1.5190
   39MOL   H18912425   7.006   6.211   4.268 -1.4911  3.1682 -2.1294
   39MOL   H19012426   7.146   6.284   4.341 -0.6689 -1.6779  0.6696
   39MOL   H19112427   6.860   6.403   4.213  1.8078 -2.4917 -0.1299
   39MOL   H19212428   6.942   6.554   4.167  1.0984 -0.1580 -0.9903
   39MOL   H19312429   6.983   6.479   4.318  2.1301 -0.6226 -0.6293
   39MOL   C19412430   7.052   6.227   3.819  0.1001  0.0451 -0.4266
   39MOL   C19512431   6.987   6.097   3.871 -1.0577  0.5451 -0.2389
   39MOL   O19612432   7.086   5.993   3.904  0.3336  0.8294  0.5822
   39MOL   C19712433   7.066   5.916   4.022 -0.0814  0.6490  0.2232
   39MOL   C19812434   6.966   5.803   4.040  0.6017  0.1364 -0.0616
   39MOL   C19912435   7.208   5.866   4.063 -0.0774  0.1433 -0.2550
   39MOL   H20012436   6.981   6.292   3.770  0.2180 -0.3227 -1.0882
   39MOL   H20112437   7.126   6.193   3.747  2.8092  2.1335  1.2453
   39MOL   H20212438   6.931   6.119   3.963  0.8161  0.0770  1.0380
   39MOL   H20312439   7.040   5.985   4.103  1.2719  0.5575  0.7553
   39MOL   H20412440   6.980   5.728   3.962  1.1676 -0.1571  0.3178
   39MOL   H20512441   6.984   5.758   4.138  1.5306 -1.5391 -0.9773
   39MOL   H20612442   6.864   5.839   4.022  0.3110 -1.7136 -2.4088
   39MOL   H20712443   7.218   5.800   4.149 -0.6778  1.0477  0.5184
   39MOL   H20812444   7.250   5.819   3.973 -2.9015  0.2614 -1.6914
   39MOL   H20912445   7.271   5.954   4.079  0.8257  0.4254 -4.6778
   39MOL   C21012446   6.880   6.049   3.762  0.4955  0.2776  0.1228
   39MOL   C21112447   6.761   6.137   3.739  0.5477  0.0455 -0.7961
   39MOL   O21212448   6.686   6.088   3.626 -0.1987  0.7145 -0.3793
   39MOL   C21312449   6.698   6.150   3.496  0.4957  0.3302 -0.4763
   39MOL   C21412450   6.845   6.153   3.458  0.0684  0.5054  0.5392
   39MOL   C21512451   6.609   6.068   3.404 -0.5219  0.3885 -0.2671
   39MOL   H21612452   6.848   5.954   3.803  0.0069  0.1685 -0.5091
   39MOL   H21712453   6.943   6.021   3.678  3.5663  1.5382  1.8942
   39MOL   H21812454   6.792   6.237   3.710  1.0268 -0.0622 -0.6596
   39MOL   H21912455   6.656   6.250   3.512  1.9575  0.3758  3.8226
   39MOL   H22012456   6.891   6.232   3.517  0.3463 -0.6231  1.8606
   39MOL   H22112457   6.851   6.177   3.352  1.4026 -0.9981  0.2565
   39MOL   H22212458   6.907   6.066   3.479 -0.1114  0.6573  1.7554
   39MOL   H22312459   6.643   5.964   3.404 -1.6844 -0.0202 -2.2657
   39MOL   H22412460   6.619   6.106   3.302 -0.0059  1.6802  0.2689
   39MOL   H22512461   6.504   6.078   3.430 -0.1485  3.6722  0.0997
   39MOL   C22612462   6.661   6.146   3.862 -0.6657 -0.0684  0.0167
   39MOL   C22712463   6.539   6.238   3.832 -0.3159  0.2238 -0.3899
   39MOL   O22812464   6.544   6.373   3.878  0.1277 -0.9632 -0.8763
   39MOL   C22912465   6.633   6.455   3.802 -0.2565 -1.1941  0.0581
   39MOL   C23012466   6.762   6.478   3.879 -0.0285 -0.3668 -0.2170
   39MOL   C23112467   6.546   6.583   3.782 -0.6830  0.7384 -0.0684
   39MOL   H23212468   6.723   6.180   3.946 -0.2658  0.1281 -0.3574
   39MOL   H23312469   6.628   6.044   3.880  1.9566 -0.4939  2.9356
   39MOL   H23412470   6.532   6.241   3.723  1.2993  2.0481 -0.4733
   39MOL   H23512471   6.649   6.406   3.707 -1.1863 -4.0793  1.3457
   39MOL   H23612472   6.834   6.396   3.882 -1.2298 -1.4508  5.2470
   39MOL   H23712473   6.810   6.568   3.839 -0.6012  1.6260  3.3963
   39MOL   H23812474   6.745   6.496   3.985 -2.3834  0.0377 -0.6391
   39MOL   H23912475   6.591   6.652   3.711  0.0116  0.4737  0.1130
   39MOL   H24012476   6.546   6.628   3.881  1.1220 -0.0180  0.3101
   39MOL   H24112477   6.449   6.544   3.751 -1.0098  1.1970  0.3715
   39MOL   C24212478   6.411   6.173   3.884 -0.3286 -0.9570  0.4730
   39MOL   C24312479   6.276   6.214   3.822 -0.6312 -0.1808  0.1578
   39MOL   O24412480   6.177   6.192   3.926  0.2502 -0.2623 -0.7017
   39MOL   C24512481   6.155   6.301   4.014  0.7303 -0.3061 -0.8412
   39MOL   C24612482   6.038   6.394   3.972  0.5956  0.7080 -0.0275
   39MOL   C24712483   6.141   6.234   4.151  0.3207 -0.2188 -0.3940
   39MOL   H24812484   6.405   6.064   3.876 -0.9057 -0.7567 -2.3038
   39MOL   H24912485   6.396   6.204   3.988  0.9375  3.0008 -0.4305
   39MOL   H25012486   6.270   6.320   3.798 -1.2805  0.1841  1.9040
   39MOL   H25112487   6.240   6.369   4.013  1.9187 -1.7149  0.6033
   39MOL   H25212488   6.065   6.443   3.878 -1.5109  1.0604 -0.4639
   39MOL   H25312489   5.949   6.340   3.940  0.6476  0.0826  0.8528
   39MOL   H25412490   6.012   6.475   4.040 -0.5116 -0.7279  1.2923
   39MOL   H25512491   6.112   6.304   4.230  0.9301  0.3432 -0.6560
   39MOL   H25612492   6.060   6.162   4.157  0.0147  0.0304 -1.4764
   39MOL   H25712493   6.233   6.179   4.173  0.6711  0.3904 -0.3035
   39MOL   C25812494   6.242   6.130   3.709  0.2988  0.1735 -0.0205
   39MOL   C25912495   6.100   6.133   3.649  0.8338 -0.1450  0.1899
   39MOL   O26012496   6.104   6.039   3.535 -0.1483  0.3701  0.0424
   39MOL   C26112497   6.018   5.928   3.539  0.5428  0.4055 -0.4059
   39MOL   C26212498   5.917   5.932   3.423  0.5179  0.2118 -0.1950
   39MOL   C26312499   6.103   5.812   3.505 -0.0169  0.2186 -0.2398
   39MOL   H26412500   6.312   6.152   3.629  1.0265  2.8601  1.3165
   39MOL   H26512501   6.260   6.025   3.732  3.5818  0.9432  1.1695
   39MOL   H26612502   6.030   6.093   3.723 -1.4317 -0.7748 -2.2190
   39MOL   H26712503   5.970   5.913   3.635  1.3949  2.4835  0.3834
   39MOL   H26812504   5.969   5.954   3.330  0.4591  0.0343 -0.2684
   39MOL   H26912505   5.840   6.009   3.435  0.8701  0.6435 -0.6849
   39MOL   H27012506   5.863   5.838   3.411  0.2626  0.5370 -1.7580
   39MOL   H27112507   6.035   5.727   3.514 -1.8663  1.7275  0.3814
   39MOL   H27212508   6.142   5.819   3.404 -1.9136 -1.0711 -1.0835
   39MOL   H27312509   6.184   5.789   3.575 -1.5601  2.0927  2.2718
   39MOL   C27412510   6.046   6.271   3.620  0.7215 -0.2451 -0.0890
   39MOL   C27512511   6.115   6.353   3.511  0.2109  0.0317  0.5066
   39MOL   O27612512   6.018   6.456   3.469  0.0601  0.2458  0.3907
   39MOL   C27712513   5.960   6.442   3.335 -0.0491  0.0358  0.0956
   39MOL   C27812514   5.894   6.578   3.307  0.1669  0.7120  0.6673
   39MOL   C27912515   5.852   6.337   3.350  0.4455  0.9400  0.4160
   39MOL   H28012516   5.941   6.258   3.593  0.6790  1.5909 -0.8514
   39MOL   H28112517   6.041   6.334   3.709 -1.6894 -0.2477 -0.1867
   39MOL   H28212518   6.137   6.283   3.430 -3.6160  0.2945 -0.8497
   39MOL   H28312519   6.042   6.420   3.267 -1.0959  2.4892 -2.0317
   39MOL   H28412520   5.969   6.656   3.297  0.7340  0.1504  0.4870
   39MOL   H28512521   5.845   6.584   3.211  1.2489  0.9314  0.1215
   39MOL   H28612522   5.818   6.603   3.381 -0.1470 -1.2969  1.0775
   39MOL   H28712523   5.895   6.241   3.378 -0.9555  0.6973  1.8134
   39MOL   H28812524   5.796   6.313   3.259 -0.7682  1.3074  1.0487
   39MOL   H28912525   5.779   6.360   3.428 -1.1666 -0.7184 -0.5542
   39MOL   C29012526   6.242   6.428   3.544 -0.0481 -0.0640  0.5354
   39MOL   C29112527   6.320   6.490   3.423  0.8769 -0.2078 -0.6667
   39MOL   O29212528   6.390   6.605   3.454 -0.1210 -0.1716  0.0156
   39MOL   C29312529   6.310   6.728   3.438 -0.6491  0.5844  0.0633
   39MOL   C29412530   6.292   6.777   3.294  0.1814 -0.3722 -0.1376
   39MOL   C29512531   6.379   6.837   3.522 -0.6731 -0.4410 -0.7934
   39MOL   H29612532   6.304   6.369   3.612  4.2655  3.2444 -0.3051
   39MOL   H29712533   6.210   6.498   3.622  2.1044  0.0373  1.3603
   39MOL   H29812534   6.252   6.506   3.339 -2.2237 -0.6143  1.6649
   39MOL   H29912535   6.214   6.718   3.489 -0.6741 -1.3207 -0.3087
   39MOL   H30012536   6.386   6.784   3.238 -0.9950  0.4850 -2.0557
   39MOL   H30112537   6.235   6.709   3.231  0.0581 -0.4815  0.0939
   39MOL   H30212538   6.248   6.877   3.297 -0.4243 -0.6440 -0.0645
   39MOL   H30312539   6.376   6.822   3.630 -0.6632 -1.1893 -0.8937
   39MOL   H30412540   6.482   6.833   3.488 -1.0561  1.3911 -2.2518
   39MOL   H30512541   6.348   6.938   3.495  1.4271  0.5961  0.4938
   39MOL   C30612542   6.425   6.383   3.385  0.2209  0.6903 -0.0991
   39MOL   C30712543   6.514   6.429   3.273 -0.4941 -0.7014  0.0301
   39MOL   O30812544   6.605   6.325   3.230 -0.2965 -0.2518  0.1275
   39MOL   C30912545   6.674   6.358   3.110  0.4046  1.2555  0.3691
   39MOL   C31012546   6.783   6.457   3.148  0.8388  0.3525 -0.5087
   39MOL   C31112547   6.732   6.228   3.054  0.4835 -0.3801  1.0122
   39MOL   H31212548   6.380   6.293   3.343  0.5981 -0.8063  2.5604
   39MOL   H31312549   6.493   6.351   3.464 -0.8489  1.1757  1.0466
   39MOL   H31412550   6.463   6.461   3.182 -1.3028 -4.1271 -0.7919
   39MOL   H31512551   6.601   6.403   3.043 -0.0719 -1.2379 -0.8944
   39MOL   H31612552   6.842   6.474   3.058  1.2819 -1.5369 -0.5942
   39MOL   H31712553   6.845   6.416   3.227 -1.2080 -1.3549  0.2580
   39MOL   H31812554   6.748   6.555   3.179 -0.0477 -0.1707  0.1630
   39MOL   H31912555   6.798   6.241   2.968 -1.0055  1.9372  0.1752
   39MOL   H32012556   6.659   6.149   3.034 -1.1512  0.2423  4.3032
   39MOL   H32112557   6.797   6.196   3.135 -1.3519 -1.0968  2.2459
   39MOL   H32212558   6.570   6.510   3.320  0.7107 -0.3980 -1.8754
   40MOL     C112559   4.119   0.076   5.945  0.7090  0.3501 -0.7974
   40MOL     C212560   4.157   7.753   5.915  0.5921 -0.5615  0.1276
   40MOL     O312561   4.092   7.677   6.020  0.1166 -0.3357  0.4921
   40MOL     C412562   4.176   7.638   6.132 -0.2243  1.3533  0.0872
   40MOL     C512563   4.283   7.532   6.094  0.2923  0.3114  0.2175
   40MOL     C612564   4.072   7.602   6.230  0.7634 -0.2133 -0.2690
   40MOL     H712565   4.139   0.101   6.049 -1.5971 -3.5008  0.6807
   40MOL     H812566   4.173   0.144   5.878  1.8289  1.0128  0.7477
   40MOL     H912567   4.264   7.735   5.913  0.6987  0.0469  0.2378
   40MOL    H1012568   4.222   7.729   6.171 -0.5575  1.0302  1.2639
   40MOL    H1112569   4.320   7.492   6.189 -0.2817  0.5501  0.5438
   40MOL    H1212570   4.248   7.443   6.041  0.0681 -0.6884  2.0080
   40MOL    H1312571   4.366   7.573   6.037 -0.6826  2.8605  0.5668
   40MOL    H1412572   3.998   7.527   6.202  0.9540 -0.6844  0.4782
   40MOL    H1512573   4.115   7.555   6.318 -0.3531 -1.6945 -0.5017
   40MOL    H1612574   4.017   7.694   6.249 -0.3414 -0.7854 -0.6443
   40MOL    H1712575   4.012   0.097   5.938  0.5988  0.2179  0.4693
   40MOL    C1812576   4.097   7.708   5.781 -0.2129 -0.3923  0.0193
   40MOL    C1912577   4.143   7.581   5.718 -0.0176  0.0963  0.2059
   40MOL    O2012578   4.270   7.597   5.648 -0.4240 -0.4127 -0.4075
   40MOL    C2112579   4.387   7.561   5.721  0.4942 -0.4663  0.1537
   40MOL    C2212580   4.489   7.680   5.737 -0.0641  0.3181 -0.1439
   40MOL    C2312581   4.456   7.441   5.654 -0.9381  0.0733  0.0192
   40MOL    H2412582   3.989   7.698   5.792 -0.2854  0.6520  0.2845
   40MOL    H2512583   4.117   7.784   5.706 -1.0400  0.0845  0.2762
   40MOL    H2612584   4.157   7.512   5.801 -1.2220  1.7320  1.8105
   40MOL    H2712585   4.371   7.526   5.823 -0.9381  0.1027  0.1357
   40MOL    H2812586   4.536   7.700   5.641 -0.2598 -1.3349 -0.6127
   40MOL    H2912587   4.441   7.771   5.772 -1.7075 -0.5577 -0.0438
   40MOL    H3012588   4.557   7.662   5.820  0.3151  1.4794 -0.2046
   40MOL    H3112589   4.541   7.408   5.714 -0.3105 -1.3381 -1.5953
   40MOL    H3212590   4.493   7.469   5.555 -0.9617  2.2071  0.5781
   40MOL    H3312591   4.396   7.353   5.633 -0.5305  0.2588 -2.0168
   40MOL    C3412592   4.037   7.525   5.625  0.2039 -0.3702  0.6249
   40MOL    C3512593   4.071   7.388   5.559  0.1613  0.0275 -0.6852
   40MOL    O3612594   4.009   7.280   5.627  0.2428  0.0343 -0.1175
   40MOL    C3712595   4.031   7.150   5.587  0.3991  0.0689 -0.1042
   40MOL    C3812596   4.185   7.117   5.606  0.0131  0.9757 -0.1881
   40MOL    C3912597   3.948   7.070   5.692 -0.2905 -0.2408 -0.3453
   40MOL    H4012598   4.028   7.601   5.547 -0.0940 -0.4772  0.5544
   40MOL    H4112599   3.943   7.515   5.680 -0.2570 -1.8751 -0.4014
   40MOL    H4212600   4.179   7.377   5.545  0.1839 -0.4703 -0.1646
   40MOL    H4312601   3.995   7.126   5.487  1.3472  0.8594 -0.6446
   40MOL    H4412602   4.215   7.139   5.708  0.7049 -0.0633 -0.1624
   40MOL    H4512603   4.235   7.168   5.524 -1.2751  0.6398 -1.2074
   40MOL    H4612604   4.212   7.015   5.578 -1.3021  0.3260  0.8480
   40MOL    H4712605   3.967   7.095   5.796 -0.7486  0.2927 -0.3855
   40MOL    H4812606   3.840   7.074   5.681 -0.6073 -1.5561  1.9779
   40MOL    H4912607   3.973   6.964   5.685  1.4154  0.0416  1.0614
   40MOL    C5012608   4.014   7.390   5.413 -0.4083 -0.4280  0.0807
   40MOL    C5112609   4.085   7.492   5.314  0.0663  0.1202  0.4626
   40MOL    O5212610   4.013   7.479   5.185 -0.0599  0.1557 -0.1064
   40MOL    C5312611   3.910   7.572   5.160  0.4524 -0.6670 -0.2826
   40MOL    C5412612   3.781   7.518   5.105 -0.4796 -0.8574 -0.2695
   40MOL    C5512613   3.970   7.683   5.063  0.1259  0.6236  0.3426
   40MOL    H5612614   4.010   7.289   5.373 -0.2179 -0.4816  0.1925
   40MOL    H5712615   3.911   7.422   5.419 -0.5208 -0.4730 -1.3298
   40MOL    H5812616   4.093   7.594   5.352 -2.5725  0.9791 -1.1074
   40MOL    H5912617   3.881   7.613   5.257 -0.3427  4.2290 -2.4211
   40MOL    H6012618   3.716   7.599   5.073  1.4997  1.1819  0.6542
   40MOL    H6112619   3.735   7.449   5.175 -1.2375  0.8592  0.9676
   40MOL    H6212620   3.806   7.454   5.021 -0.2960 -2.3073  0.8670
   40MOL    H6312621   3.901   7.761   5.029  0.8651  1.4416  0.7114
   40MOL    H6412622   4.007   7.618   4.983 -1.7613 -2.9981  2.2862
   40MOL    H6512623   4.057   7.727   5.112  0.1743  0.4061  0.4538
   40MOL    C6612624   4.224   7.446   5.283 -0.4042 -0.0459 -0.0502
   40MOL    C6712625   4.302   7.541   5.189 -0.2098  0.1876 -0.1080
   40MOL    O6812626   4.392   7.468   5.111 -0.0463 -0.2622  0.3762
   40MOL    C6912627   4.339   7.416   4.989 -0.3795  0.1416  0.4793
   40MOL    C7012628   4.360   7.518   4.872  0.0837 -0.0867 -0.6827
   40MOL    C7112629   4.411   7.283   4.973 -0.6519 -0.4721 -0.6383
   40MOL    H7212630   4.283   7.417   5.369 -1.3182 -0.6719  0.3756
   40MOL    H7312631   4.216   7.346   5.239 -0.6046  0.1360 -0.4304
   40MOL    H7412632   4.230   7.574   5.115  1.1832 -0.3716 -1.7644
   40MOL    H7512633   4.234   7.389   4.998  0.5518 -2.6999  3.8909
   40MOL    H7612634   4.464   7.550   4.863  0.2429 -0.6453 -0.8821
   40MOL    H7712635   4.341   7.482   4.770 -0.1568 -0.4095 -0.5276
   40MOL    H7812636   4.304   7.610   4.886 -0.8738 -0.8335  0.5602
   40MOL    H7912637   4.374   7.215   5.049  0.8240  0.5481  1.0308
   40MOL    H8012638   4.520   7.296   4.972 -1.0210  3.4185 -0.8172
   40MOL    H8112639   4.387   7.228   4.882 -2.7241  0.3591 -0.6167
   40MOL    C8212640   4.375   7.657   5.268  0.8776  0.7399 -0.1057
   40MOL    C8312641   4.429   7.769   5.181 -0.1695  0.1036  0.3448
   40MOL    O8412642   4.442   0.072   5.238 -0.4925  0.2223  0.0417
   40MOL    C8512643   4.508   0.082   5.364  0.1346  0.6984  0.0428
   40MOL    C8612644   4.410   0.145   5.466 -0.1283 -0.3857  0.8682
   40MOL    C8712645   4.637   0.157   5.344  0.5491 -0.2926 -0.3331
   40MOL    H8812646   4.300   7.707   5.330 -1.1758  0.4577 -2.2678
   40MOL    H8912647   4.443   7.617   5.343  0.3795 -1.8110 -0.9680
   40MOL    H9012648   4.352   7.789   5.107 -0.5407 -0.4008  0.5916
   40MOL    H9112649   4.531   7.803   5.404  3.4156  1.8365  1.1527
   40MOL    H9212650   4.454   0.134   5.565  0.7530  0.1297  0.5434
   40MOL    H9312651   4.395   0.252   5.455  1.2212 -0.2914 -0.2358
   40MOL    H9412652   4.308   0.108   5.462 -0.7254  1.2846  0.2756
   40MOL    H9512653   4.692   0.107   5.265  0.0751  1.6487 -1.9259
   40MOL    H9612654   4.620   0.258   5.306  0.7160  0.2167  0.9227
   40MOL    H9712655   4.690   0.167   5.439  0.4524  0.2533 -0.3318
   40MOL    C9812656   4.558   7.736   5.096  0.4596 -0.2440 -0.5877
   40MOL    C9912657   4.590   0.032   5.003 -0.0922  0.2176  0.2218
   40MOL   O10012658   4.480   0.052   4.916  0.0547  0.3815  0.9218
   40MOL   C10112659   4.407   0.176   4.935  0.2068  0.3748 -0.1478
   40MOL   C10212660   4.268   0.164   4.874  0.5591 -0.6972  0.0593
   40MOL   C10312661   4.489   0.285   4.867 -0.1506 -0.2485  0.4511
   40MOL   H10412662   4.647   7.708   5.153  0.9636 -0.5968 -1.5275
   40MOL   H10512663   4.536   7.654   5.028 -0.1372  0.4238 -1.2027
   40MOL   H10612664   4.600   0.128   5.055  0.7172  0.9279 -1.2119
   40MOL   H10712665   4.399   0.189   5.042 -1.6989  1.4109 -0.3939
   40MOL   H10812666   4.225   0.263   4.861  2.3946 -0.0485 -1.1048
   40MOL   H10912667   4.194   0.113   4.937  1.7870 -0.1907  1.9340
   40MOL   H11012668   4.280   0.108   4.781  1.0048 -0.5978  0.0587
   40MOL   H11112669   4.590   0.291   4.908  0.4808 -2.2947 -0.7419
   40MOL   H11212670   4.444   0.384   4.872  1.2655  0.3349  2.3234
   40MOL   H11312671   4.506   0.270   4.760 -0.9622 -0.4639  0.3540
   40MOL   C11412672   4.722   0.020   4.926 -0.0724  0.0382 -0.5657
   40MOL   C11512673   4.848   0.028   5.015  0.4037 -0.7904  0.5118
   40MOL   O11612674   4.942   7.783   4.931  0.2559 -0.2204  0.3019
   40MOL   C11712675   5.032   7.690   4.983 -0.0782 -0.5530  0.2248
   40MOL   C11812676   5.157   7.692   4.888  0.2117  0.3753  0.0401
   40MOL   C11912677   4.957   7.560   4.981 -0.2218  0.1180 -0.4660
   40MOL   H12012678   4.716   0.098   4.851  0.0215  0.7844  0.1982
   40MOL   H12112679   4.730   7.747   4.870  1.0735 -0.5578  0.5652
   40MOL   H12212680   4.842   7.783   5.103  0.1047 -1.9319 -0.3419
   40MOL   H12312681   5.062   7.728   5.081  1.8308 -0.3382 -0.4055
   40MOL   H12412682   5.239   7.632   4.927 -0.0505  0.1204  0.2026
   40MOL   H12512683   5.187   7.797   4.889 -1.3327  0.8704 -2.0964
   40MOL   H12612684   5.140   7.658   4.786  1.4917  0.5743 -0.2490
   40MOL   H12712685   4.939   7.533   4.877 -0.3252  2.0170 -0.9547
   40MOL   H12812686   4.860   7.574   5.028 -1.4574 -3.5864 -1.7331
   40MOL   H12912687   5.010   7.472   5.018 -2.9576 -2.0471 -1.5497
   40MOL   C13012688   4.892   0.170   5.039 -0.5507 -0.5812 -0.3382
   40MOL   C13112689   5.000   0.209   5.138 -0.0011 -0.5355 -0.5833
   40MOL   O13212690   4.972   0.142   5.254  0.0777 -0.0686 -0.6976
   40MOL   C13312691   5.072   0.121   5.358  0.1020 -0.2634 -0.4369
   40MOL   C13412692   5.033   0.210   5.477 -0.4809 -0.2735  0.4906
   40MOL   C13512693   5.060   7.796   5.398  0.6450  0.6931  0.0068
   40MOL   H13612694   4.807   0.225   5.080 -1.6281 -0.7185 -2.2980
   40MOL   H13712695   4.908   0.213   4.940 -0.3098 -2.1114 -0.9779
   40MOL   H13812696   5.085   0.167   5.084 -0.4221 -0.4670 -1.2942
   40MOL   H13912697   5.175   0.135   5.324  0.0905 -2.0163 -1.2284
   40MOL   H14012698   4.925   0.217   5.489 -0.5692 -1.0156  0.1902
   40MOL   H14112699   5.072   0.311   5.466  1.2525 -0.8277  1.2230
   40MOL   H14212700   5.088   0.176   5.565  1.7457  0.9490 -0.3800
   40MOL   H14312701   4.964   7.760   5.434  0.7028  1.1343  0.6088
   40MOL   H14412702   5.086   7.724   5.320 -1.5755 -0.8977  0.6995
   40MOL   H14512703   5.132   7.777   5.477 -0.0032  0.8869  0.6449
   40MOL   C14612704   5.015   0.360   5.139 -0.2032  0.0263 -0.2464
   40MOL   C14712705   5.147   0.433   5.191  0.1824  0.5933  0.8879
   40MOL   O14812706   5.253   0.407   5.095 -0.0602 -0.0921 -0.5830
   40MOL   C14912707   5.384   0.429   5.142 -0.3283  0.1713 -0.1670
   40MOL   C15012708   5.463   0.523   5.044  0.4280 -0.4048 -0.3137
   40MOL   C15112709   5.468   0.304   5.165 -0.3415  0.4219  0.8354
   40MOL   H15212710   4.926   0.392   5.194  0.3125  1.0642 -0.0066
   40MOL   H15312711   5.008   0.397   5.037  0.9371  0.0898 -0.3037
   40MOL   H15412712   5.177   0.391   5.287 -0.6175  0.6878  1.1862
   40MOL   H15512713   5.386   0.477   5.240  1.3739  1.4397 -0.7924
   40MOL   H15612714   5.457   0.492   4.939 -1.4651 -1.0192 -0.0277
   40MOL   H15712715   5.569   0.528   5.069  0.2492 -3.7761  1.3965
   40MOL   H15812716   5.431   0.625   5.064  0.5157 -0.7523  1.6446
   40MOL   H15912717   5.575   0.322   5.178 -0.0578 -2.2476  2.7742
   40MOL   H16012718   5.443   0.224   5.095  2.6162  0.2685 -0.1441
   40MOL   H16112719   5.427   0.259   5.256 -0.5359 -1.9433 -0.3800
   40MOL   C16212720   5.128   0.591   5.204  0.3133 -0.6569 -0.4093
   40MOL   C16312721   5.045   0.629   5.326 -0.4577 -0.4392  0.0210
   40MOL   O16412722   5.136   0.694   5.419 -0.4303  0.9589  0.3201
   40MOL   C16512723   5.201   0.601   5.497 -0.2212  0.0616  0.0703
   40MOL   C16612724   5.123   0.560   5.630 -0.5825  0.3571  0.3746
   40MOL   C16712725   5.331   0.660   5.534 -0.2533  0.1065 -0.0608
   40MOL   H16812726   5.231   0.626   5.214 -0.4187  1.7685 -0.9712
   40MOL   H16912727   5.092   0.634   5.111 -0.0663 -0.6148 -0.2430
   40MOL   H17012728   4.987   0.546   5.367  0.2103 -0.1111  1.7029
   40MOL   H17112729   5.232   0.516   5.435 -3.2853  1.0883 -3.0368
   40MOL   H17212730   5.019   0.536   5.607 -0.4504  1.0324 -0.9236
   40MOL   H17312731   5.125   0.642   5.702  0.9399 -1.3288  2.3123
   40MOL   H17412732   5.164   0.466   5.667  0.2664  1.4182  2.2020
   40MOL   H17512733   5.390   0.681   5.445  0.5058  2.0931  0.8929
   40MOL   H17612734   5.390   0.599   5.603  1.8286  0.8650 -1.1112
   40MOL   H17712735   5.306   0.754   5.582 -2.0570  0.5261 -1.7630
   40MOL   C17812736   4.940   0.739   5.291  0.0486 -0.0676 -0.5818
   40MOL   C17912737   4.820   0.764   5.389  0.0504 -0.5929 -0.5682
   40MOL   O18012738   4.768   0.898   5.369 -0.0661  0.2828  0.0214
   40MOL   C18112739   4.715   0.961   5.481  0.4558 -0.1917  0.7817
   40MOL   C18212740   4.579   1.005   5.433 -0.0545 -0.1051  0.3951
   40MOL   C18312741   4.805   1.079   5.528  0.1400 -0.2479 -0.0600
   40MOL   H18412742   4.893   0.721   5.194  0.1071  2.0422 -1.0289
   40MOL   H18512743   5.002   0.824   5.264 -1.7845  0.9238 -1.7822
   40MOL   H18612744   4.870   0.745   5.484 -1.6042 -1.0211  0.2375
   40MOL   H18712745   4.709   0.892   5.565  2.5508 -0.5176  0.6825
   40MOL   H18812746   4.577   1.061   5.339 -2.0466  1.8996  1.6080
   40MOL   H18912747   4.524   1.061   5.508  0.3186  1.2317 -0.3154
   40MOL   H19012748   4.530   0.910   5.412 -2.0292  1.1423 -0.7639
   40MOL   H19112749   4.784   1.097   5.634  1.5008 -3.2536  0.7850
   40MOL   H19212750   4.794   1.172   5.473  0.2036  1.0305  2.0249
   40MOL   H19312751   4.912   1.057   5.522  0.2078 -0.0320  0.3097
   40MOL   C19412752   4.711   0.657   5.366  0.1290 -0.2211 -0.1507
   40MOL   C19512753   4.609   0.637   5.479  0.3567  0.0970  0.0186
   40MOL   O19612754   4.665   0.545   5.573  1.0083  0.2007 -0.1266
   40MOL   C19712755   4.621   0.556   5.712  0.9849  0.5414 -0.7829
   40MOL   C19812756   4.642   0.418   5.773 -0.0037 -0.2403  0.0653
   40MOL   C19912757   4.704   0.668   5.780  0.4739 -0.2212 -0.1546
   40MOL   H20012758   4.669   0.675   5.267  0.3088  1.1160  0.0105
   40MOL   H20112759   4.761   0.560   5.362 -1.1192 -0.8451 -1.0687
   40MOL   H20212760   4.578   0.732   5.523 -1.5660 -0.4030 -0.1944
   40MOL   H20312761   4.516   0.584   5.720  1.4574  1.6704  1.9966
   40MOL   H20412762   4.728   0.370   5.729 -0.0972  0.4888 -0.9180
   40MOL   H20512763   4.643   0.414   5.882 -3.7007  0.6889  0.2219
   40MOL   H20612764   4.555   0.362   5.740 -0.8629  2.0709 -1.7602
   40MOL   H20712765   4.683   0.681   5.887  3.1488 -0.2642  0.3974
   40MOL   H20812766   4.813   0.662   5.778  0.4124 -1.3190 -0.7805
   40MOL   H20912767   4.672   0.763   5.738  1.8731  0.9021  1.2752
   40MOL   C21012768   4.485   0.567   5.409 -0.0404 -0.1269  0.0240
   40MOL   C21112769   4.371   0.668   5.381  0.1518 -0.1222  0.3836
   40MOL   O21212770   4.272   0.609   5.306  0.5224 -0.0661 -0.3596
   40MOL   C21312771   4.296   0.606   5.166 -0.1143  0.5026 -0.2075
   40MOL   C21412772   4.214   0.493   5.105 -0.5960 -0.6587 -0.3673
   40MOL   C21512773   4.277   0.746   5.088  0.3377  0.3706 -0.0949
   40MOL   H21612774   4.449   0.479   5.463  0.6757 -1.4081 -1.5477
   40MOL   H21712775   4.517   0.516   5.319  3.7196 -0.7312  1.5919
   40MOL   H21812776   4.422   0.752   5.333  0.2810 -1.2580 -1.5427
   40MOL   H21912777   4.400   0.577   5.152 -0.6260 -2.4729  1.7330
   40MOL   H22012778   4.108   0.517   5.111 -0.1935  0.7197  1.6934
   40MOL   H22112779   4.223   0.402   5.164 -0.8703 -1.0712 -0.9635
   40MOL   H22212780   4.232   0.471   5.000  1.4959 -0.4927 -0.0735
   40MOL   H22312781   4.177   0.787   5.101  0.6401  0.9045  0.5485
   40MOL   H22412782   4.289   0.744   4.980 -0.7065 -2.2887 -0.2185
   40MOL   H22512783   4.358   0.805   5.131 -1.1341  0.8781  2.0597
   40MOL   C22612784   4.293   0.712   5.505 -0.2522  0.0885 -0.0333
   40MOL   C22712785   4.195   0.835   5.487 -0.3005 -0.0898 -0.3161
   40MOL   O22812786   4.276   0.953   5.461  0.3717  0.4373 -0.1995
   40MOL   C22912787   4.200   1.057   5.387 -0.0979  0.2207 -0.0779
   40MOL   C23012788   4.257   1.079   5.248 -0.3456 -0.2541  0.5592
   40MOL   C23112789   4.195   1.185   5.470  0.4931 -0.6840 -0.0990
   40MOL   H23212790   4.360   0.749   5.582 -1.3151  0.5230  0.6989
   40MOL   H23312791   4.234   0.627   5.538 -0.1736 -1.1296 -2.8649
   40MOL   H23412792   4.122   0.810   5.409 -1.8802  0.9529  0.7744
   40MOL   H23512793   4.098   1.021   5.372  0.2778 -0.2708 -1.5112
   40MOL   H23612794   4.218   1.019   5.165 -1.7102  1.2825  0.0710
   40MOL   H23712795   4.242   1.185   5.230 -0.0575 -0.1286  1.0511
   40MOL   H23812796   4.366   1.075   5.251 -0.2975 -1.0000 -1.0963
   40MOL   H23912797   4.132   1.269   5.442  1.1676  0.3024  1.2326
   40MOL   H24012798   4.299   1.218   5.482 -0.1262  1.4304 -0.3836
   40MOL   H24112799   4.175   1.162   5.575 -0.3014  0.4948  0.0123
   40MOL   C24212800   4.117   0.857   5.614 -0.1300 -0.2958 -0.2976
   40MOL   C24312801   4.017   0.748   5.655  0.0020  0.0186 -0.1655
   40MOL   O24412802   3.900   0.755   5.575  0.4342 -0.2036 -0.4735
   40MOL   C24512803   3.895   0.650   5.477 -0.1754 -0.5723 -0.4706
   40MOL   C24612804   3.809   0.542   5.531 -0.7131  0.2508  0.3956
   40MOL   C24712805   3.825   0.717   5.361 -0.0502 -0.3715  0.1496
   40MOL   H24812806   4.195   0.874   5.689 -0.9612  3.4111 -0.2097
   40MOL   H24912807   4.064   0.952   5.612 -1.8461 -1.2446 -1.0486
   40MOL   H25012808   4.062   0.648   5.652 -0.9799 -0.4344  0.1980
   40MOL   H25112809   3.993   0.612   5.449  1.7089  2.8173  1.1783
   40MOL   H25212810   3.789   0.462   5.460  0.0538  1.1634 -0.8606
   40MOL   H25312811   3.866   0.481   5.601  0.7519  0.3124 -0.7112
   40MOL   H25412812   3.720   0.571   5.588  0.3562  0.5025  1.9727
   40MOL   H25512813   3.838   0.647   5.277  0.6389  1.2250 -1.0998
   40MOL   H25612814   3.717   0.726   5.377  0.0991 -2.0721  2.3476
   40MOL   H25712815   3.869   0.812   5.330 -1.0289  0.3961  1.0781
   40MOL   C25812816   3.961   0.755   5.797  0.4167  0.0906 -0.0729
   40MOL   C25912817   4.048   0.732   5.921  0.4891 -0.1457  0.2457
   40MOL   O26012818   4.091   0.604   5.931  0.0055  0.2794  0.4844
   40MOL   C26112819   4.226   0.576   5.880 -0.2933  0.3690  0.3505
   40MOL   C26212820   4.328   0.593   5.995 -0.7521 -0.2561  0.2876
   40MOL   C26312821   4.210   0.431   5.830 -0.3752 -0.3177  0.1788
   40MOL   H26412822   3.901   0.844   5.813  0.1768 -0.1331  0.2517
   40MOL   H26512823   3.889   0.673   5.802  0.2923  0.1923 -0.2081
   40MOL   H26612824   4.142   0.786   5.910 -0.1646  1.0936  0.6818
   40MOL   H26712825   4.249   0.651   5.804  2.1321 -0.8735 -0.1897
   40MOL   H26812826   4.316   0.686   6.050  1.6777 -1.3822  2.8287
   40MOL   H26912827   4.432   0.609   5.966 -0.6502 -1.1707  0.1164
   40MOL   H27012828   4.321   0.512   6.068  1.5272  0.4028  1.2902
   40MOL   H27112829   4.110   0.429   5.787  0.0115 -0.2986 -0.7418
   40MOL   H27212830   4.275   0.397   5.749 -0.7449 -2.3755  0.7101
   40MOL   H27312831   4.196   0.369   5.919  0.4652 -0.6980  0.0521
   40MOL   C27412832   3.983   0.755   6.057 -0.3960 -0.9196  0.2503
   40MOL   C27512833   4.067   0.823   6.167 -0.1099  0.4983  0.7620
   40MOL   O27612834   4.129   0.955   6.146 -0.5236  0.6594 -0.4186
   40MOL   C27712835   4.048   1.059   6.101  0.2383 -0.3094  0.0672
   40MOL   C27812836   4.095   1.103   5.964  0.3992  0.1947 -0.1765
   40MOL   C27912837   4.073   1.167   6.208 -0.1831 -0.0451 -0.2642
   40MOL   H28012838   3.899   0.823   6.041 -0.6882 -0.8833  1.8415
   40MOL   H28112839   3.927   0.665   6.084 -2.5894 -0.3923 -2.2837
   40MOL   H28212840   4.142   0.749   6.195  0.0022  0.5268  0.5302
   40MOL   H28312841   3.942   1.035   6.092 -0.2548  1.5604  0.6890
   40MOL   H28412842   4.052   1.196   5.926 -0.0232  0.0589 -0.0327
   40MOL   H28512843   4.201   1.124   5.976  0.4198  0.7521 -1.2330
   40MOL   H28612844   4.077   1.026   5.889  1.3918  0.1171 -0.3422
   40MOL   H28712845   4.059   1.272   6.182 -1.3484 -0.0124  0.4950
   40MOL   H28812846   4.170   1.146   6.253  0.4487  2.2009 -0.5003
   40MOL   H28912847   4.010   1.166   6.297  1.7196  0.2608  1.1262
   40MOL   C29012848   3.985   0.840   6.307  0.3120  0.0103 -0.2274
   40MOL   C29112849   4.072   0.842   6.435  0.2184 -0.3980  0.3304
   40MOL   O29212850   3.987   0.849   6.545  0.1337  1.1637  0.0935
   40MOL   C29312851   4.018   0.938   6.646 -0.1646 -0.9491 -0.1614
   40MOL   C29412852   3.967   0.872   6.771  0.4755 -0.2694 -0.5938
   40MOL   C29512853   3.950   1.078   6.625 -0.1692  0.4773  0.1985
   40MOL   H29612854   3.926   0.749   6.316 -1.8655  1.3234 -0.8709
   40MOL   H29712855   3.899   0.907   6.310  0.3510 -0.0114  1.9515
   40MOL   H29812856   4.126   0.937   6.441  1.1594 -1.0127  1.5867
   40MOL   H29912857   4.122   0.960   6.671 -1.1460  2.7963  1.0174
   40MOL   H30012858   3.965   0.940   6.856 -0.0005 -0.3100 -0.5732
   40MOL   H30112859   3.861   0.854   6.760 -0.2104  2.6139  0.7544
   40MOL   H30212860   4.010   0.775   6.797  2.0569  0.3370 -0.8722
   40MOL   H30312861   3.847   1.059   6.593  0.1469 -0.4671 -0.2644
   40MOL   H30412862   3.961   1.151   6.705  6.1294 -0.6716  0.6410
   40MOL   H30512863   3.980   1.127   6.533  1.4465 -1.3450 -0.2804
   40MOL   C30612864   4.166   0.716   6.457 -0.1613  0.5797  0.1684
   40MOL   C30712865   4.090   0.586   6.500  0.1090 -0.4962 -0.0228
   40MOL   O30812866   4.175   0.476   6.494 -0.2849  0.0788  0.8441
   40MOL   C30912867   4.168   0.372   6.588 -0.5221  0.2366 -0.6587
   40MOL   C31012868   4.026   0.308   6.584  0.2023 -0.0277 -0.4291
   40MOL   C31112869   4.269   0.265   6.546  0.0420  0.0984  0.0582
   40MOL   H31212870   4.239   0.745   6.532 -1.7055 -1.4297  2.5397
   40MOL   H31312871   4.231   0.695   6.373  1.3720  0.1652  1.4468
   40MOL   H31412872   4.058   0.593   6.604 -0.0833 -2.2617  0.0631
   40MOL   H31512873   4.184   0.402   6.691 -0.3972  0.0688 -0.6294
   40MOL   H31612874   4.000   0.251   6.673 -2.5026  2.7167  0.6235
   40MOL   H31712875   4.005   0.258   6.490  1.0139  1.2070 -1.2898
   40MOL   H31812876   3.956   0.390   6.600  0.0062 -0.5681  1.5539
   40MOL   H31912877   4.286   0.188   6.621 -0.9743 -0.0855  0.1042
   40MOL   H32012878   4.365   0.317   6.544  0.8049 -1.2651  0.2192
   40MOL   H32112879   4.231   0.226   6.452 -2.0772  1.5330  0.2978
   40MOL   H32212880   3.995   0.582   6.446  0.4097 -0.0751 -0.5829
   41MOL     C112881   4.226   1.975   4.261  0.0502 -0.0636  0.0549
   41MOL     C212882   4.102   2.010   4.175  0.0151  0.6691 -0.7916
   41MOL     O312883   4.145   2.029   4.044  0.4618  0.2046  0.1396
   41MOL     C412884   4.215   2.150   4.013 -0.2688  0.0516 -0.4123
   41MOL     C512885   4.121   2.267   3.999  0.2038  0.6161 -0.0728
   41MOL     C612886   4.298   2.119   3.877  0.0952 -0.8390  0.0123
   41MOL     H712887   4.301   2.054   4.256 -0.3580  0.2859 -0.7072
   41MOL     H812888   4.213   1.930   4.359 -1.2704  0.5790  0.1903
   41MOL     H912889   4.064   2.097   4.229 -1.7710 -1.5582  1.6334
   41MOL    H1012890   4.287   2.167   4.093 -1.8565  2.7723  0.4894
   41MOL    H1112891   4.061   2.254   3.909 -0.6148  0.2663  0.5178
   41MOL    H1212892   4.064   2.274   4.092  1.4091  0.6106  0.6831
   41MOL    H1312893   4.175   2.359   3.981 -0.6523  1.2257  0.4176
   41MOL    H1412894   4.365   2.204   3.872  0.2224 -0.8623  1.1899
   41MOL    H1512895   4.343   2.020   3.873 -0.2007 -0.8935 -2.5698
   41MOL    H1612896   4.233   2.130   3.790  1.7769 -0.3640 -1.2051
   41MOL    H1712897   4.285   1.898   4.211  0.4273 -0.1923  0.6932
   41MOL    C1812898   3.992   1.905   4.187  0.4507  0.6369  0.0627
   41MOL    C1912899   3.857   1.912   4.105 -0.2895  1.0326 -0.4780
   41MOL    O2012900   3.771   1.831   4.171 -0.1313  0.0612  0.2277
   41MOL    C2112901   3.633   1.862   4.169  0.7652 -0.3710  0.3536
   41MOL    C2212902   3.579   1.914   4.305  0.2137  0.0461 -0.1632
   41MOL    C2312903   3.562   1.737   4.114 -0.2599  0.1413  0.2757
   41MOL    H2412904   4.039   1.809   4.163  2.4452  1.5798  0.0983
   41MOL    H2512905   3.970   1.910   4.294 -2.3099 -0.9036 -0.3869
   41MOL    H2612906   3.818   2.014   4.112  0.2307  1.3443 -1.8873
   41MOL    H2712907   3.613   1.941   4.097 -0.7773  0.1076  1.2795
   41MOL    H2812908   3.472   1.930   4.297  0.0335 -1.4940 -1.0283
   41MOL    H2912909   3.599   1.831   4.372 -1.2476 -0.1682  0.0180
   41MOL    H3012910   3.615   2.013   4.333 -0.9365  0.8688 -1.5051
   41MOL    H3112911   3.453   1.745   4.107 -0.5224 -0.7999  2.8060
   41MOL    H3212912   3.596   1.661   4.184  1.1968 -1.4139 -2.0483
   41MOL    H3312913   3.596   1.731   4.011  2.7795  0.1623  1.2177
   41MOL    C3412914   3.868   1.872   3.960 -0.0784  0.3034  0.2805
   41MOL    C3512915   3.874   1.986   3.859 -0.8599 -0.5260  0.2822
   41MOL    O3612916   3.910   1.924   3.737 -0.1624  0.5688  0.1767
   41MOL    C3712917   4.039   1.867   3.720  0.0383 -0.5476 -0.6253
   41MOL    C3812918   4.038   1.720   3.704  0.0427 -0.0455 -0.4446
   41MOL    C3912919   4.095   1.930   3.592  0.1929 -0.0686 -0.4152
   41MOL    H4012920   3.802   1.791   3.931 -0.2824  0.5972 -0.0803
   41MOL    H4112921   3.960   1.814   3.961 -1.9759 -2.8191 -0.3784
   41MOL    H4212922   3.947   2.062   3.887 -1.2091  0.6493 -1.9321
   41MOL    H4312923   4.105   1.886   3.804 -0.3338  1.0985 -0.6764
   41MOL    H4412924   3.958   1.692   3.636 -0.4156  1.5515 -0.5972
   41MOL    H4512925   4.008   1.680   3.801  1.2531  0.4496  0.1545
   41MOL    H4612926   4.133   1.675   3.678  1.1650  1.3723  1.0457
   41MOL    H4712927   4.202   1.910   3.583  0.8326  2.9452  0.1032
   41MOL    H4812928   4.032   1.895   3.511 -0.7755  1.6894 -0.4418
   41MOL    H4912929   4.079   2.038   3.597 -0.2958 -0.1471 -0.3433
   41MOL    C5012930   3.744   2.061   3.828 -0.0391 -0.1188  0.8702
   41MOL    C5112931   3.741   2.171   3.722 -0.1808  0.4468 -0.2076
   41MOL    O5212932   3.819   2.281   3.765  0.4014 -0.8793  0.8037
   41MOL    C5312933   3.856   2.383   3.672  0.1498  0.1904  0.0890
   41MOL    C5412934   3.978   2.332   3.589  0.5345 -0.0223 -0.6149
   41MOL    C5512935   3.883   2.505   3.752 -0.4938  0.3418  0.1416
   41MOL    H5612936   3.662   1.991   3.811  0.4242 -0.0002 -2.0882
   41MOL    H5712937   3.713   2.118   3.916 -1.7941  1.3403 -0.6662
   41MOL    H5812938   3.793   2.132   3.634  0.3799  0.4669  0.1100
   41MOL    H5912939   3.778   2.398   3.597 -1.1185  0.3530  1.4367
   41MOL    H6012940   4.026   2.406   3.525 -0.3921  2.1195  1.0998
   41MOL    H6112941   3.954   2.248   3.524 -1.8122  0.4933 -0.4649
   41MOL    H6212942   4.056   2.303   3.660 -0.5842 -1.5255  0.0179
   41MOL    H6312943   3.949   2.484   3.835 -2.2221  0.3843  1.5599
   41MOL    H6412944   3.793   2.561   3.780  0.2645  0.2968  2.7236
   41MOL    H6512945   3.938   2.578   3.692  1.6845  0.0919  1.8189
   41MOL    C6612946   3.596   2.216   3.685  0.4062  0.0336 -0.5426
   41MOL    C6712947   3.515   2.310   3.778 -0.0284  0.6805 -0.2264
   41MOL    O6812948   3.507   2.246   3.902 -0.1514 -0.1740 -0.6040
   41MOL    C6912949   3.525   2.316   4.024  0.3864 -0.1310  0.0059
   41MOL    C7012950   3.474   2.231   4.137 -0.1847 -0.2751 -0.1387
   41MOL    C7112951   3.675   2.362   4.057 -0.0409  0.0690  0.5178
   41MOL    H7212952   3.594   2.267   3.588  0.9510 -1.5750 -1.4245
   41MOL    H7312953   3.539   2.127   3.657 -2.3272  1.7725 -0.6524
   41MOL    H7412954   3.572   2.402   3.790  1.1163 -0.1744  0.9650
   41MOL    H7512955   3.473   2.413   4.026 -0.3951 -0.4901 -1.8807
   41MOL    H7612956   3.541   2.145   4.134  1.2531  0.8650 -2.1970
   41MOL    H7712957   3.469   2.286   4.231  1.1051 -1.4459  0.6315
   41MOL    H7812958   3.373   2.198   4.114  0.4151 -0.0730 -3.1775
   41MOL    H7912959   3.731   2.269   4.061  0.0219  0.0635 -0.3937
   41MOL    H8012960   3.687   2.418   4.150 -1.3476  0.3827  0.5108
   41MOL    H8112961   3.726   2.418   3.980 -1.7390  1.6655  0.5160
   41MOL    C8212962   3.373   2.347   3.730 -0.6221 -0.0334 -0.1358
   41MOL    C8312963   3.355   2.464   3.633 -0.4754 -0.7004  0.1266
   41MOL    O8412964   3.221   2.455   3.574  0.0233 -0.2755 -0.0526
   41MOL    C8512965   3.216   2.386   3.444 -0.2936 -0.5281  0.2897
   41MOL    C8612966   3.244   2.490   3.327 -0.1674  0.1706  0.4499
   41MOL    C8712967   3.083   2.325   3.425  0.3676  0.3286  0.1868
   41MOL    H8812968   3.330   2.259   3.682  2.4808 -0.9606 -1.3946
   41MOL    H8912969   3.308   2.375   3.812 -0.9379  0.5103 -0.5756
   41MOL    H9012970   3.433   2.461   3.557 -0.1962  2.1892  0.2340
   41MOL    H9112971   3.295   2.311   3.444  0.2899  0.0779  1.4319
   41MOL    H9212972   3.216   2.469   3.224  1.1263  0.2276  0.0762
   41MOL    H9312973   3.190   2.582   3.353  0.4782  0.5145  0.5819
   41MOL    H9412974   3.350   2.515   3.332  0.0566 -0.6818  0.0285
   41MOL    H9512975   3.041   2.291   3.520  0.3971  0.3884  0.2216
   41MOL    H9612976   3.011   2.391   3.376 -1.1523 -1.1698  0.3379
   41MOL    H9712977   3.085   2.235   3.364 -0.8134  0.9006 -0.7146
   41MOL    C9812978   3.357   2.595   3.718  0.0550  0.2570 -0.3743
   41MOL    C9912979   3.349   2.718   3.634 -0.9144 -0.8182 -0.6117
   41MOL   O10012980   3.433   2.824   3.689 -0.0613 -0.2606  0.0232
   41MOL   C10112981   3.568   2.819   3.661 -0.5274  0.4398  0.0629
   41MOL   C10212982   3.642   2.864   3.789  0.2060 -0.0214 -0.7758
   41MOL   C10312983   3.596   2.914   3.545 -0.7483 -0.2588  0.2738
   41MOL   H10412984   3.281   2.597   3.795  0.5740 -0.0366  0.1515
   41MOL   H10512985   3.456   2.599   3.764 -0.4729  1.6424  0.6814
   41MOL   H10612986   3.376   2.700   3.530 -1.7094 -4.9018 -0.1909
   41MOL   H10712987   3.599   2.720   3.629 -0.8024  0.8389 -1.4873
   41MOL   H10812988   3.615   2.797   3.871 -2.1087 -1.0111 -2.2840
   41MOL   H10912989   3.614   2.966   3.815  1.2563  0.6691 -2.2524
   41MOL   H11012990   3.751   2.853   3.789 -0.0057 -2.6209  1.2609
   41MOL   H11112991   3.570   2.850   3.461 -1.4966 -2.1054  1.8551
   41MOL   H11212992   3.701   2.942   3.548 -0.7490 -0.3192  1.0102
   41MOL   H11312993   3.531   3.001   3.539 -0.0167  0.4242  1.8683
   41MOL   C11412994   3.209   2.777   3.633 -0.4503 -0.4207 -0.1773
   41MOL   C11512995   3.199   2.881   3.519  0.0296 -0.4794 -0.3303
   41MOL   O11612996   3.204   2.810   3.390 -0.0334 -0.5000  0.2490
   41MOL   C11712997   3.234   2.875   3.265  0.1963 -0.6530  0.3171
   41MOL   C11812998   3.170   2.801   3.151 -0.2248  0.7731  0.0259
   41MOL   C11912999   3.385   2.882   3.267  0.4341 -0.5055 -0.4877
   41MOL   H12013000   3.184   2.821   3.730 -1.4007 -1.1131 -0.0970
   41MOL   H12113001   3.137   2.696   3.620 -0.0090 -0.6961 -0.9111
   41MOL   H12213002   3.293   2.932   3.538  0.5751 -1.8241  0.6278
   41MOL   H12313003   3.189   2.974   3.274 -0.1855 -0.8052  0.0613
   41MOL   H12413004   3.182   2.858   3.059  3.2471 -1.8802 -1.2736
   41MOL   H12513005   3.064   2.791   3.174 -0.5279 -0.5265 -1.8563
   41MOL   H12613006   3.212   2.702   3.134 -1.2583 -0.0276  1.9147
   41MOL   H12713007   3.437   2.792   3.299  0.3741 -0.5949 -0.6446
   41MOL   H12813008   3.413   2.945   3.352 -1.6889 -1.4898  0.9917
   41MOL   H12913009   3.416   2.928   3.173 -1.5792  0.3827 -0.7501
   41MOL   C13013010   3.076   2.975   3.527 -0.0806 -0.0293 -0.4389
   41MOL   C13113011   3.084   3.090   3.624  0.0550 -0.7887  0.0216
   41MOL   O13213012   3.065   3.030   3.757  0.0097 -0.3150 -0.0311
   41MOL   C13313013   3.117   3.102   3.865 -0.2554  0.1991  0.1581
   41MOL   C13413014   3.017   3.089   3.985 -0.6866 -0.7090  0.4114
   41MOL   C13513015   3.258   3.052   3.919 -0.1909  0.0474  0.0097
   41MOL   H13613016   2.991   2.915   3.559  0.4808 -1.5156 -1.6712
   41MOL   H13713017   3.043   3.000   3.426 -1.9148 -2.4597 -0.5072
   41MOL   H13813018   3.185   3.130   3.615 -0.6242  0.5974 -1.6836
   41MOL   H13913019   3.114   3.210   3.850  2.8321  0.3726  0.5334
   41MOL   H14013020   2.913   3.113   3.964 -0.7344 -2.0837 -0.9955
   41MOL   H14113021   3.049   3.146   4.072 -0.1911  1.0539 -0.9042
   41MOL   H14213022   3.030   2.988   4.025  1.5235 -1.9498 -3.2069
   41MOL   H14313023   3.291   3.091   4.015 -0.7066 -0.1586  0.2744
   41MOL   H14413024   3.259   2.943   3.921 -0.3562  0.0518  0.3655
   41MOL   H14513025   3.335   3.079   3.847 -0.7010 -1.7293 -1.2423
   41MOL   C14613026   2.987   3.207   3.606  0.0090 -0.5796 -0.1187
   41MOL   C14713027   3.056   3.344   3.588 -0.6306  0.4634 -0.9192
   41MOL   O14813028   3.101   3.341   3.450 -0.5768  0.3305  0.1622
   41MOL   C14913029   3.227   3.392   3.418 -0.2903  0.6514 -0.1936
   41MOL   C15013030   3.216   3.474   3.290  0.1962  1.0423  0.1874
   41MOL   C15113031   3.322   3.265   3.399  0.4049 -0.2134  0.8771
   41MOL   H15213032   2.913   3.200   3.686  0.6208  1.0466  0.6233
   41MOL   H15313033   2.930   3.194   3.514  0.9445 -0.9422 -0.6454
   41MOL   H15413034   3.140   3.352   3.658  1.0186 -0.1141 -2.7797
   41MOL   H15513035   3.259   3.455   3.501 -1.3341  0.8912  0.0340
   41MOL   H15613036   3.312   3.491   3.241  0.2019  0.2340 -0.0869
   41MOL   H15713037   3.159   3.566   3.300  1.8229  1.9316  1.4910
   41MOL   H15813038   3.168   3.401   3.225  0.6962  1.2035 -0.3669
   41MOL   H15913039   3.313   3.187   3.474  1.4444 -1.4275 -0.2228
   41MOL   H16013040   3.424   3.298   3.380 -0.3456  0.4108 -2.5941
   41MOL   H16113041   3.283   3.217   3.308 -1.4631  3.0576 -0.1263
   41MOL   C16213042   2.967   3.464   3.598  0.0475 -0.2248  0.3126
   41MOL   C16313043   2.964   3.534   3.738 -0.4960 -0.2082 -0.1100
   41MOL   O16413044   2.893   3.653   3.727 -0.0353  0.2696 -0.1693
   41MOL   C16513045   2.957   3.786   3.715 -0.6867  0.3009  0.2618
   41MOL   C16613046   3.011   3.837   3.844 -0.0294 -0.3786  0.6485
   41MOL   C16713047   2.857   3.886   3.660  0.7621 -0.2824  0.5204
   41MOL   H16813048   3.015   3.541   3.537 -1.1391 -0.6204 -1.1460
   41MOL   H16913049   2.868   3.448   3.556  0.8615  2.4727 -2.7916
   41MOL   H17013050   3.061   3.538   3.786  0.0023 -0.8305 -1.0533
   41MOL   H17113051   3.043   3.778   3.649 -0.7334 -1.7061  0.4324
   41MOL   H17213052   2.933   3.885   3.904  1.7378  2.0174  1.1423
   41MOL   H17313053   3.097   3.903   3.833  1.1849 -2.1840 -0.8135
   41MOL   H17413054   3.053   3.761   3.910  1.0064 -0.5980 -0.2613
   41MOL   H17513055   2.796   3.919   3.744 -0.1141  0.9443 -0.5727
   41MOL   H17613056   2.768   3.846   3.612  1.7375  0.4500 -1.9951
   41MOL   H17713057   2.904   3.969   3.607  1.5403 -2.1708 -1.8105
   41MOL   C17813058   2.863   3.457   3.827 -0.1622  0.0670  0.2746
   41MOL   C17913059   2.850   3.502   3.974  0.1806  0.3929 -0.0845
   41MOL   O18013060   2.756   3.429   4.053 -0.0931  0.2818 -0.0228
   41MOL   C18113061   2.618   3.418   4.011  0.0811 -0.5131  1.0787
   41MOL   C18213062   2.542   3.554   4.015  0.2776 -0.4251 -0.3558
   41MOL   C18313063   2.548   3.304   4.083  0.1960 -0.0915  0.0489
   41MOL   H18413064   2.871   3.349   3.831  0.6227  0.1120 -0.0308
   41MOL   H18513065   2.768   3.468   3.776  0.7875  1.1509 -1.2967
   41MOL   H18613066   2.821   3.607   3.987  2.6244  1.2285 -1.0401
   41MOL   H18713067   2.624   3.390   3.905 -1.0184  1.4997  0.4537
   41MOL   H18813068   2.446   3.551   3.963  1.0088 -0.0951 -1.7429
   41MOL   H18913069   2.595   3.631   3.958 -1.8541  0.6207 -0.9877
   41MOL   H19013070   2.529   3.592   4.116  0.0748  1.1783 -0.9616
   41MOL   H19113071   2.450   3.284   4.038  1.5114 -2.8121 -1.7402
   41MOL   H19213072   2.554   3.305   4.192 -1.7948  0.1397  0.1861
   41MOL   H19313073   2.593   3.212   4.045 -0.2130 -0.3567  0.1998
   41MOL   C19413074   2.975   3.487   4.056 -0.3762 -0.5093  0.2269
   41MOL   C19513075   2.981   3.554   4.195 -0.4759  0.3722 -0.1862
   41MOL   O19613076   2.997   3.702   4.184 -0.4705  0.3802 -0.0664
   41MOL   C19713077   2.919   3.782   4.275 -0.1889  0.4095 -0.2726
   41MOL   C19813078   2.966   3.924   4.251  0.1842  0.4228 -0.0793
   41MOL   C19913079   2.767   3.768   4.245 -0.4013 -0.1015 -0.4886
   41MOL   H20013080   2.989   3.380   4.068  0.1933 -0.8379 -2.8184
   41MOL   H20113081   3.056   3.531   3.998 -0.8405  0.7358  0.5123
   41MOL   H20213082   2.886   3.535   4.244 -0.0341  1.1430  0.9860
   41MOL   H20313083   2.933   3.754   4.379  0.7561  0.1972 -0.4516
   41MOL   H20413084   2.967   3.954   4.146 -1.0886  3.9065  0.8399
   41MOL   H20513085   2.895   3.985   4.308  2.0350 -0.3925  3.2623
   41MOL   H20613086   3.060   3.945   4.301 -0.2652  0.4562  0.7596
   41MOL   H20713087   2.719   3.673   4.271 -0.1782 -0.1956 -0.4192
   41MOL   H20813088   2.714   3.843   4.302  1.7393  1.0957 -0.0177
   41MOL   H20913089   2.753   3.789   4.139  2.4868 -2.9559 -1.5022
   41MOL   C21013090   3.096   3.515   4.287  0.0806  0.4984  0.4356
   41MOL   C21113091   3.235   3.537   4.220 -1.1147 -0.3389 -0.2078
   41MOL   O21213092   3.329   3.576   4.323  0.4529  0.7253 -0.5684
   41MOL   C21313093   3.334   3.721   4.339  0.2649 -0.0288  0.6985
   41MOL   C21413094   3.339   3.757   4.487  0.2640 -0.1720  0.3095
   41MOL   C21513095   3.467   3.771   4.265 -0.6116  0.5788 -0.5124
   41MOL   H21613096   3.080   3.413   4.323  2.2992  0.7581  2.2653
   41MOL   H21713097   3.089   3.579   4.375 -1.1326  2.0272 -0.7379
   41MOL   H21813098   3.232   3.610   4.139  2.0701  0.9573  0.7576
   41MOL   H21913099   3.241   3.767   4.304 -0.9169 -1.9613  1.2094
   41MOL   H22013100   3.319   3.863   4.505 -2.3294 -0.7194  0.8393
   41MOL   H22113101   3.441   3.728   4.512  0.6434 -1.7093 -2.7858
   41MOL   H22213102   3.275   3.692   4.546 -1.8719 -1.1966 -3.0056
   41MOL   H22313103   3.492   3.877   4.278  0.0893  0.5448 -1.5577
   41MOL   H22413104   3.461   3.755   4.157  4.4555 -0.0308 -0.8188
   41MOL   H22513105   3.550   3.707   4.292 -2.2698 -0.5424  2.1145
   41MOL   C22613106   3.297   3.406   4.164 -0.3991 -0.2541  0.3258
   41MOL   C22713107   3.421   3.430   4.085  0.4462 -0.1211 -0.8388
   41MOL   O22813108   3.375   3.482   3.963  0.2946  0.0733 -0.6746
   41MOL   C22913109   3.460   3.575   3.895 -0.2183  0.2008  0.0274
   41MOL   C23013110   3.370   3.703   3.884 -0.1863  0.0291  0.0653
   41MOL   C23113111   3.487   3.518   3.752 -0.0018 -0.6033  0.1734
   41MOL   H23213112   3.226   3.337   4.118 -0.3038 -0.8139  0.9957
   41MOL   H23313113   3.337   3.342   4.243 -0.0338 -1.2785 -0.6796
   41MOL   H23413114   3.486   3.503   4.133  2.3832 -1.8417 -0.8105
   41MOL   H23513115   3.550   3.599   3.952  0.5694  2.2744 -1.9871
   41MOL   H23613116   3.432   3.786   3.852  0.9478 -0.7499  0.2351
   41MOL   H23713117   3.294   3.681   3.808  1.1113 -1.4501 -0.8206
   41MOL   H23813118   3.330   3.740   3.978  2.4117 -1.5584  1.8312
   41MOL   H23913119   3.567   3.443   3.754 -0.8676 -1.5250  0.8927
   41MOL   H24013120   3.523   3.591   3.679  2.3907 -1.3309  0.5572
   41MOL   H24113121   3.404   3.466   3.704  1.5769 -1.7589 -1.3742
   41MOL   C24213122   3.502   3.309   4.048 -0.1249 -0.2186  0.4304
   41MOL   C24313123   3.565   3.232   4.162  0.4506 -0.2403  0.1572
   41MOL   O24413124   3.697   3.284   4.177  0.7082 -0.1732 -0.1023
   41MOL   C24513125   3.713   3.384   4.280  0.9063 -0.2154 -0.3348
   41MOL   C24613126   3.802   3.319   4.389  0.0506  0.0696  0.4709
   41MOL   C24713127   3.786   3.507   4.225  0.3988 -0.5675 -0.8738
   41MOL   H24813128   3.438   3.241   3.992 -1.6265  2.4006 -1.0964
   41MOL   H24913129   3.576   3.335   3.972 -0.6636  0.7753  0.2448
   41MOL   H25013130   3.514   3.236   4.258 -1.2658 -0.2988 -0.7376
   41MOL   H25113131   3.620   3.426   4.319  0.9691  2.4833 -2.8589
   41MOL   H25213132   3.817   3.385   4.474  0.8220  2.4952 -1.4919
   41MOL   H25313133   3.749   3.231   4.425 -1.1826  0.8079  0.4797
   41MOL   H25413134   3.904   3.303   4.354  0.3116  0.9771  0.8165
   41MOL   H25513135   3.883   3.469   4.192  1.4976  1.8445 -0.5067
   41MOL   H25613136   3.735   3.569   4.151 -0.5861  1.6544  1.5923
   41MOL   H25713137   3.823   3.569   4.306  1.0187  0.7523 -2.1609
   41MOL   C25813138   3.590   3.082   4.128  0.4883 -1.0267  0.1489
   41MOL   C25913139   3.675   2.996   4.217 -1.0058  0.9223 -1.0591
   41MOL   O26013140   3.707   2.879   4.140  0.8718 -0.5442  0.4941
   41MOL   C26113141   3.847   2.831   4.142 -0.1197 -0.6655  0.0986
   41MOL   C26213142   3.866   2.678   4.105  0.1109 -0.5080 -0.2415
   41MOL   C26313143   3.922   2.915   4.039 -0.3102  0.6332 -0.1052
   41MOL   H26413144   3.492   3.035   4.120  0.0208 -0.1410  0.6515
   41MOL   H26513145   3.630   3.080   4.026 -1.2316 -2.4067 -0.5237
   41MOL   H26613146   3.759   3.046   4.264 -0.6657 -1.9023  1.5364
   41MOL   H26713147   3.893   2.840   4.241 -0.6020 -1.3164  0.3916
   41MOL   H26813148   3.812   2.652   4.013  1.7680  0.8354 -1.6447
   41MOL   H26913149   3.817   2.613   4.177  2.2333 -0.0842  1.6233
   41MOL   H27013150   3.970   2.647   4.111 -0.1934 -1.2870  1.2661
   41MOL   H27113151   3.931   3.019   4.071  1.7248  0.5405 -0.2760
   41MOL   H27213152   4.022   2.879   4.013 -0.3672  0.8134 -0.5921
   41MOL   H27313153   3.866   2.921   3.945 -0.4249 -2.1776 -0.2378
   41MOL   C27413154   3.589   2.951   4.343 -0.5052 -0.5624  0.2471
   41MOL   C27513155   3.669   2.874   4.457  0.3440 -0.2674 -0.3426
   41MOL   O27613156   3.756   2.954   4.527  0.1244 -0.4048 -0.2817
   41MOL   C27713157   3.856   2.887   4.601 -0.8044 -0.3285 -0.2190
   41MOL   C27813158   3.880   2.971   4.724 -0.2085  0.5929 -0.3940
   41MOL   C27913159   3.989   2.877   4.519  0.6514 -0.3925  0.3685
   41MOL   H28013160   3.550   3.037   4.397  2.8276  0.7102  0.7567
   41MOL   H28113161   3.503   2.893   4.308 -0.4841 -1.6971  2.0366
   41MOL   H28213162   3.722   2.793   4.406  0.5053  0.4460 -1.3114
   41MOL   H28313163   3.839   2.785   4.636  0.0528  0.1585  1.7219
   41MOL   H28413164   3.924   2.899   4.793  0.8871  1.0715 -0.5721
   41MOL   H28513165   3.937   3.062   4.705 -0.6681  1.3835  1.8505
   41MOL   H28613166   3.789   3.008   4.771  0.6154 -0.0222  1.7521
   41MOL   H28713167   3.989   2.811   4.432  2.0821  0.9290 -0.6505
   41MOL   H28813168   4.073   2.846   4.581  1.4977  0.5492 -0.3037
   41MOL   H28913169   4.009   2.975   4.478  1.7536 -1.8598 -2.7618
   41MOL   C29013170   3.572   2.809   4.555 -0.4172 -0.4471 -0.5014
   41MOL   C29113171   3.497   2.688   4.485  0.3031 -0.6030  0.3019
   41MOL   O29213172   3.556   2.576   4.551 -0.3248  0.2007  0.0253
   41MOL   C29313173   3.553   2.448   4.486 -0.3265  0.5211 -0.0765
   41MOL   C29413174   3.517   2.336   4.581 -0.5276  0.1793  0.4371
   41MOL   C29513175   3.689   2.442   4.422  0.4814 -0.1315  0.0184
   41MOL   H29613176   3.515   2.886   4.607  1.4361  1.8948 -1.7878
   41MOL   H29713177   3.621   2.778   4.647  1.1984  2.2356 -0.4050
   41MOL   H29813178   3.518   2.682   4.378 -1.1415  1.2797 -0.1023
   41MOL   H29913179   3.477   2.441   4.407  0.6168  0.5461 -0.9991
   41MOL   H30013180   3.424   2.354   4.633 -1.1229  1.2719 -0.9700
   41MOL   H30113181   3.499   2.241   4.530 -1.0515  0.4719  0.0796
   41MOL   H30213182   3.599   2.327   4.652  1.2678 -1.2091 -1.7423
   41MOL   H30313183   3.718   2.347   4.377 -1.9187 -0.4727 -0.8911
   41MOL   H30413184   3.692   2.524   4.350 -2.6018 -0.2738 -0.3296
   41MOL   H30513185   3.757   2.461   4.505  0.7434  3.6732 -0.9961
   41MOL   C30613186   3.345   2.695   4.507 -0.4808 -0.1517 -0.7202
   41MOL   C30713187   3.258   2.810   4.449  0.5621 -0.7496  0.3189
   41MOL   O30813188   3.247   2.915   4.545  0.3838 -0.8961 -0.4755
   41MOL   C30913189   3.158   3.013   4.495  0.0426  0.3314 -0.4914
   41MOL   C31013190   3.142   3.104   4.614 -0.5341 -0.0987 -0.5156
   41MOL   C31113191   3.208   3.102   4.382 -0.0813 -0.4772  0.2515
   41MOL   H31213192   3.332   2.692   4.615  2.6432  3.2263 -0.1067
   41MOL   H31313193   3.302   2.602   4.470 -2.3213  0.0377  0.8545
   41MOL   H31413194   3.301   2.842   4.355  1.9653 -2.0768  0.4900
   41MOL   H31513195   3.062   2.967   4.473 -0.2043  0.2786  0.6280
   41MOL   H31613196   3.107   3.059   4.707  3.5508  0.5206  1.4013
   41MOL   H31713197   3.058   3.172   4.595  0.3731  1.4595  0.9251
   41MOL   H31813198   3.231   3.159   4.643 -0.7765 -1.7663  3.7365
   41MOL   H31913199   3.307   3.142   4.401 -0.5203  0.6051  0.3062
   41MOL   H32013200   3.146   3.189   4.360 -1.6755 -1.1779  1.8377
   41MOL   H32113201   3.207   3.033   4.297 -2.1601  0.0020 -0.1555
   41MOL   H32213202   3.159   2.770   4.427  0.0117  0.2979  0.8175
   42MOL     C113203   4.597   0.417   3.934 -0.1002  0.0519  0.4461
   42MOL     C213204   4.648   0.370   3.799 -0.0696 -0.5826  0.4433
   42MOL     O313205   4.619   0.230   3.782 -0.3999  0.1412 -0.5988
   42MOL     C413206   4.730   0.149   3.739 -0.0932  0.1691 -1.0986
   42MOL     C513207   4.677   0.020   3.687  0.3919 -0.1956  0.0130
   42MOL     C613208   4.824   0.131   3.859 -0.6143 -0.5314  0.3128
   42MOL     H713209   4.621   0.522   3.952 -1.8490  0.9901 -2.3408
   42MOL     H813210   4.488   0.412   3.938 -0.0904 -0.2271  0.3424
   42MOL     H913211   4.756   0.385   3.806  0.3575 -2.9278 -0.5050
   42MOL    H1013212   4.778   0.199   3.654  0.9137  0.8432 -0.1476
   42MOL    H1113213   4.762   7.791   3.641  0.3488  0.1622 -0.4494
   42MOL    H1213214   4.633   7.780   3.766 -0.8342  0.7835  0.0844
   42MOL    H1313215   4.601   0.026   3.610  1.5117  0.2614 -1.0659
   42MOL    H1413216   4.924   0.093   3.841 -0.1573 -0.6998  3.0448
   42MOL    H1513217   4.847   0.218   3.919 -1.1529  0.1242 -0.4094
   42MOL    H1613218   4.781   0.061   3.931  2.2297 -1.5248  1.0992
   42MOL    H1713219   4.646   0.361   4.014 -0.8746  0.0419  0.9205
   42MOL    C1813220   4.574   0.449   3.690 -0.1816  0.5792  0.0770
   42MOL    C1913221   4.636   0.431   3.545 -0.6843  0.5098  0.1654
   42MOL    O2013222   4.749   0.520   3.544  0.1609 -0.5442  0.2752
   42MOL    C2113223   4.847   0.474   3.456 -0.6710 -0.0152 -0.1235
   42MOL    C2213224   4.980   0.468   3.541 -0.7346 -0.2878 -0.0889
   42MOL    C2313225   4.857   0.570   3.339  0.9953  1.3230  0.1141
   42MOL    H2413226   4.470   0.417   3.698  0.1850 -1.1570 -1.6661
   42MOL    H2513227   4.575   0.554   3.717  0.2738  1.0978 -1.8261
   42MOL    H2613228   4.670   0.328   3.532 -0.4011  0.9117 -2.4846
   42MOL    H2713229   4.826   0.377   3.412  0.7906 -0.2588 -0.2872
   42MOL    H2813230   5.075   0.458   3.489  0.5584  0.7361  2.0219
   42MOL    H2913231   4.994   0.557   3.603 -3.2270  1.2398 -1.6572
   42MOL    H3013232   4.965   0.396   3.622 -1.8201 -1.2335 -1.1169
   42MOL    H3113233   4.950   0.544   3.290 -0.1029 -1.9534 -0.3488
   42MOL    H3213234   4.849   0.674   3.370  0.3762  1.0894  0.7766
   42MOL    H3313235   4.778   0.545   3.268  2.0505  0.2219 -0.6944
   42MOL    C3413236   4.539   0.449   3.426  0.2306 -0.5510 -0.0018
   42MOL    C3513237   4.388   0.408   3.440 -0.0680  0.4740  0.4034
   42MOL    O3613238   4.320   0.433   3.318  0.0694 -0.3239  0.6847
   42MOL    C3713239   4.264   0.566   3.296 -0.1223  0.5982  0.7960
   42MOL    C3813240   4.230   0.570   3.139  0.2501  0.9399 -0.7892
   42MOL    C3913241   4.142   0.608   3.385 -0.1174  0.5924  0.0166
   42MOL    H4013242   4.591   0.403   3.342  1.6372 -0.7480  0.9655
   42MOL    H4113243   4.550   0.554   3.397  2.1432 -0.6146  0.4662
   42MOL    H4213244   4.342   0.469   3.517 -0.3908  0.8546 -0.0940
   42MOL    H4313245   4.345   0.638   3.309 -0.4279  0.6004  2.7476
   42MOL    H4413246   4.157   0.492   3.114 -0.1144  0.3740  1.8643
   42MOL    H4513247   4.320   0.561   3.078 -0.6305  1.4491 -2.1978
   42MOL    H4613248   4.185   0.667   3.120  0.1799  1.3154  1.1506
   42MOL    H4713249   4.101   0.523   3.442  1.0834  0.6802  1.0353
   42MOL    H4813250   4.166   0.682   3.462 -0.3507  0.1002  0.5716
   42MOL    H4913251   4.060   0.646   3.324 -0.5381  0.2473  0.3584
   42MOL    C5013252   4.377   0.263   3.466  0.1934 -0.2356 -0.2328
   42MOL    C5113253   4.233   0.220   3.518  0.2911  0.2155 -0.2571
   42MOL    O5213254   4.194   0.299   3.630  0.2448  0.5646  0.4075
   42MOL    C5313255   4.061   0.347   3.649  0.4658 -1.1294 -0.4786
   42MOL    C5413256   4.073   0.479   3.740  0.2982  0.3139  0.1938
   42MOL    C5513257   3.977   0.244   3.705  0.3074  0.3224  0.4421
   42MOL    H5613258   4.417   0.204   3.384 -2.2233  0.3382 -1.8657
   42MOL    H5713259   4.450   0.240   3.544 -0.4011 -0.9353  0.1243
   42MOL    H5813260   4.156   0.246   3.445 -0.1833 -2.1528 -0.6414
   42MOL    H5913261   4.003   0.372   3.559  0.3158  0.8928  0.1458
   42MOL    H6013262   4.090   0.443   3.841  0.4353 -2.0856 -0.6334
   42MOL    H6113263   3.979   0.533   3.738  0.1062 -0.0303 -1.0448
   42MOL    H6213264   4.151   0.552   3.717  1.3780 -1.3598 -1.6484
   42MOL    H6313265   3.877   0.276   3.732  0.6211 -0.7035  3.0175
   42MOL    H6413266   4.016   0.201   3.798 -0.6937  0.0024  0.7206
   42MOL    H6513267   3.962   0.174   3.624  1.3855  0.9136 -0.2864
   42MOL    C6613268   4.225   0.070   3.559 -0.5008 -0.7916  0.1287
   42MOL    C6713269   4.202   7.793   3.445  0.0309  0.4411  0.0936
   42MOL    O6813270   4.065   7.799   3.387 -0.2422 -0.0445  0.0266
   42MOL    C6913271   4.067   7.810   3.245 -0.4407  0.0283 -0.1702
   42MOL    C7013272   3.934   7.752   3.194  0.0902 -0.6930 -0.6334
   42MOL    C7113273   4.082   0.131   3.184  0.5873  0.1558 -0.5272
   42MOL    H7213274   4.322   0.046   3.602  0.1866 -0.0177 -0.9684
   42MOL    H7313275   4.168   0.050   3.649 -1.7483  1.8496 -0.0405
   42MOL    H7413276   4.275   7.811   3.367  0.2972  0.7110  0.4007
   42MOL    H7513277   4.146   7.746   3.205  0.1830  0.5391  0.2242
   42MOL    H7613278   3.911   7.773   3.090  0.4163 -0.2798 -0.6209
   42MOL    H7713279   3.926   7.646   3.222 -2.6282 -0.1006  1.0374
   42MOL    H7813280   3.849   7.805   3.238  0.4637 -1.7072  1.3903
   42MOL    H7913281   4.167   0.183   3.228  1.9856 -0.0740 -2.8682
   42MOL    H8013282   4.001   0.200   3.205 -2.4215 -3.4883  0.4098
   42MOL    H8113283   4.088   0.130   3.075  1.1543  1.1425 -0.5114
   42MOL    C8213284   4.211   7.655   3.517  0.7354  0.1827  0.0607
   42MOL    C8313285   4.229   7.540   3.424  0.6608 -0.0896 -0.3280
   42MOL    O8413286   4.364   7.558   3.388  0.0553 -0.1522  0.5946
   42MOL    C8513287   4.405   7.499   3.254 -0.3665  0.2271 -0.2124
   42MOL    C8613288   4.524   7.414   3.267 -0.1957  0.7599 -0.5948
   42MOL    C8713289   4.433   7.617   3.162 -0.0547  0.0469 -0.2554
   42MOL    H8813290   4.300   7.663   3.579  0.2732 -0.9306  0.8813
   42MOL    H8913291   4.138   7.645   3.597  0.7958  1.6792  0.3223
   42MOL    H9013292   4.167   7.545   3.334  0.0887 -1.6086 -0.0337
   42MOL    H9113293   4.323   7.441   3.213  1.2528 -2.3742  0.1227
   42MOL    H9213294   4.618   7.465   3.288  0.8490 -2.0639  2.0735
   42MOL    H9313295   4.502   7.340   3.344 -0.3524 -0.0097 -1.3768
   42MOL    H9413296   4.545   7.365   3.173  1.0240 -0.1008  0.1092
   42MOL    H9513297   4.453   7.580   3.061 -2.9565 -0.2161 -0.7781
   42MOL    H9613298   4.346   7.682   3.157 -1.2234 -1.4031  0.5070
   42MOL    H9713299   4.510   7.680   3.206  0.7789 -3.2889  3.3187
   42MOL    C9813300   4.201   7.403   3.492 -0.5285  0.0533 -0.0148
   42MOL    C9913301   4.065   7.373   3.546  0.4581  0.4206 -0.8284
   42MOL   O10013302   4.074   7.249   3.622 -0.1693  0.0213  0.1554
   42MOL   C10113303   4.039   7.266   3.764 -0.0032  0.2937  0.0237
   42MOL   C10213304   4.147   7.335   3.851  0.8185 -0.2305  0.2954
   42MOL   C10313305   4.022   7.121   3.817  0.3687  0.3208  0.2853
   42MOL   H10413306   4.236   7.329   3.421  1.4187 -0.7070  1.6682
   42MOL   H10513307   4.265   7.390   3.579  2.4159 -1.4828 -2.3516
   42MOL   H10613308   4.026   7.450   3.611  0.8027  0.3813 -0.5706
   42MOL   H10713309   3.943   7.317   3.767 -0.2100  0.1860 -2.9461
   42MOL   H10813310   4.166   7.438   3.821  0.2176 -0.7936 -2.0713
   42MOL   H10913311   4.243   7.283   3.855 -0.3956 -2.4797  0.8765
   42MOL   H11013312   4.117   7.328   3.956 -1.5168  2.9307 -0.0803
   42MOL   H11113313   4.114   7.066   3.800  0.3434  0.9706 -2.1047
   42MOL   H11213314   3.945   7.070   3.758  2.4818 -1.0825 -1.3362
   42MOL   H11313315   3.989   7.120   3.921  1.6338  1.4148  0.7019
   42MOL   C11413316   3.964   7.345   3.433 -0.5149  0.7170 -0.1660
   42MOL   C11513317   3.815   7.332   3.481  0.7446  0.3404 -0.2554
   42MOL   O11613318   3.725   7.371   3.382  0.1228 -0.8252 -1.0404
   42MOL   C11713319   3.691   7.505   3.367 -0.2964  0.4402  0.0357
   42MOL   C11813320   3.567   7.532   3.456  0.4586 -0.2722  0.9497
   42MOL   C11913321   3.651   7.520   3.223  0.0413  0.7701 -0.2325
   42MOL   H12013322   3.985   7.265   3.361 -2.1845 -0.7027  0.8765
   42MOL   H12113323   3.966   7.438   3.376 -1.2039 -0.1749 -1.6975
   42MOL   H12213324   3.798   7.390   3.571  1.9600  0.8066 -0.3204
   42MOL   H12313325   3.777   7.560   3.407 -0.0610 -2.0712  3.2082
   42MOL   H12413326   3.535   7.637   3.452 -1.6747 -0.9407 -0.4709
   42MOL   H12513327   3.576   7.510   3.562  0.3313  0.8304  1.2000
   42MOL   H12613328   3.481   7.469   3.432 -0.6214  0.9107  1.6022
   42MOL   H12713329   3.569   7.450   3.206  0.5016  0.2923 -0.4982
   42MOL   H12813330   3.730   7.494   3.152  0.2256  3.2073 -0.9938
   42MOL   H12913331   3.619   7.621   3.198 -2.8827  0.6276  2.6036
   42MOL   C13013332   3.774   7.189   3.520 -0.0121  0.3564 -0.5085
   42MOL   C13113333   3.655   7.181   3.611  1.2352 -0.0639 -0.4945
   42MOL   O13213334   3.711   7.206   3.743 -0.6984  0.1865  0.2278
   42MOL   C13313335   3.629   7.260   3.846  0.4029  0.5493 -0.2731
   42MOL   C13413336   3.713   7.250   3.974  0.5182 -0.1079 -0.6702
   42MOL   C13513337   3.599   7.404   3.806 -0.4289  0.3505 -0.1884
   42MOL   H13613338   3.861   7.134   3.558  0.2664  2.0092  1.3121
   42MOL   H13713339   3.752   7.130   3.430  0.0355  0.4254 -0.5651
   42MOL   H13813340   3.573   7.245   3.579  0.0563 -1.0605  0.4923
   42MOL   H13913341   3.543   7.196   3.866  3.3300 -3.6639 -0.6025
   42MOL   H14013342   3.804   7.310   3.972  2.3423 -2.5839  2.2647
   42MOL   H14113343   3.730   7.144   3.996  0.5571 -0.0066 -0.1929
   42MOL   H14213344   3.672   7.295   4.065  0.9653  0.4377 -0.7398
   42MOL   H14313345   3.565   7.467   3.888  2.0646  0.7830  0.5507
   42MOL   H14413346   3.688   7.454   3.768 -0.2955  1.2663  1.2954
   42MOL   H14513347   3.515   7.398   3.736 -1.0216 -0.3584  0.5727
   42MOL   C14613348   3.615   7.027   3.629  0.0880 -0.3780  0.5786
   42MOL   C14713349   3.508   6.971   3.524  0.1803  0.6654  0.1703
   42MOL   O14813350   3.577   6.931   3.407 -0.6009 -0.0786 -0.9172
   42MOL   C14913351   3.559   7.003   3.282  0.3001 -0.2360  0.5674
   42MOL   C15013352   3.419   6.948   3.227  0.3573  0.5825 -0.3854
   42MOL   C15113353   3.676   6.981   3.180  0.0742 -0.0948 -0.4107
   42MOL   H15213354   3.580   7.018   3.732  0.8233 -1.2705  0.7551
   42MOL   H15313355   3.697   6.955   3.622  0.7465  0.3149  1.1045
   42MOL   H15413356   3.434   7.050   3.521 -0.4019  0.0743 -2.5012
   42MOL   H15513357   3.550   7.111   3.294 -1.9438 -0.1834 -1.3375
   42MOL   H15613358   3.441   6.844   3.206  1.6962  0.6681  0.5374
   42MOL   H15713359   3.372   6.990   3.138 -0.3808 -1.8130 -1.1403
   42MOL   H15813360   3.343   6.945   3.306 -0.6600  3.8252 -1.1523
   42MOL   H15913361   3.672   6.872   3.175  0.2667 -0.1237  0.0375
   42MOL   H16013362   3.774   7.017   3.210 -0.2963 -0.0167  0.7076
   42MOL   H16113363   3.644   7.018   3.082 -1.4958 -1.5921 -0.4787
   42MOL   C16213364   3.442   6.844   3.579 -0.5389  0.6186 -0.5113
   42MOL   C16313365   3.336   6.881   3.685 -0.2139 -0.0090  0.1923
   42MOL   O16413366   3.236   6.964   3.620  0.5799 -0.4734  0.1586
   42MOL   C16513367   3.168   7.049   3.715 -0.6472  0.0123 -0.9671
   42MOL   C16613368   3.022   7.066   3.674  0.1726  0.5341 -0.2336
   42MOL   C16713369   3.244   7.178   3.700 -0.4087 -0.0450  0.1417
   42MOL   H16813370   3.397   6.780   3.503 -0.6444 -0.6757  0.6235
   42MOL   H16913371   3.513   6.776   3.626 -0.9385  1.2925  1.0902
   42MOL   H17013372   3.375   6.948   3.761  1.9420 -1.1258  0.0999
   42MOL   H17113373   3.183   7.021   3.819  2.4357  1.2465 -1.0353
   42MOL   H17213374   2.967   6.989   3.727  1.4080  1.0661  1.9009
   42MOL   H17313375   3.006   7.064   3.566 -0.1424  0.4800 -0.1862
   42MOL   H17413376   2.986   7.164   3.705 -0.4699 -0.1138  1.1067
   42MOL   H17513377   3.184   7.252   3.753  0.0525  0.5075 -0.1026
   42MOL   H17613378   3.260   7.213   3.598 -0.6508  1.1006  0.4838
   42MOL   H17713379   3.340   7.176   3.752 -1.3575  1.7609  2.0423
   42MOL   C17813380   3.269   6.760   3.751  0.4057 -0.3281 -0.2362
   42MOL   C17913381   3.345   6.704   3.881  0.7384 -0.9398 -0.2333
   42MOL   O18013382   3.332   6.809   3.981  0.4705  0.0389 -0.2931
   42MOL   C18113383   3.420   6.798   4.097 -0.0715 -0.9720  0.4682
   42MOL   C18213384   3.376   6.915   4.182 -0.3299 -0.4125  0.4734
   42MOL   C18313385   3.569   6.817   4.060 -0.0086  0.5726  0.7960
   42MOL   H18413386   3.256   6.686   3.671 -0.7838 -1.4730  0.9941
   42MOL   H18513387   3.163   6.774   3.771  0.3989 -0.7339  0.0125
   42MOL   H18613388   3.448   6.680   3.855  2.2812  2.4481  2.2844
   42MOL   H18713389   3.408   6.700   4.144  0.5187 -0.4437  1.7324
   42MOL   H18813390   3.268   6.900   4.180 -0.5948  1.5016 -0.8137
   42MOL   H18913391   3.396   7.015   4.144  1.9283 -0.9392  0.1613
   42MOL   H19013392   3.414   6.911   4.284  1.1178 -0.6361 -0.0506
   42MOL   H19113393   3.586   6.903   3.996 -0.9240  0.9938  1.1127
   42MOL   H19213394   3.598   6.733   3.996 -2.0657  0.3355  0.1119
   42MOL   H19313395   3.622   6.818   4.155  1.7672 -3.5830 -0.0406
   42MOL   C19413396   3.275   6.584   3.946  0.2741 -0.0011  0.5124
   42MOL   C19513397   3.215   6.484   3.845  0.2256  0.6078 -0.2245
   42MOL   O19613398   3.132   6.400   3.926 -0.0326  0.4333  0.1281
   42MOL   C19713399   3.022   6.337   3.860  0.4215  0.0476  1.0034
   42MOL   C19813400   3.003   6.184   3.899  0.0099 -0.5981 -0.1608
   42MOL   C19913401   2.910   6.415   3.930  0.0613  0.9413  0.5929
   42MOL   H20013402   3.338   6.528   4.015 -0.4471 -0.3130  0.9225
   42MOL   H20113403   3.187   6.626   3.994 -0.2540  0.0839 -0.5217
   42MOL   H20213404   3.143   6.529   3.776 -1.4279 -2.2428 -0.4164
   42MOL   H20313405   3.023   6.351   3.752 -0.0126  0.4218  1.0437
   42MOL   H20413406   2.998   6.162   4.005 -0.1226  2.2301  0.4568
   42MOL   H20513407   2.909   6.145   3.859 -0.3127 -1.4012  1.3463
   42MOL   H20613408   3.082   6.125   3.851  1.3173  1.7177 -0.9262
   42MOL   H20713409   2.812   6.374   3.904 -0.4280  2.0944  0.6033
   42MOL   H20813410   2.905   6.423   4.038 -3.7416 -0.0993  0.5721
   42MOL   H20913411   2.903   6.520   3.901  1.1242  1.0625  0.7724
   42MOL   C21013412   3.326   6.411   3.772 -0.0281  0.2202 -0.6593
   42MOL   C21113413   3.418   6.317   3.851  0.2669 -0.6512 -0.1730
   42MOL   O21213414   3.349   6.208   3.921 -0.0293 -0.1113 -0.3451
   42MOL   C21313415   3.410   6.156   4.029 -0.0739  0.6421 -0.1719
   42MOL   C21413416   3.399   6.259   4.140  0.1910 -0.6826  0.3260
   42MOL   C21513417   3.328   6.029   4.069 -0.6128  0.1491 -0.1952
   42MOL   H21613418   3.390   6.469   3.705 -0.5971  0.2278 -1.2045
   42MOL   H21713419   3.273   6.353   3.696  2.0766 -0.2651 -1.8219
   42MOL   H21813420   3.467   6.383   3.922 -0.6437 -0.5719  0.3977
   42MOL   H21913421   3.511   6.130   3.996 -0.1109  0.2369  0.0410
   42MOL   H22013422   3.311   6.322   4.128  1.5107  0.9066 -1.2806
   42MOL   H22113423   3.488   6.322   4.136 -0.2954  0.0336  0.6960
   42MOL   H22213424   3.409   6.224   4.242  1.1925 -1.9260 -0.1906
   42MOL   H22313425   3.373   5.978   4.154 -4.3389 -0.3201  1.5988
   42MOL   H22413426   3.332   5.956   3.989 -0.4646  2.0832 -2.0090
   42MOL   H22513427   3.222   6.044   4.086 -0.4564 -0.1562  1.1293
   42MOL   C22613428   3.542   6.266   3.768  0.5460 -0.3856 -0.1248
   42MOL   C22713429   3.521   6.194   3.631 -0.6836  0.0825  0.2259
   42MOL   O22813430   3.488   6.297   3.534 -0.5183 -0.1070 -0.0258
   42MOL   C22913431   3.598   6.355   3.468 -0.3173 -0.4884  0.1061
   42MOL   C23013432   3.569   6.501   3.447 -0.0183 -0.1372  0.6159
   42MOL   C23113433   3.624   6.293   3.334 -0.5317  0.0999 -0.3998
   42MOL   H23213434   3.606   6.209   3.835  0.9175 -1.1928 -1.1400
   42MOL   H23313435   3.600   6.358   3.757 -0.4133  0.0760 -1.4805
   42MOL   H23413436   3.613   6.139   3.609 -1.3143 -0.8253 -0.1549
   42MOL   H23513437   3.686   6.360   3.532  0.0515  1.2572 -0.5108
   42MOL   H23613438   3.661   6.545   3.410 -1.3229  2.2425  0.0603
   42MOL   H23713439   3.488   6.525   3.378  0.4090  0.8882  0.4658
   42MOL   H23813440   3.565   6.546   3.546 -1.9017  0.7465  0.1721
   42MOL   H23913441   3.542   6.282   3.263  0.6369  2.1966 -2.1374
   42MOL   H24013442   3.666   6.193   3.346  2.0921  1.0096 -1.4549
   42MOL   H24113443   3.692   6.362   3.283 -2.3373  1.6027 -0.8125
   42MOL   C24213444   3.402   6.098   3.636 -0.0123  0.1890 -0.1502
   42MOL   C24313445   3.391   6.002   3.511 -0.8834 -0.0062 -0.3445
   42MOL   O24413446   3.501   5.921   3.496  0.5233 -0.2557 -0.1588
   42MOL   C24513447   3.476   5.796   3.428  0.5682 -0.1366  0.2303
   42MOL   C24613448   3.603   5.764   3.341  0.3872  0.1469  0.0703
   42MOL   C24713449   3.442   5.699   3.542 -0.5396  0.0542 -0.4737
   42MOL   H24813450   3.403   6.028   3.720  1.1184 -0.2944 -0.5577
   42MOL   H24913451   3.310   6.155   3.633 -0.0710  0.0172 -2.1340
   42MOL   H25013452   3.316   5.926   3.534  0.0408 -2.0070 -3.7914
   42MOL   H25113453   3.395   5.797   3.356 -0.1828  1.1383  1.0721
   42MOL   H25213454   3.672   5.717   3.409 -0.4133 -0.9565  0.1250
   42MOL   H25313455   3.579   5.684   3.271  0.4380  0.1172  0.0876
   42MOL   H25413456   3.636   5.843   3.273 -0.5327  0.7925  0.3579
   42MOL   H25513457   3.432   5.602   3.493 -0.3841 -0.6504  0.8546
   42MOL   H25613458   3.525   5.691   3.611  1.3654 -0.0937 -2.7257
   42MOL   H25713459   3.344   5.715   3.588 -0.4203  1.8288 -0.8318
   42MOL   C25813460   3.356   6.074   3.375 -0.1584 -1.1013 -0.1030
   42MOL   C25913461   3.222   6.157   3.358  0.3009 -0.0303  0.4318
   42MOL   O26013462   3.118   6.061   3.330 -0.0178 -0.0505  0.1411
   42MOL   C26113463   3.055   6.008   3.442  0.5389 -0.1206 -0.3046
   42MOL   C26213464   2.934   6.091   3.476  0.2602  0.4407 -0.0631
   42MOL   C26313465   3.027   5.859   3.408  0.5862 -0.1397 -0.1163
   42MOL   H26413466   3.446   6.131   3.353 -0.2753 -0.0874  2.0066
   42MOL   H26513467   3.353   6.001   3.294  3.1829  0.1783 -1.4774
   42MOL   H26613468   3.206   6.231   3.436  1.5565  1.0832 -0.3191
   42MOL   H26713469   3.126   6.017   3.525  0.0802 -1.0953  0.2054
   42MOL   H26813470   2.900   6.133   3.382  0.0491 -0.3913 -0.3687
   42MOL   H26913471   2.946   6.175   3.544 -0.9242  0.0182  0.6883
   42MOL   H27013472   2.866   6.023   3.527  0.8872 -0.0767  0.0868
   42MOL   H27113473   3.125   5.812   3.399  0.7315 -0.0599  0.9745
   42MOL   H27213474   2.966   5.814   3.487  0.4369  2.2856  1.1877
   42MOL   H27313475   2.975   5.852   3.313  3.8357  1.4563 -2.0973
   42MOL   C27413476   3.223   6.241   3.228  0.4944  0.3144  0.0698
   42MOL   C27513477   3.107   6.343   3.215  0.5533 -0.4458 -0.2525
   42MOL   O27613478   3.155   6.457   3.276 -0.2946 -0.1961  0.2215
   42MOL   C27713479   3.070   6.544   3.354  0.6751 -0.3048 -0.0405
   42MOL   C27813480   3.133   6.682   3.350  0.0335  0.1783  0.2780
   42MOL   C27913481   3.059   6.493   3.500  0.3366  0.3711 -0.2904
   42MOL   H28013482   3.325   6.279   3.217 -0.7323  3.7268 -0.0637
   42MOL   H28113483   3.212   6.165   3.151  0.2505 -0.3059  0.7049
   42MOL   H28213484   3.018   6.311   3.268  2.0588 -3.8691  0.3686
   42MOL   H28313485   2.968   6.546   3.315 -0.7636  0.1883  3.6357
   42MOL   H28413486   3.119   6.715   3.247 -0.0173  2.2900  0.9204
   42MOL   H28513487   3.075   6.747   3.416  0.6043  0.2471  0.7208
   42MOL   H28613488   3.236   6.694   3.383  0.6355 -3.2768 -0.2149
   42MOL   H28713489   3.154   6.463   3.544  0.3368 -0.7523 -1.0319
   42MOL   H28813490   2.997   6.403   3.505  1.1283 -0.2064 -0.6168
   42MOL   H28913491   3.020   6.565   3.571  2.1779  1.2251 -0.1250
   42MOL   C29013492   3.082   6.369   3.067  0.2663  1.0222 -0.5679
   42MOL   C29113493   2.958   6.464   3.042  0.5641  0.5933  0.3601
   42MOL   O29213494   2.951   6.497   2.907 -0.6968  0.7697 -0.0162
   42MOL   C29313495   2.961   6.632   2.865  0.3032  0.1255  0.4629
   42MOL   C29413496   2.912   6.653   2.719  0.1577  0.2240  0.4383
   42MOL   C29513497   3.106   6.682   2.893 -0.1797 -0.4721  0.4264
   42MOL   H29613498   3.068   6.272   3.020  2.3611 -0.0402  0.9200
   42MOL   H29713499   3.174   6.405   3.022 -0.4816  0.6374 -2.4755
   42MOL   H29813500   2.977   6.557   3.094 -0.3316  0.2963  1.2338
   42MOL   H29913501   2.901   6.702   2.923 -2.3297 -1.5033 -0.2287
   42MOL   H30013502   2.954   6.589   2.641  0.2342  2.2510 -1.2286
   42MOL   H30113503   2.804   6.637   2.713  0.1517  0.8861 -1.7905
   42MOL   H30213504   2.928   6.756   2.687  0.5524 -0.5384 -1.9222
   42MOL   H30313505   3.188   6.637   2.837 -0.0648 -2.0721  1.8325
   42MOL   H30413506   3.114   6.786   2.862  0.1568 -1.1766 -1.9379
   42MOL   H30513507   3.130   6.683   2.999  0.8151 -0.4581  0.2075
   42MOL   C30613508   2.828   6.413   3.085  0.3133 -0.8160  0.1406
   42MOL   C30713509   2.703   6.472   3.017  0.4510  0.1436 -0.4013
   42MOL   O30813510   2.587   6.433   3.081 -0.1351 -0.7017 -0.0779
   42MOL   C30913511   2.471   6.454   3.010 -0.3039 -0.4005  0.2861
   42MOL   C31013512   2.449   6.336   2.917 -0.1785 -0.7388  0.2663
   42MOL   C31113513   2.368   6.489   3.120  0.5486 -0.0210  0.3687
   42MOL   H31213514   2.820   6.429   3.193 -1.5139 -1.3934  0.0936
   42MOL   H31313515   2.824   6.305   3.076 -2.6487 -0.7473  0.1063
   42MOL   H31413516   2.703   6.581   3.021 -2.2778  0.2328 -2.0447
   42MOL   H31513517   2.484   6.548   2.956 -0.7511 -1.4158 -1.6562
   42MOL   H31613518   2.342   6.337   2.896 -0.3514 -0.1251  1.1180
   42MOL   H31713519   2.466   6.238   2.962 -0.0573 -0.8885 -0.1060
   42MOL   H31813520   2.505   6.343   2.824 -0.3689 -3.4663 -0.0995
   42MOL   H31913521   2.383   6.587   3.165  1.0483 -0.4129  1.0592
   42MOL   H32013522   2.395   6.418   3.198 -0.1633 -0.7943 -0.0805
   42MOL   H32113523   2.262   6.477   3.096  0.5804 -0.4581  0.4473
   42MOL   H32213524   2.702   6.444   2.911  0.6879  1.4740 -0.7676
   43MOL     C113525   0.890   5.906   0.599  0.3806 -0.2545 -0.2798
   43MOL     C213526   0.855   5.962   0.737  0.3564 -1.0845 -0.1709
   43MOL     O313527   0.751   5.882   0.794 -0.7769 -0.0292 -0.3555
   43MOL     C413528   0.622   5.899   0.749 -0.8213 -0.4211 -0.4003
   43MOL     C513529   0.562   5.988   0.853  0.0793  0.5001 -0.6454
   43MOL     C613530   0.550   5.762   0.734  0.5033 -0.0166 -0.0397
   43MOL     H713531   0.986   5.948   0.568 -0.0517  0.1659 -1.0856
   43MOL     H813532   0.907   5.798   0.599 -0.1984 -0.3481  0.3134
   43MOL     H913533   0.839   6.070   0.737 -1.6928 -1.2586  4.0955
   43MOL    H1013534   0.627   5.952   0.654  0.6209  1.8740  0.9027
   43MOL    H1113535   0.612   6.084   0.867 -0.5286  0.9969 -1.7967
   43MOL    H1213536   0.464   6.023   0.821 -0.9786 -1.9843 -0.2755
   43MOL    H1313537   0.556   5.939   0.950  0.1087 -0.4843 -1.1354
   43MOL    H1413538   0.552   5.713   0.831  2.5152  3.7810  1.9827
   43MOL    H1513539   0.449   5.775   0.696  1.6749  2.0624 -2.5727
   43MOL    H1613540   0.592   5.696   0.659 -1.8821 -0.5258 -0.9565
   43MOL    H1713541   0.813   5.936   0.527 -0.9393 -0.7226  0.9188
   43MOL    C1813542   0.961   5.929   0.850 -0.2705 -0.3378 -0.3182
   43MOL    C1913543   0.951   6.017   0.982  0.1912 -0.1419 -0.5589
   43MOL    O2013544   1.085   6.011   1.034 -0.3393  0.5357  0.0827
   43MOL    C2113545   1.164   6.123   0.998 -0.8159 -0.2278 -0.0473
   43MOL    C2213546   1.285   6.064   0.927 -0.5910 -0.3481  0.1019
   43MOL    C2313547   1.226   6.184   1.125  0.7449  0.5249 -0.8682
   43MOL    H2413548   0.954   5.823   0.873 -1.2634  0.3530  2.7186
   43MOL    H2513549   1.056   5.931   0.796  0.1938 -0.4947  0.4921
   43MOL    H2613550   0.923   6.120   0.960 -0.6796 -0.2254  0.1236
   43MOL    H2713551   1.117   6.194   0.930  0.5357  0.2421 -0.4998
   43MOL    H2813552   1.347   6.138   0.876  1.1042 -0.8762  1.3527
   43MOL    H2913553   1.345   6.006   0.997 -1.9942 -2.6053 -0.4966
   43MOL    H3013554   1.242   6.000   0.850 -0.9384 -1.2982  1.0734
   43MOL    H3113555   1.147   6.245   1.169  0.6607 -0.7151  0.7373
   43MOL    H3213556   1.305   6.255   1.104  1.1957 -0.0284 -1.0543
   43MOL    H3313557   1.262   6.111   1.198  1.4520  0.8470 -0.8945
   43MOL    C3413558   0.857   5.956   1.096 -0.4115 -0.2869 -0.0967
   43MOL    C3513559   0.839   6.063   1.208 -0.4486  0.5744  0.1032
   43MOL    O3613560   0.710   6.132   1.191  0.0512  0.3353 -0.2729
   43MOL    C3713561   0.724   6.246   1.103  0.0990  0.6168 -0.6990
   43MOL    C3813562   0.577   6.282   1.077 -0.6625  0.1156  0.2052
   43MOL    C3913563   0.804   6.364   1.162  0.2623 -0.2419  0.0409
   43MOL    H4013564   0.902   5.863   1.130 -2.2673 -1.0483  0.3659
   43MOL    H4113565   0.759   5.920   1.066 -0.9500  1.3479 -0.3420
   43MOL    H4213566   0.934   6.117   1.213 -0.6238  1.0509 -1.3987
   43MOL    H4313567   0.764   6.231   1.002  1.3912  0.6389 -0.1998
   43MOL    H4413568   0.576   6.379   1.028 -2.0641  0.5367  1.0559
   43MOL    H4513569   0.517   6.280   1.169 -1.8332 -2.5914 -0.5754
   43MOL    H4613570   0.527   6.208   1.015  0.9629 -0.4214 -0.4993
   43MOL    H4713571   0.909   6.338   1.173  0.7410  1.2365 -0.8151
   43MOL    H4813572   0.783   6.454   1.103  0.9154  0.6709  1.1914
   43MOL    H4913573   0.764   6.387   1.261  1.1297 -0.1403  0.3725
   43MOL    C5013574   0.824   5.988   1.346  0.2861  0.3960 -0.9025
   43MOL    C5113575   0.857   6.079   1.467 -0.1150 -0.0327  0.5390
   43MOL    O5213576   0.996   6.085   1.472  0.4346 -0.5971  0.9368
   43MOL    C5313577   1.059   6.197   1.546 -0.6539 -0.5124 -0.1633
   43MOL    C5413578   1.038   6.334   1.473 -0.2101 -0.0371  0.5941
   43MOL    C5513579   1.206   6.173   1.567  0.3795 -0.3640  0.1968
   43MOL    H5613580   0.728   5.939   1.353  0.3961  0.1774 -0.9167
   43MOL    H5713581   0.895   5.905   1.344  0.5905  0.5025  2.1990
   43MOL    H5813582   0.826   6.178   1.435 -0.5969 -0.4327 -0.2277
   43MOL    H5913583   1.015   6.215   1.644 -1.9090  0.8747 -0.9747
   43MOL    H6013584   0.933   6.364   1.475 -0.3127  0.2319 -3.3267
   43MOL    H6113585   1.076   6.319   1.372  0.2756 -0.6311  0.8613
   43MOL    H6213586   1.101   6.412   1.515 -1.1979  0.7051  0.7250
   43MOL    H6313587   1.257   6.167   1.471  1.3765 -1.8888  0.8038
   43MOL    H6413588   1.235   6.083   1.620  0.5053  0.2961  1.2636
   43MOL    H6513589   1.254   6.264   1.601 -1.0332  1.1693 -1.7266
   43MOL    C6613590   0.795   6.017   1.597  0.8880  0.0635  0.3724
   43MOL    C6713591   0.837   5.874   1.643  0.0257  0.7329 -0.1560
   43MOL    O6813592   0.738   5.819   1.722  0.4145  0.2090 -0.1891
   43MOL    C6913593   0.654   5.726   1.651 -0.3558  0.6524 -0.3836
   43MOL    C7013594   0.714   5.578   1.655 -0.1751  0.2249 -0.5921
   43MOL    C7113595   0.509   5.742   1.699  0.3822  0.8637  0.9045
   43MOL    H7213596   0.833   6.080   1.677 -1.1586  0.0858  1.3331
   43MOL    H7313597   0.687   6.024   1.583  1.0496  3.2741  0.5634
   43MOL    H7413598   0.858   5.827   1.548  1.8667  0.5369  0.3423
   43MOL    H7513599   0.654   5.745   1.544  0.2727  0.8600 -0.3451
   43MOL    H7613600   0.642   5.518   1.600  0.6511 -0.7975 -0.5541
   43MOL    H7713601   0.813   5.577   1.609  0.8307 -1.0016  1.5479
   43MOL    H7813602   0.717   5.544   1.758  0.7671 -0.1105 -0.7289
   43MOL    H7913603   0.495   5.740   1.807 -0.0258 -1.1812  0.8286
   43MOL    H8013604   0.450   5.666   1.648  1.7267  0.9558 -0.8415
   43MOL    H8113605   0.469   5.835   1.659  0.4684 -0.1885 -1.7076
   43MOL    C8213606   0.966   5.873   1.717 -0.3163 -0.1486 -0.1794
   43MOL    C8313607   1.013   5.737   1.779  0.8262 -0.2843 -0.2661
   43MOL    O8413608   1.154   5.749   1.808 -0.4242 -0.1640  0.2751
   43MOL    C8513609   1.245   5.672   1.728  0.7108  0.7778  0.9787
   43MOL    C8613610   1.385   5.678   1.790  0.9345  0.1352 -0.1342
   43MOL    C8713611   1.254   5.724   1.579 -0.0762  0.3915 -0.4572
   43MOL    H8813612   1.047   5.900   1.650  0.1916 -1.8713 -0.2981
   43MOL    H8913613   0.958   5.945   1.798  3.0373  3.1917 -2.6780
   43MOL    H9013614   0.995   5.663   1.701 -1.9381 -0.2495  0.3009
   43MOL    H9113615   1.210   5.569   1.729  1.2493  0.5870  3.4506
   43MOL    H9213616   1.413   5.784   1.789 -0.3957  0.5280  1.2927
   43MOL    H9313617   1.371   5.651   1.895  1.7549 -2.3572 -0.6480
   43MOL    H9413618   1.466   5.626   1.739  0.0233 -1.2575 -0.1838
   43MOL    H9513619   1.163   5.721   1.519 -1.1990 -0.6128  1.2482
   43MOL    H9613620   1.303   5.820   1.566 -0.8282  0.7658 -0.5564
   43MOL    H9713621   1.310   5.655   1.516  1.3619  1.4794 -0.3799
   43MOL    C9813622   0.939   5.691   1.907  0.2145 -0.9757 -0.4411
   43MOL    C9913623   0.985   5.555   1.968 -0.3819  0.1758 -0.1254
   43MOL   O10013624   0.938   5.454   1.873  0.5581 -0.0610 -0.3609
   43MOL   C10113625   1.005   5.326   1.895 -0.0349  0.4621  0.3651
   43MOL   C10213626   1.141   5.320   1.822  0.3479 -0.0662  0.1441
   43MOL   C10313627   0.910   5.224   1.835 -1.0003  0.6593  0.3943
   43MOL   H10413628   0.946   5.771   1.980 -1.6889  0.2028 -1.5266
   43MOL   H10513629   0.835   5.689   1.876  0.5602  0.4994 -1.7112
   43MOL   H10613630   1.093   5.551   1.984 -0.5998 -0.2701  1.3777
   43MOL   H10713631   1.012   5.303   2.001 -0.8449  0.1250  0.3507
   43MOL   H10813632   1.207   5.379   1.884  0.3140  1.7364 -1.4941
   43MOL   H10913633   1.131   5.367   1.724 -0.1257  1.4244  0.8975
   43MOL   H11013634   1.175   5.217   1.810 -3.2560 -1.8025  3.7591
   43MOL   H11113635   0.958   5.126   1.837 -2.7264 -0.1959  0.3794
   43MOL   H11213636   0.882   5.228   1.730 -2.0047 -0.2769  0.6176
   43MOL   H11313637   0.824   5.211   1.901 -2.0222  0.8937 -0.8879
   43MOL   C11413638   0.920   5.532   2.101 -0.3281  0.1907 -0.7188
   43MOL   C11513639   0.976   5.622   2.215  0.2049  0.0331  0.3528
   43MOL   O11613640   0.882   5.665   2.308  0.1413  0.0945  0.6442
   43MOL   C11713641   0.793   5.768   2.264 -1.0082 -0.1871 -1.0409
   43MOL   C11813642   0.816   5.892   2.338  0.1413 -0.4641 -0.0334
   43MOL   C11913643   0.644   5.715   2.288 -0.7018 -0.0821  0.0658
   43MOL   H12013644   0.932   5.429   2.137  1.2556  1.2050  1.8184
   43MOL   H12113645   0.815   5.550   2.081 -0.3263  0.0650 -0.8444
   43MOL   H12213646   1.017   5.707   2.161 -0.3495  0.3816  0.4776
   43MOL   H12313647   0.809   5.797   2.160  0.8736 -2.1210 -1.3314
   43MOL   H12413648   0.890   5.958   2.292  0.1798  2.0751  3.4569
   43MOL   H12513649   0.845   5.891   2.443  1.4574 -0.7283 -0.3893
   43MOL   H12613650   0.723   5.949   2.334  0.9544  0.9981  1.1279
   43MOL   H12713651   0.571   5.795   2.292  0.1741  0.7272  0.2448
   43MOL   H12813652   0.638   5.660   2.382  2.3017  1.8841  1.5029
   43MOL   H12913653   0.627   5.652   2.201  0.3896 -0.4246  0.0803
   43MOL   C13013654   1.077   5.539   2.294  0.0735  0.7375 -0.5043
   43MOL   C13113655   1.156   5.620   2.405 -0.8731  0.4260 -0.2369
   43MOL   O13213656   1.289   5.646   2.361 -0.3722  0.4816 -0.4123
   43MOL   C13313657   1.302   5.762   2.283  0.6186 -0.4996 -0.5362
   43MOL   C13413658   1.287   5.885   2.370 -0.6106 -0.2149  0.1415
   43MOL   C13513659   1.447   5.750   2.228 -0.5956 -0.2957  0.1506
   43MOL   H13613660   1.157   5.498   2.233 -1.6082  0.5713 -2.6396
   43MOL   H13713661   1.018   5.457   2.334  0.7598  0.1323 -0.7299
   43MOL   H13813662   1.102   5.712   2.427  1.6960  1.2181  3.1366
   43MOL   H13913663   1.231   5.770   2.201  0.7365  0.1752 -0.5750
   43MOL   H14013664   1.362   5.874   2.448 -1.2244 -2.8941  0.4222
   43MOL   H14113665   1.186   5.902   2.407 -0.4938  0.6019  0.0919
   43MOL   H14213666   1.324   5.963   2.304  2.3990 -1.2626  0.5280
   43MOL   H14313667   1.491   5.847   2.206  0.2933 -1.0902 -1.6562
   43MOL   H14413668   1.515   5.705   2.301  0.5472  0.2240 -0.5831
   43MOL   H14513669   1.453   5.686   2.140  0.4093 -0.1337  0.0931
   43MOL   C14613670   1.171   5.539   2.532 -0.4316  0.5374  0.3002
   43MOL   C14713671   1.043   5.503   2.606  0.3252  1.0571 -0.4351
   43MOL   O14813672   1.080   5.419   2.724 -0.8120 -0.4647  0.2957
   43MOL   C14913673   1.100   5.282   2.697 -0.9539 -0.3747  0.3481
   43MOL   C15013674   0.976   5.188   2.703 -0.3193 -0.5263 -0.0299
   43MOL   C15113675   1.206   5.227   2.799  0.1436 -0.3809  0.8100
   43MOL   H15213676   1.230   5.598   2.603  1.8878 -0.9182 -0.3694
   43MOL   H15313677   1.233   5.451   2.518 -1.4583 -0.0399 -0.6349
   43MOL   H15413678   0.982   5.445   2.537 -0.7071 -0.4724  1.6766
   43MOL   H15513679   1.146   5.265   2.599 -1.2737  1.4445 -0.1220
   43MOL   H15613680   0.914   5.199   2.614  1.9924 -0.0047 -1.6013
   43MOL   H15713681   0.918   5.197   2.795 -0.3286  1.5350 -0.2099
   43MOL   H15813682   1.004   5.083   2.701  1.8182 -0.0556  2.9036
   43MOL   H15913683   1.221   5.120   2.793 -3.1215 -0.7688 -1.7641
   43MOL   H16013684   1.171   5.247   2.901 -0.3822 -1.0533  0.7648
   43MOL   H16113685   1.296   5.286   2.782  0.1722 -0.3352  1.1208
   43MOL   C16213686   0.956   5.619   2.665 -0.0491  0.3419 -1.3339
   43MOL   C16313687   0.837   5.579   2.759 -0.4749  1.2475 -0.6485
   43MOL   O16413688   0.764   5.687   2.809  0.0105 -0.3818  0.3669
   43MOL   C16513689   0.820   5.769   2.905  0.0492  0.6410 -0.2402
   43MOL   C16613690   0.704   5.793   3.005  0.1472 -0.0020 -0.9310
   43MOL   C16713691   0.869   5.907   2.837 -1.0646  0.4528 -1.1889
   43MOL   H16813692   1.026   5.675   2.727 -0.1545 -0.7234 -0.2442
   43MOL   H16913693   0.931   5.696   2.592 -0.2896 -0.4365 -2.0722
   43MOL   H17013694   0.874   5.510   2.834  2.1155  0.9845 -2.1052
   43MOL   H17113695   0.903   5.719   2.954 -0.5157  0.4896  0.5773
   43MOL   H17213696   0.733   5.885   3.056  2.1355  0.3431 -2.6200
   43MOL   H17313697   0.681   5.713   3.076  0.6044  1.3814  0.8141
   43MOL   H17413698   0.613   5.812   2.949 -0.2779  1.9831  0.3705
   43MOL   H17513699   0.913   5.976   2.909 -0.2243  0.7890 -2.0170
   43MOL   H17613700   0.795   5.965   2.783 -2.1139 -0.6830 -0.9878
   43MOL   H17713701   0.951   5.892   2.766  0.5386  2.7116  0.1484
   43MOL   C17813702   0.733   5.505   2.675  0.1502  0.1054 -0.3406
   43MOL   C17913703   0.605   5.471   2.761  0.5648 -0.3472 -0.4331
   43MOL   O18013704   0.507   5.417   2.672  0.3513  0.0952  0.3768
   43MOL   C18113705   0.375   5.380   2.708  0.1384 -0.0155  0.5369
   43MOL   C18213706   0.312   5.286   2.604  0.3820 -0.1731 -0.0521
   43MOL   C18313707   0.295   5.511   2.711  0.1573  0.7338 -0.1029
   43MOL   H18413708   0.772   5.413   2.632 -1.4900 -0.4566 -0.6805
   43MOL   H18513709   0.694   5.570   2.596 -0.9758  1.0229  0.9424
   43MOL   H18613710   0.558   5.560   2.801  2.5296 -0.7244  2.9044
   43MOL   H18713711   0.376   5.337   2.808 -1.1015  0.7454  0.8823
   43MOL   H18813712   0.210   5.265   2.637  0.3284  1.1470  0.6390
   43MOL   H18913713   0.380   5.202   2.591  1.1681  0.4990 -0.2970
   43MOL   H19013714   0.311   5.334   2.506 -2.2346  0.6324  0.3240
   43MOL   H19113715   0.328   5.583   2.786 -2.3084  2.0726 -0.2386
   43MOL   H19213716   0.188   5.492   2.721  0.0920  0.8933 -0.5195
   43MOL   H19313717   0.309   5.553   2.612  0.9905  0.3968 -0.1280
   43MOL   C19413718   0.649   5.366   2.865 -0.1192  0.1275  0.3093
   43MOL   C19513719   0.650   5.405   3.015  1.0012 -0.4139 -0.2987
   43MOL   O19613720   0.718   5.294   3.073 -0.3171  0.0737 -0.0025
   43MOL   C19713721   0.862   5.299   3.093 -0.3314 -0.0611  0.4081
   43MOL   C19813722   0.881   5.349   3.237 -0.3065  0.3847  0.5108
   43MOL   C19913723   0.910   5.158   3.086  0.7566 -0.0942  0.9041
   43MOL   H20013724   0.583   5.280   2.852  2.8051 -1.8694 -1.9130
   43MOL   H20113725   0.745   5.323   2.838  0.5892 -0.9636  4.2668
   43MOL   H20213726   0.698   5.502   3.029  2.2898 -1.2126  0.9839
   43MOL   H20313727   0.908   5.366   3.020 -2.8052  1.5014  0.2033
   43MOL   H20413728   0.811   5.295   3.301  0.0643  0.3069  0.8502
   43MOL   H20513729   0.985   5.341   3.268 -0.2339 -0.4673  0.0582
   43MOL   H20613730   0.857   5.454   3.254  0.2267  0.9638 -2.0825
   43MOL   H20713731   0.881   5.091   3.004 -0.9905  0.0179  1.4123
   43MOL   H20813732   1.019   5.161   3.085  0.8050 -1.1713  1.6293
   43MOL   H20913733   0.865   5.103   3.169 -2.6818  1.7063  0.3272
   43MOL   C21013734   0.501   5.416   3.073  0.0664  0.4846  0.4960
   43MOL   C21113735   0.495   5.457   3.219  0.6156 -0.5119  0.1417
   43MOL   O21213736   0.440   5.592   3.243 -0.3191  0.6801  0.1195
   43MOL   C21313737   0.500   5.648   3.361  0.2441 -0.2310 -1.4219
   43MOL   C21413738   0.643   5.705   3.340  0.4926  0.0666  0.0402
   43MOL   C21513739   0.405   5.763   3.412 -0.0523  0.4887 -0.2945
   43MOL   H21613740   0.449   5.322   3.052  0.2292  0.1484  1.6074
   43MOL   H21713741   0.437   5.483   3.015  2.2810  0.9388 -1.4912
   43MOL   H21813742   0.589   5.435   3.269  0.7485 -0.5686 -0.1340
   43MOL   H21913743   0.500   5.583   3.449  2.2351 -0.1228 -1.3177
   43MOL   H22013744   0.684   5.752   3.429  0.2373  1.3346 -0.5078
   43MOL   H22113745   0.622   5.775   3.259  0.2857  1.4684  1.3019
   43MOL   H22213746   0.705   5.619   3.312 -3.4475 -2.6751 -0.6850
   43MOL   H22313747   0.456   5.844   3.465 -0.7485  1.1598 -0.6432
   43MOL   H22413748   0.321   5.736   3.476  1.5440 -2.2396  0.7179
   43MOL   H22513749   0.358   5.801   3.321 -1.7331  0.0571  0.3686
   43MOL   C22613750   0.390   5.366   3.286 -0.0800  0.1877  0.4163
   43MOL   C22713751   0.420   5.218   3.305  0.3928 -0.4359 -0.2312
   43MOL   O22813752   0.302   5.149   3.338  0.3104  0.4779 -0.0763
   43MOL   C22913753   0.210   5.116   3.228 -0.0157  0.4957  0.3607
   43MOL   C23013754   0.065   5.104   3.278  0.9439  0.0613  0.2287
   43MOL   C23113755   0.258   4.987   3.155  0.2081  0.3660 -0.2867
   43MOL   H23213756   0.295   5.394   3.241 -0.4820  1.2706  1.8979
   43MOL   H23313757   0.376   5.400   3.389 -2.6794  1.3999 -0.2999
   43MOL   H23413758   0.469   5.184   3.214 -2.3519 -1.5466 -1.3299
   43MOL   H23513759   0.211   5.202   3.161 -1.6721 -0.3733 -0.8172
   43MOL   H23613760   0.053   5.013   3.336  0.9892 -0.3177 -0.3562
   43MOL   H23713761   0.044   5.195   3.334 -0.0187  0.2080 -0.3430
   43MOL   H23813762   7.815   5.096   3.194  0.8540 -0.5632  0.3639
   43MOL   H23913763   0.260   4.899   3.219  2.2060  1.7076  1.5616
   43MOL   H24013764   0.355   5.014   3.111  0.0786  2.1495  0.4955
   43MOL   H24113765   0.194   4.955   3.073 -1.5204 -0.4049  1.3334
   43MOL   C24213766   0.501   5.201   3.430  0.5478  0.0846  0.4632
   43MOL   C24313767   0.540   5.056   3.452  0.4762  1.0233 -0.2163
   43MOL   O24413768   0.585   5.058   3.590 -0.0372 -0.0792  0.1147
   43MOL   C24513769   0.561   4.944   3.668  0.4365  0.2808 -0.0075
   43MOL   C24613770   0.687   4.913   3.752  0.0636 -0.1260  0.2461
   43MOL   C24713771   0.439   4.974   3.756 -0.2925 -0.2766 -0.6601
   43MOL   H24813772   0.595   5.256   3.427  0.8913 -0.5532 -0.5912
   43MOL   H24913773   0.437   5.233   3.512 -0.1677  0.6817 -0.3243
   43MOL   H25013774   0.447   5.000   3.441 -0.1880  1.9613  0.5828
   43MOL   H25113775   0.549   4.857   3.603  2.5955  1.7359 -2.4634
   43MOL   H25213776   0.765   4.878   3.685  0.0921 -0.0448  0.2368
   43MOL   H25313777   0.736   4.996   3.803 -1.7576  1.2341 -0.1817
   43MOL   H25413778   0.683   4.827   3.820  0.8075 -0.5435 -0.2315
   43MOL   H25513779   0.344   4.992   3.705 -0.8963 -1.1731  0.1359
   43MOL   H25613780   0.412   4.888   3.817  0.2036  0.0608  0.0393
   43MOL   H25713781   0.454   5.067   3.811 -3.9501  1.4840 -2.4059
   43MOL   C25813782   0.638   4.996   3.353  0.0998 -0.4677 -0.1783
   43MOL   C25913783   0.651   4.840   3.362  0.4517  0.3099  0.2510
   43MOL   O26013784   0.755   4.797   3.273  0.3385  0.2686  0.3281
   43MOL   C26113785   0.888   4.795   3.314  0.1348  0.3608 -0.0062
   43MOL   C26213786   0.920   4.666   3.392 -0.0311  0.5066 -0.1200
   43MOL   C26313787   0.983   4.814   3.185  0.1596  0.1343  0.0609
   43MOL   H26413788   0.623   5.028   3.250 -2.1165 -0.2830  0.1853
   43MOL   H26513789   0.738   5.037   3.370  0.1479 -1.1195  1.1734
   43MOL   H26613790   0.670   4.797   3.461  2.4911 -0.8867 -0.6268
   43MOL   H26713791   0.909   4.882   3.376 -2.5002  1.9156 -1.2186
   43MOL   H26813792   0.854   4.659   3.479 -0.7616  2.5652 -0.4830
   43MOL   H26913793   1.026   4.664   3.416 -0.3214 -1.5240  1.1474
   43MOL   H27013794   0.910   4.571   3.338  1.4162 -0.1871  0.7923
   43MOL   H27113795   0.990   4.916   3.148  0.1120  0.4834  0.9808
   43MOL   H27213796   1.085   4.800   3.222 -0.3496 -3.4912  0.2866
   43MOL   H27313797   0.974   4.729   3.117 -0.4157 -0.4293  0.8337
   43MOL   C27413798   0.526   4.767   3.309 -1.4672  0.2374  0.1268
   43MOL   C27513799   0.519   4.618   3.329  0.3688  0.1344 -0.1399
   43MOL   O27613800   0.455   4.583   3.453 -0.2694  0.0044 -0.2574
   43MOL   C27713801   0.487   4.466   3.519 -0.7209 -0.2481  0.1085
   43MOL   C27813802   0.360   4.400   3.569  0.4737 -0.7363  0.0834
   43MOL   C27913803   0.587   4.501   3.630 -0.5108 -0.0774  0.2191
   43MOL   H28013804   0.430   4.808   3.340 -1.6436 -1.2375  1.6662
   43MOL   H28113805   0.530   4.780   3.201 -1.8289 -0.2063  0.0534
   43MOL   H28213806   0.620   4.577   3.329  0.6775  0.8163 -2.5934
   43MOL   H28313807   0.536   4.397   3.451  1.8309  2.7757 -1.2410
   43MOL   H28413808   0.362   4.316   3.639  1.6026 -1.7143 -1.1249
   43MOL   H28513809   0.309   4.473   3.633  1.6510 -1.6820  2.1638
   43MOL   H28613810   0.287   4.391   3.488 -0.4908  0.2204  0.8202
   43MOL   H28713811   0.678   4.544   3.588 -0.6062 -0.8911 -0.8265
   43MOL   H28813812   0.609   4.412   3.689 -0.0953 -0.5753 -0.6760
   43MOL   H28913813   0.540   4.588   3.678 -0.4008 -0.2517  0.6448
   43MOL   C29013814   0.444   4.541   3.219 -0.0823  0.1929 -1.0034
   43MOL   C29113815   0.531   4.443   3.138  0.5364  0.3563  0.3063
   43MOL   O29213816   0.435   4.398   3.039  0.5361 -0.1418  0.1901
   43MOL   C29313817   0.361   4.277   3.073  1.0164  0.3198  0.0629
   43MOL   C29413818   0.414   4.141   3.015  0.0649 -0.4750 -1.8433
   43MOL   C29513819   0.229   4.300   3.004 -0.3573 -0.2951 -0.0433
   43MOL   H29613820   0.388   4.611   3.157 -0.1274 -0.0954 -1.2874
   43MOL   H29713821   0.365   4.483   3.265  0.8130 -0.3281 -0.1018
   43MOL   H29813822   0.570   4.360   3.196  0.2948 -1.0902 -1.5708
   43MOL   H29913823   0.348   4.274   3.181  0.2244  0.5944 -0.0227
   43MOL   H30013824   0.458   4.148   2.916 -2.0449  0.8713 -2.7421
   43MOL   H30113825   0.481   4.093   3.086 -1.8820 -1.6710 -0.7359
   43MOL   H30213826   0.335   4.066   3.016  0.2283 -0.6405 -0.6628
   43MOL   H30313827   0.184   4.389   3.047  1.5088  1.7719 -2.1949
   43MOL   H30413828   0.246   4.341   2.904 -0.5370  0.8492  0.3965
   43MOL   H30513829   0.154   4.220   3.004 -0.0645 -0.6285 -2.3288
   43MOL   C30613830   0.634   4.517   3.061 -0.5366 -0.0004  0.2064
   43MOL   C30713831   0.733   4.428   2.986 -0.1205 -0.1284  0.3664
   43MOL   O30813832   0.810   4.343   3.068 -0.8013 -0.1743  0.0077
   43MOL   C30913833   0.907   4.267   2.992 -0.0738 -0.3152  0.1525
   43MOL   C31013834   1.039   4.251   3.071  0.0465 -0.4149 -0.0678
   43MOL   C31113835   0.849   4.130   2.948 -0.2129 -0.0053  0.2984
   43MOL   H31213836   0.692   4.580   3.128 -1.2490  0.7729  0.0948
   43MOL   H31313837   0.587   4.591   2.997 -0.8752 -1.7343 -1.6226
   43MOL   H31413838   0.695   4.353   2.916  0.6095 -2.1638  2.0974
   43MOL   H31513839   0.939   4.313   2.899  2.0407 -1.2578  0.3807
   43MOL   H31613840   1.087   4.343   3.103  1.6280 -0.8200 -1.1800
   43MOL   H31713841   1.117   4.212   3.005  1.2008  2.6280 -0.5538
   43MOL   H31813842   1.022   4.186   3.156 -1.2470  0.4637  0.3582
   43MOL   H31913843   0.912   4.086   2.871  2.1368 -0.2802  2.3102
   43MOL   H32013844   0.756   4.153   2.895  1.0954 -0.7762 -2.4084
   43MOL   H32113845   0.837   4.074   3.041  2.2783  2.3850  2.1515
   43MOL   H32213846   0.800   4.493   2.928  1.1110 -0.5563  1.2956
   44MOL     C113847   1.917   4.183   6.414  0.5540 -0.5276 -0.4875
   44MOL     C213848   1.888   4.062   6.315 -0.1181  0.0572  0.3037
   44MOL     O313849   1.893   3.937   6.379 -0.6521 -0.6904 -0.3135
   44MOL     C413850   2.026   3.891   6.403  0.8842  0.2725  0.7765
   44MOL     C513851   2.060   3.796   6.290  0.3998  0.0075 -0.2291
   44MOL     C613852   2.032   3.837   6.548 -0.0388 -0.7244  0.5433
   44MOL     H713853   2.020   4.186   6.450  0.6064  0.5093 -0.6991
   44MOL     H813854   1.902   4.277   6.360  0.4930 -0.1959  0.0958
   44MOL     H913855   1.959   4.069   6.233  0.8650  0.1702  1.1633
   44MOL    H1013856   2.090   3.980   6.404 -0.9575  1.6387  0.1532
   44MOL    H1113857   1.969   3.743   6.261  1.3290 -1.5711 -0.2990
   44MOL    H1213858   2.095   3.856   6.206 -1.0497 -1.0886 -1.6584
   44MOL    H1313859   2.144   3.731   6.313  0.8524  0.1602 -1.4191
   44MOL    H1413860   2.131   3.797   6.567 -0.0027 -0.8747  0.0230
   44MOL    H1513861   2.016   3.911   6.627 -1.1839  0.3457 -0.6564
   44MOL    H1613862   1.954   3.763   6.564 -0.3972 -0.9250 -2.0485
   44MOL    H1713863   1.837   4.194   6.487 -1.1496  1.6197 -2.5948
   44MOL    C1813864   1.739   4.076   6.262 -0.3460 -0.6267  0.2102
   44MOL    C1913865   1.707   3.993   6.139  0.2498  0.7931 -0.7198
   44MOL    O2013866   1.776   4.045   6.029 -0.2160  0.0931  0.0952
   44MOL    C2113867   1.804   3.953   5.926  0.2732 -0.3669 -0.1063
   44MOL    C2213868   1.936   3.887   5.958 -1.0098 -0.7814  0.8208
   44MOL    C2313869   1.799   4.022   5.789 -0.5878  0.6641  0.2354
   44MOL    H2413870   1.674   4.044   6.343 -1.0774  2.5545  0.9491
   44MOL    H2513871   1.701   4.178   6.248 -2.8490 -1.5265  0.2647
   44MOL    H2613872   1.742   3.893   6.163 -1.2213  0.2269 -0.8947
   44MOL    H2713873   1.733   3.871   5.926  0.0113 -0.1556 -1.7333
   44MOL    H2813874   1.973   3.842   5.866 -0.2218  0.6202  0.4408
   44MOL    H2913875   2.020   3.946   5.995 -0.5069 -0.8156 -0.2523
   44MOL    H3013876   1.935   3.803   6.027 -1.2305 -0.8069  0.7881
   44MOL    H3113877   1.844   4.121   5.797  0.9274  0.2274 -2.0930
   44MOL    H3213878   1.697   4.047   5.760 -0.1930  0.3140 -1.5247
   44MOL    H3313879   1.842   3.970   5.703 -1.7368 -0.0900  0.1150
   44MOL    C3413880   1.558   3.986   6.115 -0.5433 -0.2930 -0.2062
   44MOL    C3513881   1.470   3.895   6.206 -0.4318  0.1635 -0.1628
   44MOL    O3613882   1.332   3.918   6.182 -0.8627 -0.2656  0.2020
   44MOL    C3713883   1.265   4.041   6.221 -0.9406 -0.3160 -0.0895
   44MOL    C3813884   1.157   4.085   6.127 -0.3365 -0.7848  0.4702
   44MOL    C3913885   1.196   4.004   6.351  0.5286 -0.8240 -0.3233
   44MOL    H4013886   1.535   3.935   6.022 -0.1358  1.3364 -1.2165
   44MOL    H4113887   1.508   4.082   6.104  0.0813  0.0389 -0.1598
   44MOL    H4213888   1.493   3.921   6.310 -2.1581  0.4398  0.1677
   44MOL    H4313889   1.339   4.117   6.247 -0.7441 -1.0031  1.4263
   44MOL    H4413890   1.112   3.996   6.082 -2.4606  0.6354 -0.3412
   44MOL    H4513891   1.205   4.133   6.042 -0.8581  2.7374  2.0605
   44MOL    H4613892   1.078   4.147   6.170  0.4381  0.1818  0.5261
   44MOL    H4713893   1.143   3.909   6.340 -0.7386 -0.1052 -0.4430
   44MOL    H4813894   1.265   3.987   6.434 -2.0579  0.8383  2.2521
   44MOL    H4913895   1.119   4.077   6.375 -1.2114 -1.9260 -2.3506
   44MOL    C5013896   1.504   3.738   6.195 -0.1972  0.1703 -0.1114
   44MOL    C5113897   1.432   3.660   6.300 -0.7111  0.5277 -0.0846
   44MOL    O5213898   1.507   3.542   6.329 -0.7053  0.2332  0.4186
   44MOL    C5313899   1.547   3.518   6.463 -0.3875 -0.0728 -0.3341
   44MOL    C5413900   1.685   3.595   6.473  0.3036  0.5047  0.1049
   44MOL    C5513901   1.572   3.365   6.482  0.3976 -0.4572  0.2825
   44MOL    H5613902   1.488   3.703   6.093  1.8021 -2.3118  0.3959
   44MOL    H5713903   1.610   3.717   6.206  0.4272  3.3131  0.3600
   44MOL    H5813904   1.423   3.724   6.388 -0.9437  0.7750 -0.2876
   44MOL    H5913905   1.466   3.542   6.531 -0.3685 -0.0863 -0.3070
   44MOL    H6013906   1.741   3.599   6.566 -0.8649  3.5259  0.7295
   44MOL    H6113907   1.661   3.695   6.439 -3.6773 -0.3823  0.0363
   44MOL    H6213908   1.750   3.546   6.400 -1.1651 -1.4382  0.0689
   44MOL    H6313909   1.656   3.337   6.419  1.1205  1.4884  0.3249
   44MOL    H6413910   1.487   3.305   6.452 -1.1794  0.2083  3.2056
   44MOL    H6513911   1.602   3.349   6.586 -0.1457  1.6462  0.7890
   44MOL    C6613912   1.285   3.614   6.270 -0.4126  0.7854  0.0378
   44MOL    C6713913   1.267   3.557   6.127 -0.6933 -0.0861  0.9997
   44MOL    O6813914   1.129   3.502   6.131 -0.6767 -0.3707 -0.2073
   44MOL    C6913915   1.055   3.535   6.016  0.0462 -0.1462 -0.4264
   44MOL    C7013916   0.931   3.443   5.999 -0.7862 -0.6012  0.1865
   44MOL    C7113917   1.020   3.684   6.024 -0.6086 -0.2716 -0.3846
   44MOL    H7213918   1.256   3.531   6.335  0.6016  0.6829  0.3564
   44MOL    H7313919   1.217   3.698   6.283  0.2908  1.4236 -0.4228
   44MOL    H7413920   1.278   3.635   6.052 -0.7207 -1.1151 -0.0744
   44MOL    H7513921   1.111   3.522   5.924  0.1025  1.1696 -0.5799
   44MOL    H7613922   0.886   3.431   6.097  0.0374  1.0321  0.7778
   44MOL    H7713923   0.852   3.457   5.925 -0.4761  1.0033  0.1296
   44MOL    H7813924   0.956   3.338   5.983 -1.1782 -0.9592  1.8712
   44MOL    H7913925   1.089   3.768   6.017  0.5476 -1.2161 -0.4176
   44MOL    H8013926   0.972   3.707   6.119 -1.7393 -0.7890 -0.8184
   44MOL    H8113927   0.943   3.706   5.950  0.0684  2.2774 -0.3725
   44MOL    C8213928   1.369   3.444   6.091 -0.2336 -0.1444  0.0508
   44MOL    C8313929   1.362   3.356   5.961 -0.4818 -0.3642 -0.0596
   44MOL    O8413930   1.456   3.401   5.864  0.2609  0.1609 -0.3959
   44MOL    C8513931   1.418   3.518   5.795  0.9693 -0.7343 -0.0847
   44MOL    C8613932   1.347   3.487   5.665  0.4150 -0.2219  0.0487
   44MOL    C8713933   1.540   3.616   5.790 -0.2658 -1.2312 -0.3955
   44MOL    H8813934   1.468   3.490   6.087 -0.5337  0.6812  1.5731
   44MOL    H8913935   1.392   3.382   6.177  0.4818 -0.6783 -0.5235
   44MOL    H9013936   1.260   3.359   5.923  0.0261 -0.1092 -1.4347
   44MOL    H9113937   1.349   3.574   5.858  2.8843 -0.4788  1.8812
   44MOL    H9213938   1.312   3.574   5.609  1.6054  1.0713  1.2459
   44MOL    H9313939   1.413   3.428   5.602  0.5806 -1.1938  1.1202
   44MOL    H9413940   1.263   3.419   5.679 -1.3117  1.4728 -1.7274
   44MOL    H9513941   1.626   3.592   5.728  0.3526  0.3968 -0.1771
   44MOL    H9613942   1.501   3.712   5.755  1.6967 -0.9051 -1.7366
   44MOL    H9713943   1.577   3.627   5.892 -0.8094 -1.4109 -0.1740
   44MOL    C9813944   1.394   3.207   5.986 -0.8559  0.2497 -0.6558
   44MOL    C9913945   1.281   3.117   6.045 -0.0273  0.7179 -0.2025
   44MOL   O10013946   1.150   3.121   5.993 -0.2009 -0.1506 -0.5363
   44MOL   C10113947   1.131   3.039   5.878  0.3198 -0.6501 -0.2324
   44MOL   C10213948   1.019   3.105   5.793  0.2640  0.1707  0.3491
   44MOL   C10313949   1.099   2.905   5.926  0.2546  0.5133 -0.2803
   44MOL   H10413950   1.422   3.167   5.889 -0.9397 -1.7620  0.1180
   44MOL   H10513951   1.488   3.196   6.040 -1.4674  1.1898  0.6251
   44MOL   H10613952   1.317   3.015   6.032 -3.6468 -0.7624  0.6347
   44MOL   H10713953   1.221   3.040   5.816 -0.2046 -0.5567 -0.9975
   44MOL   H10813954   1.063   3.182   5.730 -2.1278 -0.4808 -2.2220
   44MOL   H10913955   0.960   3.157   5.868 -1.2656  0.3239 -0.9467
   44MOL   H11013956   0.961   3.032   5.736  0.2840  0.5420 -0.1492
   44MOL   H11113957   1.058   2.849   5.842 -2.9788 -1.8599  2.7207
   44MOL   H11213958   1.021   2.910   6.003 -2.2448 -2.0853 -2.5474
   44MOL   H11313959   1.178   2.840   5.963 -1.2132 -0.5411  1.0556
   44MOL   C11413960   1.264   3.142   6.194  0.0638 -0.8447 -1.0174
   44MOL   C11513961   1.237   3.016   6.273  0.3614 -0.3065 -0.4266
   44MOL   O11613962   1.365   2.956   6.300 -0.1446  0.1249 -0.1007
   44MOL   C11713963   1.373   2.813   6.254 -0.0269  0.7818 -0.2004
   44MOL   C11813964   1.287   2.722   6.340  0.0355 -0.0604 -0.3078
   44MOL   C11913965   1.526   2.779   6.255 -0.5408 -0.0711  0.3229
   44MOL   H12013966   1.180   3.209   6.207  0.3048 -0.7750  0.2139
   44MOL   H12113967   1.354   3.194   6.229  0.3388 -1.8923 -0.1364
   44MOL   H12213968   1.180   2.941   6.218 -0.3700  0.4368 -0.6859
   44MOL   H12313969   1.333   2.820   6.153 -1.2682  1.1550  0.2982
   44MOL   H12413970   1.185   2.759   6.346 -0.7270 -2.4083  1.8598
   44MOL   H12513971   1.328   2.726   6.441 -0.0279  0.7213 -0.3057
   44MOL   H12613972   1.288   2.619   6.305 -0.5623 -0.0790 -0.2760
   44MOL   H12713973   1.578   2.808   6.346  2.4639 -0.4551 -1.2130
   44MOL   H12813974   1.582   2.830   6.177 -0.4304 -0.4749  0.1382
   44MOL   H12913975   1.526   2.670   6.244  0.0040  0.3202 -4.4658
   44MOL   C13013976   1.171   3.046   6.409  0.2329 -0.0598 -0.2830
   44MOL   C13113977   1.020   3.086   6.414  0.0353  0.0933  0.0750
   44MOL   O13213978   1.005   3.145   6.541  0.4738 -0.5068 -0.3521
   44MOL   C13313979   1.043   3.284   6.562 -0.0349 -0.4666 -0.0165
   44MOL   C13413980   0.974   3.398   6.477  0.2321  1.2590  0.1920
   44MOL   C13513981   1.018   3.319   6.712  0.3584 -0.5674 -0.1656
   44MOL   H13613982   1.233   3.124   6.453 -2.0156  1.2702  0.6405
   44MOL   H13713983   1.169   2.965   6.481  0.0951  1.3278  1.3042
   44MOL   H13813984   0.993   3.151   6.331 -0.7302 -0.5850 -0.2135
   44MOL   H13913985   1.144   3.314   6.533 -0.9733  2.3098 -0.5286
   44MOL   H14013986   1.021   3.416   6.381 -2.0394  0.3429 -1.1335
   44MOL   H14113987   0.985   3.492   6.530 -2.1775  1.3341  0.6120
   44MOL   H14213988   0.868   3.379   6.462  0.3006 -2.0532  3.1124
   44MOL   H14313989   1.035   3.235   6.779  1.1940  0.4001  0.8645
   44MOL   H14413990   1.081   3.404   6.738  1.1433 -0.6229 -1.8916
   44MOL   H14513991   0.915   3.355   6.722 -0.1149 -1.6857 -0.9700
   44MOL   C14613992   0.935   2.964   6.399  0.0040  0.4149  0.3764
   44MOL   C14713993   0.784   2.995   6.374 -0.5634  0.3696 -1.0761
   44MOL   O14813994   0.780   3.005   6.231 -0.1167  0.2927 -0.1195
   44MOL   C14913995   0.668   3.072   6.174 -0.2562  0.2035 -0.7414
   44MOL   C15013996   0.643   3.027   6.030  0.1819  0.0681 -0.4179
   44MOL   C15113997   0.686   3.224   6.184 -0.0346 -0.0487  0.1294
   44MOL   H15213998   0.942   2.896   6.484  0.7821 -1.3482 -1.0701
   44MOL   H15313999   0.974   2.902   6.319  2.2504  0.3515  1.4749
   44MOL   H15414000   0.751   3.088   6.420  1.6095 -0.2068  1.8254
   44MOL   H15514001   0.585   3.047   6.240  0.1508 -1.4068 -0.8206
   44MOL   H15614002   0.549   3.058   5.984 -0.0370 -1.9346 -1.3536
   44MOL   H15714003   0.643   2.918   6.027  0.7898  0.1046 -2.5608
   44MOL   H15814004   0.730   3.068   5.979  0.9871 -0.5245  0.4759
   44MOL   H15914005   0.598   3.279   6.150 -0.9431  0.4340  3.1182
   44MOL   H16014006   0.782   3.259   6.148 -0.5477  2.8710  1.4798
   44MOL   H16114007   0.697   3.250   6.289  4.3194 -0.2405 -0.1956
   44MOL   C16214008   0.696   2.876   6.414  0.1170  0.0258  0.1632
   44MOL   C16314009   0.669   2.875   6.567 -0.0645  0.2301  0.4020
   44MOL   O16414010   0.591   2.990   6.583  0.1193 -0.0209  0.3021
   44MOL   C16514011   0.628   3.078   6.682 -0.8127 -0.2268  0.0989
   44MOL   C16614012   0.580   3.024   6.821  0.1279 -1.0269  0.8699
   44MOL   C16714013   0.553   3.212   6.647  0.2288  0.1104  0.2540
   44MOL   H16814014   0.596   2.886   6.374 -0.2844 -1.2489  0.8244
   44MOL   H16914015   0.738   2.783   6.378  2.7791 -0.2349  3.6755
   44MOL   H17014016   0.757   2.873   6.631  0.6216 -2.1153 -0.5593
   44MOL   H17114017   0.737   3.076   6.672 -1.0048 -3.1123 -2.0832
   44MOL   H17214018   0.474   3.001   6.813  0.1024 -0.1704 -1.5813
   44MOL   H17314019   0.606   3.092   6.903  1.0730 -1.5012  0.9755
   44MOL   H17414020   0.642   2.937   6.846  0.5054 -0.2058  2.8623
   44MOL   H17514021   0.566   3.224   6.540 -1.9523  1.3933  0.0956
   44MOL   H17614022   0.603   3.287   6.709  0.9104  0.0632 -0.2343
   44MOL   H17714023   0.447   3.210   6.675  1.2885 -0.6640  4.6106
   44MOL   C17814024   0.581   2.758   6.612 -0.7399 -0.0146 -0.1357
   44MOL   C17914025   0.647   2.644   6.695 -0.6848 -0.7637 -0.1169
   44MOL   O18014026   0.562   2.529   6.713  0.5442  0.3081 -0.0952
   44MOL   C18114027   0.472   2.520   6.818  0.3476  0.0360 -0.6212
   44MOL   C18214028   0.540   2.479   6.952 -0.7568  0.1704  0.4038
   44MOL   C18314029   0.366   2.422   6.770  0.5375 -0.2339 -0.9977
   44MOL   H18414030   0.529   2.711   6.528 -0.3056  0.8267 -0.8811
   44MOL   H18514031   0.501   2.804   6.669 -2.2258 -3.7245  0.9141
   44MOL   H18614032   0.666   2.673   6.799 -2.9213 -1.9211  0.6796
   44MOL   H18714033   0.419   2.615   6.827 -0.4630 -0.5787  1.3211
   44MOL   H18814034   0.464   2.493   7.028  0.3891 -2.4417  2.0808
   44MOL   H18914035   0.618   2.551   6.976 -1.6703  1.9418 -1.7840
   44MOL   H19014036   0.573   2.376   6.968 -2.5003 -0.4302  0.2120
   44MOL   H19114037   0.298   2.405   6.853  0.7535 -0.6604 -0.9004
   44MOL   H19214038   0.417   2.326   6.755 -0.0383 -0.6414 -0.3785
   44MOL   H19314039   0.308   2.450   6.683 -1.2735  0.2100  0.3221
   44MOL   C19414040   0.778   2.591   6.628  0.4519 -1.1956 -0.1623
   44MOL   C19514041   0.854   2.498   6.726 -0.3643 -0.3662  0.2746
   44MOL   O19614042   0.992   2.514   6.680 -0.2532 -0.1590  0.1375
   44MOL   C19714043   1.086   2.567   6.780  0.9080 -0.5916  0.2839
   44MOL   C19814044   1.215   2.490   6.757  0.2537  0.1800  0.1855
   44MOL   C19914045   1.102   2.720   6.765  0.4054  0.5802  0.3775
   44MOL   H20014046   0.756   2.533   6.539  1.9955 -1.6679 -0.2513
   44MOL   H20114047   0.842   2.676   6.607 -2.2426  1.1593  0.7837
   44MOL   H20214048   0.831   2.532   6.827 -0.1791  1.7218 -0.3708
   44MOL   H20314049   1.043   2.552   6.879 -1.9331 -1.3819 -1.0200
   44MOL   H20414050   1.269   2.523   6.668  0.8579 -1.1176  0.0668
   44MOL   H20514051   1.283   2.490   6.842  0.3815 -1.5401  0.0920
   44MOL   H20614052   1.205   2.384   6.736  3.6948 -0.1711  0.1559
   44MOL   H20714053   1.171   2.742   6.684  0.6807  3.4586  1.3374
   44MOL   H20814054   1.007   2.771   6.752 -0.4647 -1.3022 -0.7921
   44MOL   H20914055   1.145   2.771   6.851 -1.2111  0.5206  1.2473
   44MOL   C21014056   0.815   2.349   6.715 -1.0436 -0.8207 -0.5078
   44MOL   C21114057   0.884   2.255   6.816  0.4928 -0.0325  0.0491
   44MOL   O21214058   0.812   2.300   6.933 -0.6140  0.6891 -0.0708
   44MOL   C21314059   0.870   2.256   7.057  0.2141 -0.4802 -0.1138
   44MOL   C21414060   0.959   2.370   7.108 -0.5197  0.0689  1.0230
   44MOL   C21514061   0.752   2.233   7.150  0.2792 -0.2658 -0.0654
   44MOL   H21614062   0.856   2.325   6.617  0.2054  2.6765 -0.8872
   44MOL   H21714063   0.708   2.329   6.715 -1.0035 -1.0791 -1.9479
   44MOL   H21814064   0.987   2.284   6.834 -0.6574  3.4544  1.5352
   44MOL   H21914065   0.928   2.164   7.047  0.6225 -0.0571 -1.8474
   44MOL   H22014066   0.985   2.346   7.212  0.2557  1.6553  1.2130
   44MOL   H22114067   0.908   2.466   7.111  2.4442  1.7470 -0.1652
   44MOL   H22214068   1.052   2.387   7.054  0.6703 -3.4924  1.7631
   44MOL   H22314069   0.779   2.190   7.246 -0.3606  0.1107  0.2834
   44MOL   H22414070   0.679   2.174   7.094  0.8758  0.5419 -1.7514
   44MOL   H22514071   0.688   2.317   7.176  0.4046  0.1883 -1.1707
   44MOL   C22614072   0.871   2.103   6.791 -0.1006  0.2677 -0.2945
   44MOL   C22714073   0.885   2.048   6.648  0.8512 -0.2794 -0.3683
   44MOL   O22814074   0.857   1.907   6.657  0.0260  0.5064  0.8709
   44MOL   C22914075   0.724   1.862   6.652  0.1275  0.3116 -0.2498
   44MOL   C23014076   0.713   1.726   6.720  0.2422 -1.0153  0.7038
   44MOL   C23114077   0.670   1.867   6.510 -0.5552 -0.5278  0.6533
   44MOL   H23214078   0.768   2.079   6.818 -0.3855  1.0973 -0.6267
   44MOL   H23314079   0.934   2.055   6.866 -0.3596 -1.2855 -1.0465
   44MOL   H23414080   0.813   2.093   6.581  0.4053 -1.0631 -0.4222
   44MOL   H23514081   0.664   1.933   6.709 -1.0156 -0.9147  0.0883
   44MOL   H23614082   0.734   1.743   6.826  0.9875  0.8094  0.2777
   44MOL   H23714083   0.614   1.681   6.719  0.6859 -1.9934  0.7573
   44MOL   H23814084   0.779   1.651   6.677  1.6520  1.0514 -0.8025
   44MOL   H23914085   0.567   1.834   6.496 -0.3216 -0.7130 -0.7044
   44MOL   H24014086   0.718   1.788   6.452  0.4825 -1.5227  2.8225
   44MOL   H24114087   0.681   1.960   6.453  0.2583  0.5550  2.5417
   44MOL   C24214088   1.028   2.053   6.586 -0.6123  0.0539  0.6963
   44MOL   C24314089   1.040   1.984   6.444  0.2051 -0.0150 -0.0166
   44MOL   O24414090   1.180   1.957   6.425 -0.0817 -0.1449 -0.1504
   44MOL   C24514091   1.210   1.821   6.411 -0.7990  0.0734  0.1149
   44MOL   C24614092   1.358   1.809   6.371 -0.3416  0.9291 -0.9209
   44MOL   C24714093   1.192   1.756   6.551  0.3611 -0.1524 -0.4457
   44MOL   H24814094   1.062   2.155   6.571  1.0600 -0.7138 -0.8782
   44MOL   H24914095   1.094   1.999   6.654 -1.2102  0.3347  1.5172
   44MOL   H25014096   0.988   1.888   6.440  2.7859 -1.5674  1.8777
   44MOL   H25114097   1.151   1.775   6.332  0.3326 -0.7843 -0.2458
   44MOL   H25214098   1.380   1.873   6.286 -0.1550  0.0443 -1.5358
   44MOL   H25314099   1.428   1.848   6.446 -1.3493  0.2981  0.3722
   44MOL   H25414100   1.387   1.706   6.354 -2.1464 -0.0004  1.2585
   44MOL   H25514101   1.228   1.826   6.627  0.4058 -0.0421 -0.5683
   44MOL   H25614102   1.085   1.747   6.569  0.2915  0.3729 -0.5879
   44MOL   H25714103   1.231   1.656   6.569 -2.2271 -1.0662  0.4092
   44MOL   C25814104   1.002   2.077   6.323 -0.7046  0.1002 -0.4068
   44MOL   C25914105   0.993   2.012   6.182  0.6409  0.4999  0.2604
   44MOL   O26014106   0.999   2.107   6.074  0.5766 -0.5483 -0.2601
   44MOL   C26114107   1.119   2.102   5.993  0.8649 -0.1888  0.6659
   44MOL   C26214108   1.121   2.222   5.893 -0.3003  0.3385  0.0721
   44MOL   C26314109   1.252   2.089   6.072  0.0437 -0.0654 -0.0027
   44MOL   H26414110   0.904   2.120   6.344 -1.0621 -0.5775 -0.6666
   44MOL   H26514111   1.075   2.158   6.319  0.7160 -0.9541  2.4069
   44MOL   H26614112   1.063   1.930   6.166  0.8781  0.6725  0.4245
   44MOL   H26714113   1.112   2.013   5.930 -1.7828 -0.3000  1.0658
   44MOL   H26814114   1.041   2.220   5.818  0.3153  0.6800 -0.6064
   44MOL   H26914115   1.208   2.214   5.827 -0.8156 -0.8641 -0.4818
   44MOL   H27014116   1.120   2.318   5.944  0.7583 -0.0013  0.7459
   44MOL   H27114117   1.283   2.180   6.123  1.8196  0.4987 -1.9923
   44MOL   H27214118   1.265   2.001   6.135  0.6874 -0.2656 -0.4071
   44MOL   H27314119   1.326   2.072   5.993 -0.3748 -0.8415 -0.2278
   44MOL   C27414120   0.862   1.937   6.183 -0.0003  0.7780 -0.2316
   44MOL   C27514121   0.863   1.810   6.094 -0.8466 -0.1788  0.4376
   44MOL   O27614122   0.955   1.718   6.157  0.2180  0.8805  0.0553
   44MOL   C27714123   1.017   1.624   6.069  0.1760  0.2526  0.3416
   44MOL   C27814124   1.076   1.508   6.163 -0.2911 -0.0432  0.3284
   44MOL   C27914125   1.131   1.700   5.998  0.1920  0.1242 -0.0329
   44MOL   H28014126   0.838   1.893   6.280  3.1095 -1.1636 -0.2795
   44MOL   H28114127   0.788   2.012   6.155 -0.7327 -0.5929 -2.1012
   44MOL   H28214128   0.895   1.826   5.991 -1.5549 -0.4032  0.1793
   44MOL   H28314129   0.942   1.587   5.998  1.7520 -1.9803 -0.2150
   44MOL   H28414130   1.136   1.552   6.243 -1.7795  0.3147  1.2669
   44MOL   H28514131   0.999   1.466   6.228 -1.2742  3.0362  1.2618
   44MOL   H28614132   1.129   1.435   6.103 -0.2906 -0.0391  0.3233
   44MOL   H28714133   1.209   1.736   6.065  0.7185 -1.0032 -0.0291
   44MOL   H28814134   1.096   1.790   5.946 -0.6341 -0.1704  0.0080
   44MOL   H28914135   1.194   1.631   5.941 -0.7300 -0.0815 -0.8157
   44MOL   C29014136   0.723   1.747   6.080 -0.0496  0.2702  0.6582
   44MOL   C29114137   0.605   1.832   6.022  0.4968 -0.3699  0.3217
   44MOL   O29214138   0.640   1.875   5.893  0.4681 -0.2846 -0.1129
   44MOL   C29314139   0.700   2.002   5.868 -0.1802 -0.6963 -0.1755
   44MOL   C29414140   0.595   2.114   5.866 -0.0803  0.6248 -0.0810
   44MOL   C29514141   0.768   1.997   5.728  0.0430 -0.0397  0.3173
   44MOL   H29614142   0.688   1.696   6.170  0.7680 -2.0474 -0.3093
   44MOL   H29714143   0.728   1.669   6.004 -3.1271 -0.6068  1.2749
   44MOL   H29814144   0.592   1.918   6.088  1.7866  0.3312 -0.3153
   44MOL   H29914145   0.773   2.028   5.945 -0.1924  1.7233 -0.9396
   44MOL   H30014146   0.539   2.121   5.959 -1.1035 -1.5910 -0.5023
   44MOL   H30114147   0.628   2.209   5.824  1.1955 -0.1076 -0.7659
   44MOL   H30214148   0.519   2.075   5.798  0.7726 -1.2761  0.0289
   44MOL   H30314149   0.701   1.963   5.648 -0.4026 -0.2876  0.7928
   44MOL   H30414150   0.810   2.093   5.696 -0.8125 -0.4285 -2.1319
   44MOL   H30514151   0.853   1.930   5.722  0.3263  0.2443  1.1957
   44MOL   C30614152   0.480   1.748   6.009  0.3120 -0.4092  0.4542
   44MOL   C30714153   0.358   1.836   5.977  0.3000 -1.0298 -0.6888
   44MOL   O30814154   0.245   1.753   5.959 -0.3299 -0.1202 -0.5235
   44MOL   C30914155   0.117   1.817   5.958  0.3601  0.0256 -0.2643
   44MOL   C31014156   0.087   1.861   5.812 -0.0005  0.5234 -0.2107
   44MOL   C31114157   0.011   1.728   6.027  0.3713  0.4927  0.0629
   44MOL   H31214158   0.462   1.703   6.106  0.7175 -2.6860 -0.5080
   44MOL   H31314159   0.492   1.663   5.942  0.0814 -1.0116  1.1672
   44MOL   H31414160   0.347   1.917   6.049  3.8718 -0.3023 -0.8675
   44MOL   H31514161   0.124   1.909   6.015 -0.7200 -0.3965  0.5544
   44MOL   H31614162   0.175   1.907   5.768  1.4564 -0.8803  1.1917
   44MOL   H31714163   0.005   1.932   5.801 -0.2671 -0.0443 -2.0001
   44MOL   H31814164   0.065   1.773   5.751 -0.9565  0.9936 -0.5508
   44MOL   H31914165   7.751   1.793   6.059  0.9651  1.1899  0.1564
   44MOL   H32014166   0.061   1.673   6.107  1.4918  2.1730  0.5420
   44MOL   H32114167   7.791   1.656   5.955 -0.2948 -0.1647  1.0842
   44MOL   H32214168   0.384   1.890   5.886 -0.4782  2.9586  1.3857
   45MOL     C114169   5.582   1.757   4.569 -0.0747  0.8111 -0.4249
   45MOL     C214170   5.590   1.815   4.429 -0.1104  0.1456  0.8967
   45MOL     O314171   5.724   1.869   4.421 -0.2478 -0.3918  0.2455
   45MOL     C414172   5.740   2.009   4.455 -0.5272  0.0869 -0.2749
   45MOL     C514173   5.779   2.081   4.327  0.4371 -0.0527  0.6005
   45MOL     C614174   5.842   2.023   4.573  0.2206  0.8979  0.0496
   45MOL     H714175   5.602   1.822   4.654  2.4591 -0.4636  0.0170
   45MOL     H814176   5.487   1.716   4.602  1.1033 -1.8676 -0.2010
   45MOL     H914177   5.508   1.886   4.419  0.5097  0.6549 -0.7589
   45MOL    H1014178   5.648   2.054   4.492  0.6275  1.4684  1.0051
   45MOL    H1114179   5.709   2.087   4.244  0.7688  2.8385  0.4879
   45MOL    H1214180   5.811   2.184   4.344  0.5000 -0.0350  0.3739
   45MOL    H1314181   5.875   2.036   4.302  0.4894 -0.1462  0.9644
   45MOL    H1414182   5.852   2.123   4.615  0.3913  1.2510 -0.8281
   45MOL    H1514183   5.811   1.953   4.652 -0.4592 -1.2301 -2.0529
   45MOL    H1614184   5.945   1.996   4.552 -0.5474 -2.5773  0.3844
   45MOL    H1714185   5.660   1.682   4.582  1.6670  2.7816  0.9236
   45MOL    C1814186   5.571   1.695   4.325 -0.1654  0.2382  0.3116
   45MOL    C1914187   5.519   1.741   4.184 -0.0860 -0.6247 -0.2548
   45MOL    O2014188   5.389   1.809   4.199 -0.4432  0.4400 -0.7801
   45MOL    C2114189   5.343   1.874   4.083  0.3364 -0.3628 -0.2260
   45MOL    C2214190   5.381   2.022   4.109  0.2181 -0.4238  0.0707
   45MOL    C2314191   5.196   1.844   4.052 -0.0962 -0.1977 -0.5657
   45MOL    H2414192   5.661   1.636   4.312 -1.9362 -2.7426  1.2113
   45MOL    H2514193   5.489   1.630   4.357 -0.6927  0.2005 -1.0940
   45MOL    H2614194   5.588   1.808   4.133  0.1060  0.4911  1.4157
   45MOL    H2714195   5.394   1.842   3.993 -0.1577  0.7718 -0.9139
   45MOL    H2814196   5.342   2.094   4.038 -2.4198 -0.7514  1.1534
   45MOL    H2914197   5.331   2.056   4.199  0.4485  0.6739 -0.2107
   45MOL    H3014198   5.484   2.048   4.135  0.3148 -0.5142 -0.2211
   45MOL    H3114199   5.160   1.920   3.983  0.2272  0.4322 -0.0368
   45MOL    H3214200   5.131   1.846   4.139  0.1639  1.2347 -0.4041
   45MOL    H3314201   5.192   1.744   4.009 -0.7300 -0.8228  0.9174
   45MOL    C3414202   5.503   1.624   4.087 -0.8326  0.8690 -0.2829
   45MOL    C3514203   5.628   1.593   3.999  0.2577 -0.6072 -0.2200
   45MOL    O3614204   5.739   1.587   4.100 -0.0169  0.2973  0.0490
   45MOL    C3714205   5.867   1.615   4.050 -0.4150  0.7890  0.3145
   45MOL    C3814206   5.914   1.754   4.104  0.2718 -0.3188 -0.2317
   45MOL    C3914207   5.969   1.505   4.089  0.3278 -0.3649  0.2234
   45MOL    H4014208   5.412   1.628   4.028 -1.1724 -0.0520  0.1713
   45MOL    H4114209   5.488   1.539   4.153 -0.6590  0.5442 -0.6625
   45MOL    H4214210   5.635   1.690   3.950 -0.4435 -1.7256 -2.5919
   45MOL    H4314211   5.868   1.613   3.941  0.4745 -0.9234  0.3373
   45MOL    H4414212   5.951   1.739   4.205  0.9241 -0.3604 -0.4769
   45MOL    H4514213   5.831   1.826   4.105  0.7900  0.2977 -0.8616
   45MOL    H4614214   5.989   1.800   4.040  0.1866  0.1809  0.0221
   45MOL    H4714215   5.938   1.408   4.049  1.2092 -0.0649 -1.2290
   45MOL    H4814216   6.070   1.526   4.055  0.1633  1.6786  0.9609
   45MOL    H4914217   5.989   1.512   4.196  0.8280 -2.4611  0.2991
   45MOL    C5014218   5.620   1.470   3.902 -0.2688 -0.2273  0.0913
   45MOL    C5114219   5.520   1.490   3.781 -0.1430 -0.5519 -1.0152
   45MOL    O5214220   5.472   1.363   3.738 -0.0500 -0.6155  0.1051
   45MOL    C5314221   5.327   1.346   3.733  1.1560  0.4701  0.6558
   45MOL    C5414222   5.261   1.359   3.871  0.4462 -0.1204  0.1736
   45MOL    C5514223   5.302   1.206   3.684  0.4189 -0.4328  0.5624
   45MOL    H5614224   5.718   1.439   3.866 -0.6313 -2.1376  0.7272
   45MOL    H5714225   5.592   1.384   3.961  0.9609  0.0693  1.1228
   45MOL    H5814226   5.439   1.558   3.807  1.9077  2.1391 -1.3806
   45MOL    H5914227   5.296   1.422   3.660  0.0336 -0.5568  0.0474
   45MOL    H6014228   5.282   1.450   3.928  0.8711  0.4429 -0.8687
   45MOL    H6114229   5.297   1.281   3.937  0.7269  1.0067  1.3809
   45MOL    H6214230   5.152   1.360   3.863  0.3821 -0.5692  0.9583
   45MOL    H6314231   5.373   1.174   3.609 -0.1671  0.3646 -0.3525
   45MOL    H6414232   5.197   1.186   3.661  0.6111  0.0168 -0.7497
   45MOL    H6514233   5.307   1.138   3.769  0.1208 -0.8713  0.2252
   45MOL    C6614234   5.589   1.567   3.663  0.2955 -0.0757  0.5410
   45MOL    C6714235   5.705   1.485   3.602  0.0474  0.2522 -0.1326
   45MOL    O6814236   5.829   1.526   3.666 -0.5370  0.2181  0.1425
   45MOL    C6914237   5.938   1.430   3.671  0.3540 -0.4365  0.2806
   45MOL    C7014238   6.065   1.489   3.739  0.7641 -0.1365 -0.7459
   45MOL    C7114239   5.911   1.290   3.736  0.4541 -0.1026  0.4660
   45MOL    H7214240   5.510   1.583   3.589  0.8470  2.4640  0.4823
   45MOL    H7314241   5.617   1.666   3.697  0.8462  0.2057 -0.7285
   45MOL    H7414242   5.678   1.380   3.607 -1.9770  0.6659 -1.5183
   45MOL    H7514243   5.964   1.403   3.569  0.2993 -0.1893  0.2016
   45MOL    H7614244   6.129   1.413   3.783 -0.1378 -0.6892 -0.3824
   45MOL    H7714245   6.117   1.562   3.676 -0.7042 -0.0630 -1.9179
   45MOL    H7814246   6.031   1.560   3.814 -0.3802 -0.8950 -0.5315
   45MOL    H7914247   5.839   1.249   3.665  0.0678  2.2883 -0.5521
   45MOL    H8014248   5.859   1.291   3.832 -2.4808 -1.0128 -1.0626
   45MOL    H8114249   5.997   1.223   3.736 -1.1158 -2.1895 -1.2828
   45MOL    C8214250   5.733   1.516   3.451  0.3025 -0.5575 -0.1955
   45MOL    C8314251   5.622   1.482   3.346  0.5057  0.1721 -0.3707
   45MOL    O8414252   5.701   1.490   3.226 -0.2260  0.1883 -0.0849
   45MOL    C8514253   5.633   1.528   3.106  0.0003  0.4809 -0.0949
   45MOL    C8614254   5.697   1.468   2.983 -0.0896  0.5894  0.6315
   45MOL    C8714255   5.609   1.679   3.097  0.2184 -0.0789  0.5272
   45MOL    H8814256   5.774   1.615   3.433 -2.0988  0.6692  0.8403
   45MOL    H8914257   5.820   1.458   3.421 -0.3031 -0.8122 -1.5221
   45MOL    H9014258   5.550   1.562   3.361 -2.6018 -2.2562 -1.8920
   45MOL    H9114259   5.538   1.474   3.103  0.7948 -0.8670 -1.8029
   45MOL    H9214260   5.629   1.469   2.897  0.8203  0.1054 -0.1062
   45MOL    H9314261   5.794   1.515   2.964  0.2681 -0.7273 -0.8715
   45MOL    H9414262   5.718   1.363   3.004  1.1161  0.0839 -2.7636
   45MOL    H9514263   5.700   1.739   3.105  0.3311 -0.2480  0.5216
   45MOL    H9614264   5.559   1.705   3.005 -0.2205 -1.6338  0.3062
   45MOL    H9714265   5.546   1.705   3.182 -0.2969  1.0036 -0.1852
   45MOL    C9814266   5.544   1.349   3.355  0.1337 -0.0376  0.0617
   45MOL    C9914267   5.619   1.219   3.303 -0.1486 -0.3868  0.4090
   45MOL   O10014268   5.523   1.109   3.297 -0.8774  0.3860 -0.3612
   45MOL   C10114269   5.435   1.110   3.181  0.3510  0.0211  1.0264
   45MOL   C10214270   5.309   1.024   3.205 -0.3418 -0.7649 -0.3714
   45MOL   C10314271   5.500   1.058   3.053  0.1704 -0.0204  0.0024
   45MOL   H10414272   5.496   1.340   3.453  1.9712  2.0726  1.1907
   45MOL   H10514273   5.459   1.375   3.291  0.5246 -0.7471 -0.7543
   45MOL   H10614274   5.675   1.223   3.209 -0.4345 -3.0619  0.0816
   45MOL   H10714275   5.410   1.213   3.155 -1.3311 -0.9329 -1.3920
   45MOL   H10814276   5.237   1.047   3.126 -0.4084 -0.1234 -0.1238
   45MOL   H10914277   5.274   1.057   3.303  1.7525 -2.2070  0.8922
   45MOL   H11014278   5.322   0.916   3.211 -0.0390 -0.5993  2.5191
   45MOL   H11114279   5.584   1.123   3.030  0.3416 -0.7588 -1.5396
   45MOL   H11214280   5.452   1.052   2.955 -0.1860 -0.5707  0.2088
   45MOL   H11314281   5.537   0.955   3.056  1.8746  0.6160  3.4416
   45MOL   C11414282   5.713   1.176   3.410 -0.0952 -0.5979 -0.5294
   45MOL   C11514283   5.810   1.063   3.362 -0.3792 -0.2696 -0.2709
   45MOL   O11614284   5.921   1.128   3.301  0.3159  0.2850  0.1024
   45MOL   C11714285   5.940   1.106   3.159  0.1746 -0.0484 -0.2748
   45MOL   C11814286   5.985   0.966   3.120  0.1256 -0.4637  0.1934
   45MOL   C11914287   6.056   1.205   3.125  0.1263 -0.3254  0.1386
   45MOL   H12014288   5.664   1.156   3.504 -1.0654 -1.6858 -1.2565
   45MOL   H12114289   5.774   1.261   3.440 -2.3247  0.2808  1.6664
   45MOL   H12214290   5.760   0.999   3.290 -1.3990  0.1683  0.0335
   45MOL   H12314291   5.845   1.128   3.109  0.3032  1.1559  0.0053
   45MOL   H12414292   6.019   0.951   3.018  1.1047 -0.0972  0.4505
   45MOL   H12514293   5.919   0.882   3.140 -0.3506  0.2653  1.7949
   45MOL   H12614294   6.072   0.935   3.178  0.0714  0.2121  0.6507
   45MOL   H12714295   6.141   1.202   3.194 -0.2837  1.4173  0.7358
   45MOL   H12814296   6.007   1.302   3.128 -1.0989 -0.9502  0.6671
   45MOL   H12914297   6.099   1.179   3.029 -0.8518  0.4278 -0.5057
   45MOL   C13014298   5.871   0.978   3.473  0.2121 -0.0515  0.6219
   45MOL   C13114299   5.780   0.878   3.544 -0.0823  0.4634 -0.2808
   45MOL   O13214300   5.849   0.834   3.662  0.2160 -0.5461 -0.1682
   45MOL   C13314301   5.881   0.926   3.769 -0.5624  0.1576  1.4265
   45MOL   C13414302   5.749   0.964   3.826 -0.7958  0.2837 -0.0952
   45MOL   C13514303   5.972   0.849   3.864 -0.1573 -0.1151 -0.1304
   45MOL   H13614304   5.903   1.049   3.549  1.0121  1.2174 -0.8503
   45MOL   H13714305   5.955   0.919   3.438  0.1198  0.4419 -0.4776
   45MOL   H13814306   5.688   0.921   3.583  0.1657  1.2779 -0.5816
   45MOL   H13914307   5.939   1.016   3.748  0.3789 -0.9287 -0.8507
   45MOL   H14014308   5.673   0.889   3.801  0.6835 -0.7347 -1.5961
   45MOL   H14114309   5.719   1.060   3.784 -2.2059  0.1823  0.6386
   45MOL   H14214310   5.758   0.972   3.935  0.7129  1.3891 -0.2919
   45MOL   H14314311   5.918   0.774   3.921 -1.9374 -1.1180 -3.0185
   45MOL   H14414312   6.043   0.790   3.808 -0.9486 -1.5795  0.3859
   45MOL   H14514313   6.007   0.921   3.938  0.6051 -2.3354  1.7087
   45MOL   C14614314   5.759   0.742   3.468 -0.3169  0.2503 -0.2250
   45MOL   C14714315   5.658   0.741   3.361 -0.5067  0.1062  0.1258
   45MOL   O14814316   5.678   0.616   3.298 -0.1531 -0.3275 -0.2923
   45MOL   C14914317   5.773   0.608   3.188  0.0386 -0.2042  0.0042
   45MOL   C15014318   5.722   0.674   3.061  0.3080  0.2986  0.1336
   45MOL   C15114319   5.808   0.460   3.186 -0.1286  0.8124 -0.9209
   45MOL   H15214320   5.734   0.665   3.541  0.2890 -0.6724 -0.9753
   45MOL   H15314321   5.860   0.712   3.441  0.2597  1.8236  0.0941
   45MOL   H15414322   5.683   0.817   3.287 -2.5997  0.4706 -0.2406
   45MOL   H15514323   5.862   0.664   3.218 -0.6234  0.6192  0.4555
   45MOL   H15614324   5.643   0.614   3.017 -0.6815  1.2220  0.6171
   45MOL   H15714325   5.800   0.687   2.986 -0.8699  2.4107 -0.7690
   45MOL   H15814326   5.666   0.767   3.069 -1.6387 -0.7985 -0.5340
   45MOL   H15914327   5.861   0.427   3.275 -0.6003  2.2507 -0.0852
   45MOL   H16014328   5.878   0.445   3.104  0.6274  0.7367 -0.2671
   45MOL   H16114329   5.716   0.405   3.168 -0.4981  0.1026  2.8126
   45MOL   C16214330   5.518   0.767   3.427  0.3178  0.0069 -0.0309
   45MOL   C16314331   5.465   0.686   3.548  0.2217 -0.5666  0.0852
   45MOL   O16414332   5.332   0.715   3.573  0.0648 -0.3762 -1.1390
   45MOL   C16514333   5.302   0.840   3.628  0.5015 -0.4941 -0.7595
   45MOL   C16614334   5.321   0.835   3.786  0.0604  0.4236  0.3066
   45MOL   C16714335   5.159   0.873   3.590 -0.5261 -0.4981  0.5622
   45MOL   H16814336   5.509   0.874   3.441 -1.5828 -0.3469  1.8209
   45MOL   H16914337   5.446   0.743   3.348  2.1408  1.5717 -2.2410
   45MOL   H17014338   5.524   0.703   3.637 -0.5838  0.0939  0.5029
   45MOL   H17114339   5.364   0.923   3.596 -1.0004  1.8179  1.9727
   45MOL   H17214340   5.274   0.748   3.832  0.1579 -0.1179 -0.6089
   45MOL   H17314341   5.277   0.919   3.840  1.3484  2.1729 -1.3195
   45MOL   H17414342   5.425   0.832   3.818 -0.1421 -2.5900  0.8595
   45MOL   H17514343   5.139   0.878   3.483  1.0438 -1.4807  0.1997
   45MOL   H17614344   5.127   0.965   3.639 -1.2174  0.3521 -1.4593
   45MOL   H17714345   5.089   0.795   3.620 -2.0873  0.7135  0.1303
   45MOL   C17814346   5.474   0.537   3.525 -0.4716 -0.2272  0.4269
   45MOL   C17914347   5.463   0.449   3.649  0.1568 -0.5433  0.5808
   45MOL   O18014348   5.434   0.317   3.612 -0.7588  0.6748  0.3561
   45MOL   C18114349   5.303   0.275   3.574  0.1987 -0.5114 -0.2185
   45MOL   C18214350   5.205   0.286   3.689 -0.4389 -0.1043  0.3110
   45MOL   C18314351   5.334   0.132   3.537 -0.5560  0.2686  0.5338
   45MOL   H18414352   5.571   0.521   3.477 -0.8628 -0.5135 -0.2712
   45MOL   H18514353   5.389   0.517   3.461 -1.3677  0.9319  1.2504
   45MOL   H18614354   5.384   0.482   3.716 -1.9547 -0.8201 -1.6963
   45MOL   H18714355   5.281   0.323   3.479 -1.2718  0.0317  0.3902
   45MOL   H18814356   5.118   0.243   3.639 -0.6424  0.9282 -0.2437
   45MOL   H18914357   5.180   0.386   3.724 -0.7539 -0.2184  0.4094
   45MOL   H19014358   5.234   0.226   3.775  0.9578 -1.5243 -1.1262
   45MOL   H19114359   5.241   0.089   3.500  0.8391 -0.6826 -2.0288
   45MOL   H19214360   5.373   0.068   3.616  3.2927 -0.9359 -2.1770
   45MOL   H19314361   5.417   0.120   3.467 -1.9615 -0.7779 -1.0001
   45MOL   C19414362   5.594   0.446   3.724  0.0362  0.2119  0.5931
   45MOL   C19514363   5.598   0.366   3.860 -0.2443  0.9076  0.5809
   45MOL   O19614364   5.699   0.430   3.935  0.4521  0.3619 -0.0426
   45MOL   C19714365   5.658   0.493   4.050  0.1775 -0.2452  0.2461
   45MOL   C19814366   5.773   0.503   4.153 -0.2480  0.4001  0.0204
   45MOL   C19914367   5.610   0.639   4.022  0.4506  0.4436  0.6420
   45MOL   H20014368   5.671   0.410   3.656 -1.3005  1.5257 -1.6718
   45MOL   H20114369   5.630   0.544   3.756  0.4686  0.1750  0.2345
   45MOL   H20214370   5.504   0.357   3.915 -0.8257 -1.0642 -0.6710
   45MOL   H20314371   5.586   0.434   4.106 -0.2154 -1.1407 -1.1698
   45MOL   H20414372   5.858   0.563   4.118  1.2229 -2.1334 -0.9063
   45MOL   H20514373   5.735   0.542   4.247 -0.0478  1.4662 -0.3360
   45MOL   H20614374   5.820   0.411   4.187  0.7107  0.9271  0.1397
   45MOL   H20714375   5.620   0.703   4.110  0.6041 -0.0162  0.9612
   45MOL   H20814376   5.675   0.685   3.948 -0.5504  0.0155 -0.5139
   45MOL   H20914377   5.507   0.631   3.986  1.2327 -0.8261 -1.3555
   45MOL   C21014378   5.641   0.216   3.835 -0.2125  0.6654 -0.2327
   45MOL   C21114379   5.653   0.137   3.967  0.1744  0.5952  0.4316
   45MOL   O21214380   5.532   0.139   4.027 -0.1478  0.4798  0.0620
   45MOL   C21314381   5.542   0.100   4.171 -0.3649 -0.5716  0.0451
   45MOL   C21414382   5.603   0.205   4.260 -0.2826 -1.2682 -0.7757
   45MOL   C21514383   5.406   0.061   4.236 -0.0161  0.1253  0.3466
   45MOL   H21614384   5.743   0.214   3.797  0.2152 -1.6097  0.9653
   45MOL   H21714385   5.567   0.171   3.769  1.5242 -0.0290 -1.7309
   45MOL   H21814386   5.728   0.189   4.027 -0.5866  1.2178  0.8370
   45MOL   H21914387   5.614   0.019   4.182 -0.5736 -0.7856 -0.1480
   45MOL   H22014388   5.593   0.187   4.367  1.5880 -3.1488 -0.8836
   45MOL   H22114389   5.541   0.292   4.240  0.3604 -0.6066  0.0478
   45MOL   H22214390   5.710   0.226   4.248 -0.6441  0.0387 -1.7373
   45MOL   H22314391   5.378   7.784   4.198 -1.5256  0.3095  0.9659
   45MOL   H22414392   5.336   0.135   4.199  0.8467  0.3272 -0.9217
   45MOL   H22514393   5.400   0.063   4.345  0.1659  0.2156  0.3553
   45MOL   C22614394   5.689   7.809   3.932 -0.1996  0.4522  0.4406
   45MOL   C22714395   5.826   7.756   3.987 -0.1888 -0.0351  0.2764
   45MOL   O22814396   5.921   0.022   3.921 -0.4135 -1.0559  0.3309
   45MOL   C22914397   6.033   0.053   4.002  0.0721 -0.0355  0.2619
   45MOL   C23014398   6.013   0.183   4.087  0.0204  0.1567 -0.3841
   45MOL   C23114399   6.145   0.075   3.896 -0.9608  0.3998  0.1245
   45MOL   H23214400   5.679   7.793   3.825  2.0449  1.1935  0.0959
   45MOL   H23314401   5.623   7.738   3.982  0.1077 -0.0176  0.1834
   45MOL   H23414402   5.834   7.759   4.096  1.5822  0.7166  0.1519
   45MOL   H23514403   6.047   7.790   4.071  0.5760 -1.4521 -1.5085
   45MOL   H23614404   5.966   0.264   4.032  0.6322  1.2675  0.7095
   45MOL   H23714405   5.947   0.174   4.174  1.7826 -1.1890  0.8448
   45MOL   H23814406   6.107   0.220   4.126  1.4430 -0.4046 -3.1890
   45MOL   H23914407   6.234   0.085   3.959 -0.7420 -2.9163  0.4599
   45MOL   H24014408   6.128   0.173   3.851 -1.5003 -0.3510 -1.3187
   45MOL   H24114409   6.161   0.002   3.817 -0.3782 -1.3382  1.8102
   45MOL   C24214410   5.873   7.626   3.943 -0.8670  0.5146  0.2430
   45MOL   C24314411   5.785   7.500   3.978  0.1925  0.1784 -0.7941
   45MOL   O24414412   5.651   7.507   3.937  0.7101 -0.2244  0.0491
   45MOL   C24514413   5.627   7.452   3.808  0.4631  0.4193  0.0617
   45MOL   C24614414   5.592   7.302   3.825  0.4227 -0.0927 -0.0556
   45MOL   C24714415   5.510   7.525   3.753  0.5155  0.8501 -0.0616
   45MOL   H24814416   5.876   7.624   3.834 -2.5310  0.3758  0.1819
   45MOL   H24914417   5.976   7.600   3.970 -0.8514 -0.7326 -0.9070
   45MOL   H25014418   5.838   7.412   3.942  0.1781 -0.2449  0.2265
   45MOL   H25114419   5.709   7.458   3.736 -0.7199 -2.4633 -1.5930
   45MOL   H25214420   5.683   7.248   3.850  0.2609 -0.1286  0.4750
   45MOL   H25314421   5.524   7.310   3.910  1.5399 -0.6691  0.9046
   45MOL   H25414422   5.557   7.259   3.732 -2.4369  1.1260  0.4007
   45MOL   H25514423   5.528   7.625   3.716 -2.3804  1.6968  0.7241
   45MOL   H25614424   5.468   7.461   3.676 -0.2769 -0.9234  1.7713
   45MOL   H25714425   5.428   7.548   3.821  0.6506  1.8651 -0.2419
   45MOL   C25814426   5.778   7.483   4.135 -0.8324  0.0313 -0.8748
   45MOL   C25914427   5.913   7.421   4.192  0.0034  0.0901 -0.6982
   45MOL   O26014428   5.909   7.283   4.158  0.2075 -0.2270  0.2388
   45MOL   C26114429   6.012   7.242   4.076 -0.4312 -0.4359 -0.5018
   45MOL   C26214430   6.139   7.202   4.156  0.3009 -0.2902 -0.0907
   45MOL   C26314431   5.959   7.118   3.989 -1.0248  0.6246 -0.7760
   45MOL   H26414432   5.739   7.563   4.198 -2.0405 -0.0156 -1.5510
   45MOL   H26514433   5.692   7.418   4.153 -0.1298 -0.2615  1.6203
   45MOL   H26614434   5.996   7.478   4.152  1.4327 -2.0937 -0.9050
   45MOL   H26714435   6.028   7.308   3.991 -0.8486  0.4101  0.0734
   45MOL   H26814436   6.124   7.119   4.224  1.4442 -0.3445  0.0995
   45MOL   H26914437   6.169   7.288   4.216 -1.2313 -0.6911  1.2709
   45MOL   H27014438   6.225   7.184   4.091 -0.7227  1.0003 -1.8557
   45MOL   H27114439   6.035   7.073   3.926 -0.4543 -0.3674  0.5865
   45MOL   H27214440   5.904   7.042   4.045 -0.7106  0.8824 -0.1117
   45MOL   H27314441   5.883   7.154   3.920 -3.1260 -2.4503 -0.1837
   45MOL   C27414442   5.914   7.420   4.343 -0.4740 -0.9860 -0.8804
   45MOL   C27514443   5.945   7.559   4.408 -0.1993 -0.0200  0.6318
   45MOL   O27614444   5.914   7.551   4.550  0.3217  0.5469  0.3389
   45MOL   C27714445   5.788   7.611   4.577 -0.3696 -0.9848 -0.7517
   45MOL   C27814446   5.806   7.756   4.621  0.4814 -0.4323 -0.2966
   45MOL   C27914447   5.737   7.536   4.702 -0.1627  0.3617  0.1001
   45MOL   H28014448   5.818   7.380   4.376 -2.0248  2.7295 -0.6381
   45MOL   H28114449   5.986   7.342   4.369  0.3447  0.4865  1.4605
   45MOL   H28214450   5.883   7.630   4.354 -0.0075 -0.8020 -0.6331
   45MOL   H28314451   5.718   7.610   4.493  1.1055  1.4034 -2.0721
   45MOL   H28414452   5.715   7.780   4.677  0.9189 -2.2126  1.2440
   45MOL   H28514453   5.894   7.759   4.685  0.5620  0.7307 -0.4531
   45MOL   H28614454   5.823   7.817   4.533 -1.5781  3.1694  1.6948
   45MOL   H28714455   5.739   7.429   4.684  1.2260  0.4518 -0.3365
   45MOL   H28814456   5.641   7.574   4.738 -1.1776 -0.2123 -1.8766
   45MOL   H28914457   5.803   7.559   4.785 -0.1218 -1.1772  0.5111
   45MOL   C29014458   6.101   7.590   4.389 -0.4141 -0.3471  0.0079
   45MOL   C29114459   6.139   7.719   4.453  0.5932  0.5793 -0.1438
   45MOL   O29214460   6.277   7.748   4.437  0.0291 -0.5287 -0.0447
   45MOL   C29314461   6.361   7.686   4.531  0.6239  0.0976 -0.2083
   45MOL   C29414462   6.371   7.768   4.659 -0.2916  0.4663  0.0012
   45MOL   C29514463   6.497   7.673   4.458  0.5894 -0.0155  0.1178
   45MOL   H29614464   6.117   7.591   4.281 -2.0127 -0.6925 -0.2474
   45MOL   H29714465   6.173   7.515   4.422 -1.2409 -1.1423  0.0210
   45MOL   H29814466   6.112   7.708   4.558  2.9193 -1.2063  0.3121
   45MOL   H29914467   6.328   7.584   4.554  0.6913 -0.0827 -0.9062
   45MOL   H30014468   6.445   7.731   4.730 -1.0525 -0.8387  0.1360
   45MOL   H30114469   6.423   0.040   4.634 -0.4807  0.4576 -0.4305
   45MOL   H30214470   6.273   7.780   4.705  0.2189 -3.2974  2.3779
   45MOL   H30314471   6.476   7.604   4.377 -2.6161 -1.8021  2.3181
   45MOL   H30414472   6.535   7.769   4.424  2.3334 -0.8853 -0.4154
   45MOL   H30514473   6.577   7.639   4.524 -0.3620  0.0943  1.3581
   45MOL   C30614474   6.070   0.024   4.407  0.7964  0.7741 -0.2787
   45MOL   C30714475   6.074   0.132   4.512  0.6546 -1.0276 -0.2562
   45MOL   O30814476   6.002   0.243   4.466 -0.2541  0.2742  0.7636
   45MOL   C30914477   5.982   0.348   4.556  0.1954 -0.0794  0.0315
   45MOL   C31014478   5.955   0.474   4.469 -0.0787  0.1116 -0.3203
   45MOL   C31114479   5.856   0.310   4.634 -0.0935  0.4567  0.5522
   45MOL   H31214480   5.968   0.002   4.376  0.0918  3.3074  0.0857
   45MOL   H31314481   6.127   0.063   4.322 -1.4805  1.1102 -1.7089
   45MOL   H31414482   6.039   0.094   4.608 -0.6833 -0.9137 -0.6935
   45MOL   H31514483   6.072   0.360   4.617 -1.8701  0.8462  3.0192
   45MOL   H31614484   5.850   0.481   4.440 -0.5039 -0.9877  0.9548
   45MOL   H31714485   6.023   0.468   4.384  0.9948 -0.6107  0.5856
   45MOL   H31814486   5.972   0.567   4.523 -1.0051 -0.5692  1.1621
   45MOL   H31914487   5.832   0.399   4.693  2.3113 -0.3349  2.7676
   45MOL   H32014488   5.869   0.228   4.704 -0.4920 -0.8235 -0.8386
   45MOL   H32114489   5.782   0.295   4.555 -1.0607 -0.3338  1.5881
   45MOL   H32214490   6.178   0.157   4.535  0.8766 -0.6426 -1.6045
   46MOL     C114491   2.839   0.916   6.043 -0.2521  0.1600  0.2437
   46MOL     C214492   2.980   0.957   6.005  0.4063  0.2745 -0.6444
   46MOL     O314493   3.037   1.023   6.114  0.6349  0.2047 -0.5035
   46MOL     C414494   3.070   1.158   6.080 -0.3753  0.3211  0.6033
   46MOL     C514495   3.192   1.192   6.168 -0.4259  0.1671  0.3901
   46MOL     C614496   2.944   1.243   6.092 -0.4486 -0.2101  0.1477
   46MOL     H714497   2.777   1.006   6.044 -0.4468  0.0167  1.4969
   46MOL     H814498   2.793   0.859   5.962 -0.6710 -1.0390  1.2996
   46MOL     H914499   2.970   1.016   5.914 -0.3499 -0.2989 -0.9459
   46MOL    H1014500   3.109   1.160   5.978 -1.0975 -2.7003  0.2078
   46MOL    H1114501   3.233   1.290   6.149 -0.5651  0.3644  1.0809
   46MOL    H1214502   3.177   1.175   6.275  1.0793 -0.7240  0.4756
   46MOL    H1314503   3.269   1.119   6.143 -0.6172  0.2718 -0.5317
   46MOL    H1414504   2.967   1.348   6.070 -1.2392 -0.5594 -2.5325
   46MOL    H1514505   2.866   1.231   6.016  1.1224 -0.4817 -1.4516
   46MOL    H1614506   2.900   1.239   6.192 -1.3196  1.2589 -0.1638
   46MOL    H1714507   2.829   0.859   6.136 -1.0985 -0.1911 -0.0509
   46MOL    C1814508   3.066   0.832   5.977 -0.5504  0.1472 -0.2605
   46MOL    C1914509   3.213   0.853   5.944 -0.2589 -0.1245 -0.3284
   46MOL    O2014510   3.233   0.776   5.825 -0.5118  0.1170 -0.2828
   46MOL    C2114511   3.243   0.838   5.697  0.3656 -0.4320 -0.0015
   46MOL    C2214512   3.109   0.861   5.637  0.3282  0.3869  0.5041
   46MOL    C2314513   3.318   0.737   5.615 -0.1080  0.8624  0.0711
   46MOL    H2414514   3.064   0.770   6.067 -1.7572  0.5041 -0.0381
   46MOL    H2514515   3.006   0.771   5.910 -0.8652 -1.0147  1.0507
   46MOL    H2614516   3.226   0.960   5.925 -0.6833  0.0370  0.2537
   46MOL    H2714517   3.311   0.922   5.687 -1.4119  1.2332  1.6623
   46MOL    H2814518   3.117   0.909   5.539  1.5385  2.4030  1.5442
   46MOL    H2914519   3.051   0.769   5.633  0.0377  0.5480  0.8928
   46MOL    H3014520   3.045   0.935   5.686  0.8780  1.0547  0.2234
   46MOL    H3114521   3.324   0.781   5.515 -1.4933  2.6669  0.7506
   46MOL    H3214522   3.267   0.641   5.612 -0.8501  1.2375  0.4277
   46MOL    H3314523   3.419   0.715   5.648 -0.3342  2.6797  2.0577
   46MOL    C3414524   3.304   0.814   6.055 -0.5971  0.7832  0.2098
   46MOL    C3514525   3.455   0.830   6.031 -0.2087  0.2518  0.4332
   46MOL    O3614526   3.478   0.965   5.993  0.2533  0.2096  0.5474
   46MOL    C3714527   3.599   1.002   5.918  0.8301 -0.3652 -0.6041
   46MOL    C3814528   3.564   1.002   5.767  0.3810 -0.5257  0.1694
   46MOL    C3914529   3.647   1.134   5.981 -0.1381  0.0922  0.0292
   46MOL    H4014530   3.290   0.707   6.071  0.2812  0.2599 -2.3397
   46MOL    H4114531   3.283   0.879   6.139  0.7269  1.3664  0.0943
   46MOL    H4214532   3.486   0.765   5.949 -1.6281  3.1303 -2.5157
   46MOL    H4314533   3.680   0.932   5.937  0.4034 -0.5496  0.5709
   46MOL    H4414534   3.474   1.063   5.752  1.3075  0.8014 -0.0597
   46MOL    H4514535   3.542   0.902   5.733 -1.2206 -0.4573  0.9446
   46MOL    H4614536   3.642   1.056   5.714 -0.3376  0.6472  0.2839
   46MOL    H4714537   3.679   1.112   6.083 -1.0497 -0.0605  0.2916
   46MOL    H4814538   3.739   1.167   5.932  0.0700  0.8632  0.9279
   46MOL    H4914539   3.569   1.210   5.978 -0.4453 -0.0794  2.5847
   46MOL    C5014540   3.540   0.804   6.154  0.3288  0.4863  0.2512
   46MOL    C5114541   3.545   0.658   6.209 -0.2343  0.4374 -0.2892
   46MOL    O5214542   3.623   0.668   6.324 -0.2482 -0.0890  0.1641
   46MOL    C5314543   3.564   0.713   6.447  0.0041  1.0480 -0.2346
   46MOL    C5414544   3.666   0.786   6.532 -0.3406 -0.2395 -0.0004
   46MOL    C5514545   3.512   0.592   6.520  0.0869 -0.5219  0.3255
   46MOL    H5614546   3.644   0.833   6.137  1.0140 -1.5191  0.8811
   46MOL    H5714547   3.501   0.874   6.228 -0.9044  2.0545 -1.8008
   46MOL    H5814548   3.445   0.624   6.238 -0.1656  0.0073 -0.5541
   46MOL    H5914549   3.478   0.770   6.413 -3.0431 -1.8676  2.3323
   46MOL    H6014550   3.699   0.873   6.475  1.3522 -0.3335  0.8188
   46MOL    H6114551   3.753   0.727   6.559 -1.0911 -1.1426  0.4651
   46MOL    H6214552   3.624   0.826   6.624  0.6831  2.6608 -0.7216
   46MOL    H6314553   3.589   0.524   6.557  0.0866 -1.0530 -0.6358
   46MOL    H6414554   3.437   0.540   6.462 -1.9852  1.8525  0.8055
   46MOL    H6514555   3.461   0.628   6.609  0.0705  0.5961 -0.1280
   46MOL    C6614556   3.597   0.563   6.101 -0.1066 -0.0673 -0.0755
   46MOL    C6714557   3.631   0.422   6.149 -0.7402  0.2893  0.4183
   46MOL    O6814558   3.669   0.350   6.033 -0.4553 -0.6400  0.3597
   46MOL    C6914559   3.800   0.370   5.985 -0.2465  0.5145 -0.1599
   46MOL    C7014560   3.905   0.311   6.081 -0.1549  0.7612 -0.3422
   46MOL    C7114561   3.798   0.293   5.854  0.3105  0.1152  0.0939
   46MOL    H7214562   3.532   0.551   6.014 -3.6888 -1.1149  2.6223
   46MOL    H7314563   3.682   0.618   6.060 -1.2535  0.1331 -2.2618
   46MOL    H7414564   3.715   0.418   6.218 -1.1771 -0.1205  0.9274
   46MOL    H7514565   3.816   0.472   5.949 -3.2364  0.3481 -2.0712
   46MOL    H7614566   3.919   0.349   6.182  0.9186 -0.7857  0.1061
   46MOL    H7714567   3.872   0.208   6.084 -2.5769  1.5341  1.5815
   46MOL    H7814568   4.003   0.321   6.034 -0.6559 -0.1688 -1.6231
   46MOL    H7914569   3.897   0.277   5.812  0.7572 -0.7306  1.4286
   46MOL    H8014570   3.729   0.326   5.776  0.1080 -1.0563 -0.2358
   46MOL    H8114571   3.761   0.191   5.869 -0.9739  0.3475 -1.3424
   46MOL    C8214572   3.515   0.346   6.218 -1.0787  0.3209  0.3090
   46MOL    C8314573   3.532   0.196   6.235  0.3315 -0.8597 -0.7406
   46MOL    O8414574   3.531   0.158   6.370 -0.2534 -0.4344  0.0286
   46MOL    C8514575   3.656   0.183   6.441 -0.1183 -0.1547  0.6299
   46MOL    C8614576   3.759   0.071   6.406  0.5008 -0.3904  0.0170
   46MOL    C8714577   3.625   0.188   6.587 -0.0424 -0.1139  0.0766
   46MOL    H8814578   3.487   0.395   6.311 -1.9436 -0.6808  0.5878
   46MOL    H8914579   3.428   0.359   6.154 -1.6974  0.5816  1.1920
   46MOL    H9014580   3.624   0.166   6.183  1.3757  1.9900 -0.6471
   46MOL    H9114581   3.686   0.286   6.422  2.3852 -0.9216  0.2801
   46MOL    H9214582   3.719   7.790   6.412 -0.3012  0.0306  2.0072
   46MOL    H9314583   3.797   0.079   6.304  1.7401 -0.4617  0.4622
   46MOL    H9414584   3.848   0.075   6.469  0.5097 -1.2271  0.0535
   46MOL    H9514585   3.606   0.086   6.622 -2.9311 -0.2825 -1.7740
   46MOL    H9614586   3.717   0.229   6.628 -0.1363  0.3540 -0.1824
   46MOL    H9714587   3.552   0.267   6.604 -0.2543 -0.2892 -0.0122
   46MOL    C9814588   3.424   0.124   6.153  0.4030  0.2663  0.0942
   46MOL    C9914589   3.441   7.792   6.135 -0.5751  1.1412  0.4289
   46MOL   O10014590   3.511   7.769   6.012 -0.2860 -0.0600  0.0981
   46MOL   C10114591   3.603   7.656   6.019  0.8003  0.2597  0.1661
   46MOL   C10214592   3.723   7.699   6.106 -0.2740 -0.0915  0.3109
   46MOL   C10314593   3.639   7.627   5.874 -0.0432 -0.2826  0.0068
   46MOL   H10414594   3.331   0.139   6.207 -0.1176  0.8258 -0.9582
   46MOL   H10514595   3.403   0.168   6.056  0.5807 -1.3292 -0.6929
   46MOL   H10614596   3.496   7.760   6.224  0.3269 -2.3656 -1.3198
   46MOL   H10714597   3.552   7.567   6.057  0.0715  0.4132 -0.4326
   46MOL   H10814598   3.760   7.795   6.070 -2.2329 -0.2495 -2.3257
   46MOL   H10914599   3.796   7.623   6.078  2.1696  1.8261  1.2999
   46MOL   H11014600   3.710   7.688   6.213  2.4680  2.4586  0.9922
   46MOL   H11114601   3.700   7.537   5.869 -0.1131 -0.3259 -0.0618
   46MOL   H11214602   3.702   7.708   5.836  1.5525 -2.3563 -1.9307
   46MOL   H11314603   3.550   7.628   5.811  0.8166  0.0790 -1.2286
   46MOL   C11414604   3.302   7.718   6.121  0.7623 -0.0913  0.3324
   46MOL   C11514605   3.220   7.714   6.252  0.3901 -0.1402  0.3137
   46MOL   O11614606   3.077   7.722   6.219 -0.9487  1.0190  0.3236
   46MOL   C11714607   3.023   0.028   6.213 -0.5733 -0.1039 -0.7117
   46MOL   C11814608   2.991   0.082   6.353  0.5928  0.7491  0.7424
   46MOL   C11914609   2.900   0.033   6.128  0.4832 -0.1137  0.2810
   46MOL   H12014610   3.319   7.616   6.086 -0.2830  0.2860 -1.3057
   46MOL   H12114611   3.237   7.763   6.046  0.9938 -2.7443 -1.5588
   46MOL   H12214612   3.226   7.805   6.311 -0.4565 -0.5192  0.9991
   46MOL   H12314613   3.105   0.086   6.171 -1.2136 -0.4604 -2.5260
   46MOL   H12414614   2.907   0.026   6.394  0.9112 -1.0000 -0.9114
   46MOL   H12514615   2.963   0.184   6.327  1.2474  0.0359 -3.1335
   46MOL   H12614616   3.072   0.091   6.425  2.2877 -0.0438 -1.0264
   46MOL   H12714617   2.915   7.816   6.027 -1.6173 -0.8786  0.2390
   46MOL   H12814618   2.856   0.133   6.125 -0.2196 -0.4050  0.6899
   46MOL   H12914619   2.826   7.787   6.173 -0.8155  0.5455 -0.8383
   46MOL   C13014620   3.249   7.585   6.341 -0.3973  0.5534  0.4208
   46MOL   C13114621   3.349   7.596   6.454 -0.4655 -0.1986  0.4026
   46MOL   O13214622   3.382   7.461   6.485 -0.7962 -0.3150  0.1623
   46MOL   C13314623   3.493   7.402   6.421 -0.0759 -0.4109  0.3502
   46MOL   C13414624   3.628   7.475   6.434 -0.2543 -0.2818 -0.0780
   46MOL   C13514625   3.502   7.256   6.462 -0.3748 -0.2240 -0.4519
   46MOL   H13614626   3.266   7.490   6.291 -0.9421 -1.8105  4.5158
   46MOL   H13714627   3.152   7.573   6.389 -1.7999  1.1290 -2.2082
   46MOL   H13814628   3.432   7.653   6.413  0.5124 -0.4038  2.0685
   46MOL   H13914629   3.467   7.417   6.316 -2.2812 -3.2429  0.4204
   46MOL   H14014630   3.697   7.419   6.372  1.9727  0.1252  1.9399
   46MOL   H14114631   3.666   7.478   6.537  0.8415  0.4054 -0.4950
   46MOL   H14214632   3.628   7.580   6.406 -0.6576 -0.5519 -1.0960
   46MOL   H14314633   3.404   7.210   6.450 -0.0920 -1.4357  1.7561
   46MOL   H14414634   3.583   7.187   6.437  0.6934 -0.2580  2.8829
   46MOL   H14514635   3.509   7.264   6.570 -1.3542  0.6369 -0.4491
   46MOL   C14614636   3.298   7.668   6.583  0.1063 -0.0674 -0.2176
   46MOL   C14714637   3.384   7.701   6.701  0.1292  0.0499 -0.8066
   46MOL   O14814638   3.316   7.795   6.793  0.0735 -0.2840 -0.4779
   46MOL   C14914639   3.311   0.116   6.756 -0.3719 -0.4019 -0.3973
   46MOL   C15014640   3.400   0.183   6.858 -0.6118 -0.3490 -0.7287
   46MOL   C15114641   3.169   0.163   6.750  1.0526  0.5444  0.4870
   46MOL   H15214642   3.208   7.615   6.614 -0.3027 -1.3042 -3.3083
   46MOL   H15314643   3.257   7.764   6.551  0.8577  0.4856  0.4455
   46MOL   H15414644   3.477   7.738   6.658 -0.8386 -0.3097 -3.2616
   46MOL   H15514645   3.366   0.131   6.663 -1.7324  1.4289 -0.9304
   46MOL   H15614646   3.359   0.182   6.959  3.9653 -1.1365  1.2418
   46MOL   H15714647   3.402   0.286   6.823  3.1714 -0.5483 -1.2535
   46MOL   H15814648   3.495   0.134   6.880 -1.1899 -1.0375  0.2792
   46MOL   H15914649   3.165   0.270   6.728  1.3926 -0.0162 -2.3980
   46MOL   H16014650   3.112   0.142   6.841  1.7036 -0.5491  0.6479
   46MOL   H16114651   3.117   0.109   6.671  0.5215  0.3792  0.9465
   46MOL   C16214652   3.418   7.567   6.783  0.4249  0.0200 -0.5793
   46MOL   C16314653   3.507   7.578   6.903 -0.9143  0.6451  0.1016
   46MOL   O16414654   3.627   7.654   6.872  0.7599 -0.8796 -0.3874
   46MOL   C16514655   3.732   7.589   6.801  0.3271  0.1496 -0.0761
   46MOL   C16614656   3.817   7.517   6.901 -0.5089 -0.0910 -0.6749
   46MOL   C16714657   3.814   7.682   6.713 -0.3547  0.4652  0.3287
   46MOL   H16814658   3.324   7.516   6.807 -1.4182  2.3643 -2.5955
   46MOL   H16914659   3.468   7.493   6.719 -0.1970 -0.3453 -0.6442
   46MOL   H17014660   3.521   7.475   6.935 -1.0587  1.0983  1.6755
   46MOL   H17114661   3.683   7.512   6.741  1.5881 -2.0961  1.6915
   46MOL   H17214662   3.900   7.462   6.857  0.6863  0.9551  0.2319
   46MOL   H17314663   3.755   7.446   6.955 -0.4569  0.6223  0.3358
   46MOL   H17414664   3.862   7.575   6.981 -0.4219 -0.1381 -0.6902
   46MOL   H17514665   3.873   7.749   6.775  1.1728  0.0253 -0.6220
   46MOL   H17614666   3.740   7.725   6.646  0.7174  2.6832  0.5102
   46MOL   H17714667   3.891   7.619   6.669 -0.8074 -1.1837  1.8551
   46MOL   C17814668   3.435   7.646   7.026 -0.0751 -0.2550 -0.2246
   46MOL   C17914669   3.518   7.632   7.156 -0.0078  0.3138  0.4426
   46MOL   O18014670   3.514   7.757   7.222  0.7214 -0.4373  0.2181
   46MOL   C18114671   3.633   7.794   7.285 -0.3604 -0.1561 -0.0292
   46MOL   C18214672   3.613   0.007   7.436 -0.8976 -0.0986  0.8304
   46MOL   C18314673   3.695   0.091   7.214  0.1747 -0.1901  0.1478
   46MOL   H18414674   3.333   7.609   7.035 -0.1730  0.0265 -0.1476
   46MOL   H18514675   3.437   7.755   7.017 -0.1869 -0.0205  2.2061
   46MOL   H18614676   3.618   7.598   7.128 -0.6409 -2.1079  1.0056
   46MOL   H18714677   3.701   7.710   7.272 -0.7485 -0.1801 -1.9973
   46MOL   H18814678   3.706   0.037   7.484 -1.6585  1.2259  1.5121
   46MOL   H18914679   3.579   7.741   7.493  0.1539 -1.0623  0.0289
   46MOL   H19014680   3.536   0.084   7.439 -0.5245  0.4036 -1.3571
   46MOL   H19114681   3.688   0.071   7.107  1.5771  1.3623 -0.2508
   46MOL   H19214682   3.798   0.102   7.248 -0.5818  1.3073  2.0497
   46MOL   H19314683   3.626   0.174   7.230 -1.2471 -1.1784 -0.6603
   46MOL   C19414684   3.454   7.543   7.261 -0.2705  0.4186 -0.0553
   46MOL   C19514685   3.449   7.397   7.223 -0.0181  0.4484 -0.9903
   46MOL   O19614686   3.356   7.346   7.314  0.1914  0.2786 -0.7163
   46MOL   C19714687   3.247   7.272   7.255  0.6789  0.7781  0.5781
   46MOL   C19814688   3.182   7.194   7.373 -0.4681 -0.3395  1.0124
   46MOL   C19914689   3.150   7.349   7.167 -0.9639  0.8623 -0.5723
   46MOL   H20014690   3.506   7.563   7.355  1.3340  1.5955 -1.1686
   46MOL   H20114691   3.352   7.582   7.261 -0.2458  0.4871 -0.4537
   46MOL   H20214692   3.416   7.375   7.122 -2.9878 -0.7308  0.1664
   46MOL   H20314693   3.280   7.194   7.187 -0.1145 -0.7819  1.9385
   46MOL   H20414694   3.118   7.266   7.424 -0.6798  2.4929 -3.0662
   46MOL   H20514695   3.114   7.119   7.333  0.7553 -0.1744 -1.4497
   46MOL   H20614696   3.259   7.152   7.439 -1.2430 -2.2356  0.7502
   46MOL   H20714697   3.048   7.309   7.166 -0.8852  0.3573  3.3004
   46MOL   H20814698   3.158   7.453   7.197  0.1428  0.3159  1.0875
   46MOL   H20914699   3.164   7.343   7.059  0.7566 -2.6932 -0.2200
   46MOL   C21014700   3.591   7.326   7.239  0.5056 -0.9790  0.2608
   46MOL   C21114701   3.622   7.197   7.169 -0.7242  0.0722  0.1189
   46MOL   O21214702   3.671   7.236   7.044  0.0808  0.2195  0.3229
   46MOL   C21314703   3.637   7.149   6.935 -0.4857  0.5384  0.5450
   46MOL   C21414704   3.489   7.152   6.902  0.1960  0.0874 -0.2848
   46MOL   C21514705   3.720   7.202   6.813 -0.7733  0.2942 -0.2260
   46MOL   H21614706   3.619   7.320   7.344 -0.0030  1.7201  0.5802
   46MOL   H21714707   3.666   7.395   7.201  0.0590 -0.5503  0.1557
   46MOL   H21814708   3.535   7.133   7.170  0.8333 -2.1204 -1.1775
   46MOL   H21914709   3.675   7.048   6.952 -1.3538 -0.1517 -1.4405
   46MOL   H22014710   3.464   7.258   6.901  1.8110  0.6101  3.8220
   46MOL   H22114711   3.416   7.109   6.971  1.0316  0.0700  0.5958
   46MOL   H22214712   3.480   7.115   6.800 -0.6864 -2.0665  0.5414
   46MOL   H22314713   3.824   7.219   6.842 -1.2163  0.7295  1.1448
   46MOL   H22414714   3.681   7.300   6.785 -2.0400 -0.3927 -0.8681
   46MOL   H22514715   3.704   7.128   6.735  1.0311  0.6389 -0.9463
   46MOL   C22614716   3.739   7.117   7.237 -0.2410  0.8803 -0.1419
   46MOL   C22714717   3.701   7.003   7.332  0.3225  0.3070 -0.6567
   46MOL   O22814718   3.806   6.935   7.403 -0.1798  0.1139 -0.7084
   46MOL   C22914719   3.885   7.008   7.497 -0.7143  0.2136 -0.2831
   46MOL   C23014720   3.940   6.888   7.565  0.0501  0.3870 -0.1183
   46MOL   C23114721   3.798   7.089   7.598 -0.5465  0.8481  0.1497
   46MOL   H23214722   3.799   7.192   7.288  1.0503 -0.9232  1.0698
   46MOL   H23314723   3.806   7.077   7.160 -1.9862  0.5553 -1.5107
   46MOL   H23414724   3.628   7.051   7.398  0.4417 -0.7434  0.2615
   46MOL   H23514725   3.959   7.067   7.443  1.6013 -1.7002  0.6988
   46MOL   H23614726   4.004   6.908   7.651 -0.1066  2.0505 -0.3808
   46MOL   H23714727   3.864   6.818   7.601  1.9614 -2.3665 -1.2242
   46MOL   H23814728   3.998   6.834   7.490  0.7449  1.2474 -0.2162
   46MOL   H23914729   3.854   7.102   7.691  0.4322 -0.9439 -0.1757
   46MOL   H24014730   3.706   7.034   7.618  0.5914  0.1458  4.0159
   46MOL   H24114731   3.780   7.186   7.552 -0.4682  0.8079  0.0351
   46MOL   C24214732   3.621   6.888   7.269 -0.4531 -0.5901  0.2025
   46MOL   C24314733   3.698   6.775   7.183 -0.2564  0.5351 -0.2488
   46MOL   O24414734   3.744   6.839   7.065  0.1606 -0.5838 -0.0705
   46MOL   C24514735   3.849   6.778   6.993  1.3355 -0.6073  0.8763
   46MOL   C24614736   3.826   6.813   6.842  0.4618 -0.1364  1.1102
   46MOL   C24714737   3.984   6.817   7.041  0.4845 -0.1831  0.2129
   46MOL   H24814738   3.575   6.839   7.355  1.1971  0.1777  1.5655
   46MOL   H24914739   3.533   6.926   7.217  0.3799  0.1109 -0.7201
   46MOL   H25014740   3.776   6.739   7.250 -0.7931  0.5886  0.4107
   46MOL   H25114741   3.847   6.670   7.007 -1.8870 -0.4747  1.7733
   46MOL   H25214742   3.749   6.742   6.811 -0.9069  2.1329 -0.8061
   46MOL   H25314743   3.776   6.901   6.803  2.1436  1.0059  1.4890
   46MOL   H25414744   3.908   6.791   6.775  0.6981  1.2592  0.9312
   46MOL   H25514745   3.995   6.782   7.143 -2.6375 -1.7375  0.0696
   46MOL   H25614746   4.058   6.767   6.977 -1.4565 -3.0800  0.1439
   46MOL   H25714747   3.984   6.926   7.042  0.8375 -0.1624  3.1665
   46MOL   C25814748   3.601   6.662   7.132  0.6615 -0.3141 -0.0553
   46MOL   C25914749   3.553   6.565   7.243  0.7640 -0.9011 -0.5608
   46MOL   O26014750   3.659   6.474   7.274 -0.0184 -0.3656  0.3142
   46MOL   C26114751   3.693   6.462   7.414 -0.1148  0.2291 -0.0582
   46MOL   C26214752   3.744   6.315   7.428 -0.5987 -0.1020  0.5488
   46MOL   C26314753   3.802   6.558   7.449 -0.1706 -0.0455  0.2299
   46MOL   H26414754   3.518   6.715   7.087  1.3882  0.1906 -0.8151
   46MOL   H26514755   3.646   6.599   7.055  3.2322 -1.0500  1.9285
   46MOL   H26614756   3.516   6.617   7.332  3.6526 -0.6812  0.5553
   46MOL   H26714757   3.607   6.480   7.479  0.6537  0.6014  0.8673
   46MOL   H26814758   3.666   6.254   7.383  0.7110 -0.1808 -1.7334
   46MOL   H26914759   3.767   6.295   7.532  0.2239 -0.9716  0.2039
   46MOL   H27014760   3.835   6.294   7.371 -1.0605 -1.3644  0.2747
   46MOL   H27114761   3.884   6.545   7.379 -1.1477 -0.7958 -0.7925
   46MOL   H27214762   3.758   6.658   7.438  0.7155  0.2842 -0.3306
   46MOL   H27314763   3.858   6.551   7.543 -0.6415  1.0639  0.6116
   46MOL   C27414764   3.443   6.474   7.198  0.2452  0.2088  0.3501
   46MOL   C27514765   3.302   6.540   7.183 -0.9926  0.2083 -0.0370
   46MOL   O27614766   3.288   6.601   7.061  0.7789 -0.6367  0.5874
   46MOL   C27714767   3.203   6.719   7.040  0.8673  0.0813  0.3802
   46MOL   C27814768   3.198   6.750   6.889  0.6253 -0.5546  0.4473
   46MOL   C27914769   3.271   6.841   7.107  0.3330  0.0070  0.0923
   46MOL   H28014770   3.455   6.422   7.103 -0.8578  0.9012 -0.1862
   46MOL   H28114771   3.434   6.401   7.278 -1.9314  1.1974  1.0451
   46MOL   H28214772   3.289   6.610   7.265  0.2314 -1.6781  1.8342
   46MOL   H28314773   3.112   6.701   7.097  0.6982  0.5674  0.2599
   46MOL   H28414774   3.146   6.845   6.873  0.4172 -0.7509 -0.0559
   46MOL   H28514775   3.291   6.766   6.835 -0.0814 -0.4416 -0.7450
   46MOL   H28614776   3.134   6.684   6.831  0.6776 -0.4761  0.3015
   46MOL   H28714777   3.316   6.828   7.205 -1.5071  0.8784  1.0973
   46MOL   H28814778   3.206   6.927   7.124 -0.6060 -0.7909  0.6175
   46MOL   H28914779   3.350   6.885   7.046  1.5252 -0.5943  1.1888
   46MOL   C29014780   3.184   6.446   7.193 -0.5751 -0.6398  0.2404
   46MOL   C29114781   3.169   6.344   7.303  0.4321  0.2195  0.3762
   46MOL   O29214782   3.123   6.413   7.412 -0.0283  0.0270  0.4169
   46MOL   C29314783   3.141   6.349   7.539 -0.2687  0.5792 -0.2198
   46MOL   C29414784   3.026   6.387   7.637  0.1661  0.2322 -0.1769
   46MOL   C29514785   3.274   6.392   7.595 -0.1038  0.3362  0.2521
   46MOL   H29614786   3.182   6.389   7.100  3.5288  3.0436 -2.2957
   46MOL   H29714787   3.097   6.511   7.182  0.4884  0.5451 -1.4045
   46MOL   H29814788   3.268   6.300   7.315 -0.1405 -1.0742  0.4740
   46MOL   H29914789   3.143   6.240   7.538 -2.9311  0.5006  0.8359
   46MOL   H30014790   2.932   6.337   7.613 -0.5755  2.4926 -2.2452
   46MOL   H30114791   3.052   6.367   7.741  1.9316 -1.0111 -0.8470
   46MOL   H30214792   3.016   6.496   7.635 -0.4743  0.2552  2.7623
   46MOL   H30314793   3.354   6.375   7.523  0.1767  0.3214  0.5720
   46MOL   H30414794   3.272   6.500   7.606 -0.2484  0.6498 -2.4098
   46MOL   H30514795   3.294   6.348   7.692  1.8235 -2.7109 -1.4277
   46MOL   C30614796   3.081   6.218   7.262 -0.2334 -0.3003 -0.9058
   46MOL   C30714797   3.174   6.117   7.185  0.3726  0.3851  0.3697
   46MOL   O30814798   3.205   6.014   7.287 -0.0944 -0.1914 -0.5922
   46MOL   C30914799   3.344   5.971   7.287  0.1042 -0.0521 -0.0850
   46MOL   C31014800   3.429   6.081   7.347 -0.1427  0.2138 -0.4187
   46MOL   C31114801   3.343   5.842   7.374 -0.2011  0.1018 -0.9393
   46MOL   H31214802   3.013   6.246   7.182  0.3095 -1.3425 -1.7397
   46MOL   H31314803   3.013   6.185   7.340  0.2161  1.0283  0.0759
   46MOL   H31414804   3.112   6.071   7.108  2.2616  0.5671 -1.2824
   46MOL   H31514805   3.385   5.949   7.189  2.5927 -1.0188  1.1459
   46MOL   H31614806   3.395   6.125   7.440 -0.6948 -1.3030  0.1127
   46MOL   H31714807   3.452   6.169   7.287  0.2042  0.0212 -0.5703
   46MOL   H31814808   3.524   6.030   7.367 -0.4750 -0.1324  0.2943
   46MOL   H31914809   3.287   5.763   7.323 -2.1548  0.5639  0.4324
   46MOL   H32014810   3.290   5.862   7.467  1.9731  1.0714  0.1207
   46MOL   H32114811   3.445   5.818   7.406 -0.6486  1.1623  1.3947
   46MOL   H32214812   3.250   6.162   7.122 -0.6754 -1.5349 -2.3451
   47MOL     C114813   4.311   6.106   1.935  0.3345 -0.4130 -0.1942
   47MOL     C214814   4.212   6.149   2.040 -0.1060 -0.6237  0.5361
   47MOL     O314815   4.229   6.295   2.030 -0.0598 -0.1987 -0.7248
   47MOL     C414816   4.222   6.365   2.154  0.2820 -0.0426 -0.7706
   47MOL     C514817   4.178   6.510   2.129 -0.2427 -0.0428 -0.4285
   47MOL     C614818   4.359   6.343   2.219 -0.4721 -0.4065 -0.3662
   47MOL     H714819   4.413   6.134   1.960  0.4120 -1.6084  0.8414
   47MOL     H814820   4.308   5.999   1.916  0.9896 -0.0826 -2.2956
   47MOL     H914821   4.240   6.114   2.140 -0.0405  1.2695  1.1993
   47MOL    H1014822   4.168   6.309   2.232  4.1201 -0.6105  1.6091
   47MOL    H1114823   4.074   6.520   2.099  0.2131  2.0845 -1.3622
   47MOL    H1214824   4.183   6.566   2.223  1.8842  1.3142 -1.3067
   47MOL    H1314825   4.234   6.552   2.046 -1.0039 -2.0729 -1.9985
   47MOL    H1414826   4.367   6.234   2.215 -0.8414 -0.4060 -1.2809
   47MOL    H1514827   4.448   6.377   2.166  0.1998 -1.5838 -0.0231
   47MOL    H1614828   4.366   6.389   2.317 -2.0137 -0.8657 -0.0291
   47MOL    H1714829   4.290   6.156   1.840  0.5223  0.5837  0.2747
   47MOL    C1814830   4.067   6.104   2.019  0.3993 -0.7716  0.4655
   47MOL    C1914831   4.044   5.954   2.006  0.1461 -0.2529 -1.0475
   47MOL    O2014832   3.898   5.934   2.008 -0.1555 -0.1249 -0.5092
   47MOL    C2114833   3.824   5.954   1.896 -0.1741  0.4724  0.7276
   47MOL    C2214834   3.691   6.016   1.939 -0.1474 -0.6635  0.0270
   47MOL    C2314835   3.792   5.821   1.835 -0.2612  0.4277 -0.1663
   47MOL    H2414836   4.005   6.147   2.097 -0.7520 -0.6521 -0.4955
   47MOL    H2514837   4.030   6.152   1.928  2.4642  0.2948  0.1516
   47MOL    H2614838   4.078   5.921   1.908  0.8963 -0.5954 -0.6804
   47MOL    H2714839   3.869   6.021   1.823 -1.2400  0.4653  0.0412
   47MOL    H2814840   3.703   6.087   2.020  0.4373 -0.5178 -0.1862
   47MOL    H2914841   3.638   6.061   1.855 -0.9869 -0.1088  0.8484
   47MOL    H3014842   3.617   5.943   1.972  1.3418 -0.4904  4.0026
   47MOL    H3114843   3.727   5.818   1.747 -0.7793 -1.1173  0.2588
   47MOL    H3214844   3.758   5.751   1.912  2.8354  0.9555  1.7527
   47MOL    H3314845   3.890   5.783   1.808 -0.1055  0.3325  0.5405
   47MOL    C3414846   4.101   5.868   2.116  0.3170 -0.2794  0.2557
   47MOL    C3514847   4.086   5.715   2.078  0.8020  0.1749  0.1016
   47MOL    O3614848   4.179   5.701   1.966  0.3063  0.1626 -0.1382
   47MOL    C3714849   4.165   5.594   1.875  0.0835 -0.0249  0.3038
   47MOL    C3814850   4.144   5.651   1.732  0.3244 -0.5490  1.1504
   47MOL    C3914851   4.297   5.517   1.876 -0.1285  0.5689 -0.5109
   47MOL    H4014852   4.047   5.892   2.208 -1.3585 -2.3178 -0.1318
   47MOL    H4114853   4.206   5.892   2.127  0.3264 -0.6251  1.0051
   47MOL    H4214854   3.988   5.691   2.036  0.6867 -0.8924  0.9662
   47MOL    H4314855   4.082   5.531   1.906 -0.1010  0.3327  0.5348
   47MOL    H4414856   4.149   5.572   1.658 -5.3721  0.1337 -0.2167
   47MOL    H4514857   4.228   5.718   1.715  1.3458 -1.7412  1.4219
   47MOL    H4614858   4.050   5.704   1.715  1.1138  0.8013  0.9251
   47MOL    H4714859   4.327   5.507   1.980  0.1658  0.0582 -0.6444
   47MOL    H4814860   4.310   5.424   1.820  1.3255  1.7611 -2.2019
   47MOL    H4914861   4.375   5.584   1.840 -0.5247  1.4764  0.3115
   47MOL    C5014862   4.123   5.609   2.179 -0.7493 -0.0526  0.1321
   47MOL    C5114863   4.051   5.632   2.315  0.3812  0.2059  0.2512
   47MOL    O5214864   4.076   5.520   2.394  0.3680  0.1257  0.5682
   47MOL    C5314865   4.148   5.550   2.516  0.6927 -0.0859 -0.6549
   47MOL    C5414866   4.298   5.573   2.492 -0.0339  0.6897  0.3583
   47MOL    C5514867   4.120   5.441   2.624 -0.3710  0.3852  0.2030
   47MOL    H5614868   4.117   5.508   2.138 -2.4909 -0.2790  0.8964
   47MOL    H5714869   4.229   5.625   2.202 -0.8216 -0.9870  1.1637
   47MOL    H5814870   4.083   5.728   2.355 -0.0655  0.5096 -0.1132
   47MOL    H5914871   4.100   5.640   2.553 -1.2232 -1.5788  0.5580
   47MOL    H6014872   4.336   5.598   2.591 -0.1255  0.9618  0.3238
   47MOL    H6114873   4.310   5.657   2.425 -1.8183  0.9155  0.2891
   47MOL    H6214874   4.344   5.484   2.450 -2.1102 -0.4087  0.3222
   47MOL    H6314875   4.014   5.426   2.640 -0.5808  0.3781 -1.1568
   47MOL    H6414876   4.168   5.451   2.721 -0.5315 -3.2029  0.7206
   47MOL    H6514877   4.147   5.343   2.584 -0.3333  0.2491  0.5670
   47MOL    C6614878   3.896   5.639   2.302  0.0715 -0.2515 -0.1057
   47MOL    C6714879   3.823   5.655   2.443 -0.8154 -0.2296  0.2357
   47MOL    O6814880   3.683   5.644   2.422  0.1285  0.7625 -0.6018
   47MOL    C6914881   3.624   5.524   2.471 -0.5186  0.2542 -0.2713
   47MOL    C7014882   3.479   5.552   2.504 -0.0120  0.0044  0.3651
   47MOL    C7114883   3.640   5.409   2.371 -0.1013 -0.4136 -0.5773
   47MOL    H7214884   3.857   5.708   2.228 -1.0993 -1.2827 -0.4666
   47MOL    H7314885   3.865   5.545   2.258  0.3141 -0.6932  0.6488
   47MOL    H7414886   3.858   5.584   2.517 -0.4960 -1.6087 -1.2060
   47MOL    H7514887   3.683   5.504   2.561 -1.5473  0.2930  0.4248
   47MOL    H7614888   3.413   5.605   2.436  0.7726 -0.1030 -0.5086
   47MOL    H7714889   3.435   5.459   2.541  0.0497  0.3828  1.3926
   47MOL    H7814890   3.479   5.620   2.589 -2.4061  2.9000 -1.8315
   47MOL    H7914891   3.594   5.424   2.273 -0.9999 -2.5006 -0.4987
   47MOL    H8014892   3.601   5.322   2.423 -0.5977  0.3125  0.2895
   47MOL    H8114893   3.747   5.391   2.358 -0.1600 -2.1077  1.0776
   47MOL    C8214894   3.853   5.791   2.507  0.0801 -0.8459  0.4148
   47MOL    C8314895   3.789   5.812   2.652 -0.0884  0.1230  0.8735
   47MOL    O8414896   3.866   5.739   2.746 -0.0959 -0.0011 -0.7497
   47MOL    C8514897   3.790   5.655   2.832  0.0435 -0.1057  0.1526
   47MOL    C8614898   3.692   5.732   2.918  0.2867  0.4707 -0.3200
   47MOL    C8714899   3.898   5.599   2.922 -0.1319  0.6114 -0.0673
   47MOL    H8814900   3.960   5.806   2.517  0.0406  1.1681 -1.7772
   47MOL    H8914901   3.817   5.863   2.434 -0.7848 -2.0499 -0.3604
   47MOL    H9014902   3.684   5.781   2.655  0.1853 -0.9714 -0.3603
   47MOL    H9114903   3.738   5.573   2.782  1.4555 -1.4186  0.7964
   47MOL    H9214904   3.749   5.799   2.982  1.6291 -1.9041  1.0392
   47MOL    H9314905   3.617   5.794   2.869 -1.5858 -1.6699 -0.2341
   47MOL    H9414906   3.643   5.659   2.983  0.2037  0.2090 -0.6747
   47MOL    H9514907   3.849   5.530   2.991  2.5623 -1.9321 -0.5433
   47MOL    H9614908   3.965   5.531   2.868 -0.3789  2.5278 -2.9107
   47MOL    H9714909   3.960   5.670   2.977  1.0723 -0.0603 -0.5204
   47MOL    C9814910   3.809   5.957   2.701  0.2746 -0.1768 -0.1854
   47MOL    C9914911   3.714   6.057   2.636 -0.1768  0.1282 -0.9854
   47MOL   O10014912   3.771   6.094   2.505 -0.8358 -0.0693  0.3836
   47MOL   C10114913   3.681   6.144   2.404 -0.0469  0.1979  0.6435
   47MOL   C10214914   3.594   6.034   2.342 -0.1094  0.3149 -0.4830
   47MOL   C10314915   3.778   6.191   2.285  0.0933 -0.1779  0.3181
   47MOL   H10414916   3.773   5.941   2.802  1.8623 -0.7157  0.3009
   47MOL   H10514917   3.913   5.988   2.690 -0.7763  3.4184 -0.6201
   47MOL   H10614918   3.619   6.007   2.618 -0.8050  1.2250 -0.7941
   47MOL   H10714919   3.622   6.218   2.459  0.5705  0.7764  0.5349
   47MOL   H10814920   3.647   5.965   2.276 -2.9187 -1.5171 -0.9267
   47MOL   H10914921   3.512   6.063   2.276 -1.9364 -0.4960  1.3442
   47MOL   H11014922   3.533   5.982   2.417 -3.2457  2.0497 -1.7273
   47MOL   H11114923   3.725   6.248   2.208 -1.3364  1.2796  2.3260
   47MOL   H11214924   3.821   6.101   2.242 -1.7098  0.2825 -2.5830
   47MOL   H11314925   3.862   6.250   2.322  1.4203 -1.5324 -0.4743
   47MOL   C11414926   3.684   6.178   2.728 -0.0459 -0.0420 -0.4766
   47MOL   C11514927   3.534   6.179   2.761  0.0964 -0.3232  0.6121
   47MOL   O11614928   3.504   6.060   2.831  0.7540  0.1421 -0.2009
   47MOL   C11714929   3.362   6.018   2.841  0.5029  0.5339 -0.1625
   47MOL   C11814930   3.356   5.931   2.972  0.4779 -0.3534 -0.5432
   47MOL   C11914931   3.320   5.953   2.710 -0.5168 -0.0753 -0.4743
   47MOL   H12014932   3.722   6.268   2.680  0.1810  0.7567  1.1744
   47MOL   H12114933   3.745   6.185   2.818 -1.4252  3.1192  0.2884
   47MOL   H12214934   3.480   6.184   2.667  1.1730  0.9510  0.0425
   47MOL   H12314935   3.304   6.110   2.852 -1.9438 -1.1073  1.0150
   47MOL   H12414936   3.409   5.982   3.052  2.1183  3.2997 -3.7759
   47MOL   H12514937   3.408   5.835   2.964 -1.0226 -1.7302  4.6645
   47MOL   H12614938   3.257   5.907   3.009  0.7073 -0.2121  0.1797
   47MOL   H12714939   3.211   5.942   2.701 -0.4694  0.3947 -1.7682
   47MOL   H12814940   3.367   5.855   2.709  1.6370  0.8984  1.7054
   47MOL   H12914941   3.342   6.012   2.620  0.0418  1.8691  0.8964
   47MOL   C13014942   3.495   6.298   2.850 -0.1078 -1.1112  0.6882
   47MOL   C13114943   3.467   6.433   2.775 -0.5075  0.2182 -0.3932
   47MOL   O13214944   3.418   6.528   2.869  0.8124  0.3481  0.1242
   47MOL   C13314945   3.506   6.595   2.946 -0.0450 -0.3936 -0.8029
   47MOL   C13414946   3.520   6.742   2.897 -0.2166  0.1651 -0.0112
   47MOL   C13514947   3.453   6.582   3.090  0.3859 -0.0720  0.7597
   47MOL   H13614948   3.577   6.304   2.921 -1.2636 -2.8425  2.2287
   47MOL   H13714949   3.407   6.269   2.908 -0.1456 -0.2515  1.0681
   47MOL   H13814950   3.560   6.470   2.730 -0.1579  1.0296  0.9639
   47MOL   H13914951   3.609   6.557   2.947 -1.2576 -3.8812 -0.1819
   47MOL   H14014952   3.570   6.795   2.978  1.7648 -1.4613 -0.1430
   47MOL   H14114953   3.421   6.786   2.883 -0.0063  0.5758 -0.2197
   47MOL   H14214954   3.570   6.744   2.800  0.5895 -2.7161  0.2967
   47MOL   H14314955   3.353   6.620   3.112  0.0797  0.8948 -2.0684
   47MOL   H14414956   3.448   6.475   3.109  0.4059 -0.1093  0.5584
   47MOL   H14514957   3.515   6.635   3.162  0.5252 -1.8363  1.9800
   47MOL   C14614958   3.363   6.437   2.659 -0.0286  0.2970 -0.4213
   47MOL   C14714959   3.374   6.553   2.554  0.2800 -0.4071  0.2340
   47MOL   O14814960   3.477   6.518   2.460  0.0172 -0.1993 -0.3881
   47MOL   C14914961   3.570   6.618   2.411  0.5925  0.6602 -0.4242
   47MOL   C15014962   3.561   6.603   2.262 -0.9708 -0.4771 -0.2757
   47MOL   C15114963   3.709   6.593   2.467  0.3003 -0.0678 -0.3829
   47MOL   H15214964   3.263   6.434   2.702 -0.5645 -0.0250 -1.6804
   47MOL   H15314965   3.366   6.343   2.603 -1.3603 -0.0294  0.0278
   47MOL   H15414966   3.395   6.643   2.613  0.4913 -0.8735  0.8681
   47MOL   H15514967   3.542   6.717   2.447  0.9417  0.9518 -0.9458
   47MOL   H15614968   3.550   6.501   2.226 -1.4970 -0.3674 -0.4340
   47MOL   H15714969   3.636   6.662   2.210 -2.4780 -0.0637 -2.0388
   47MOL   H15814970   3.465   6.644   2.229 -0.1865  0.2923 -1.6216
   47MOL   H15914971   3.717   6.588   2.576  0.1126 -1.9214 -0.4258
   47MOL   H16014972   3.777   6.662   2.419 -0.4431 -0.7867 -2.5343
   47MOL   H16114973   3.739   6.498   2.423  0.6452 -0.2800  0.3056
   47MOL   C16214974   3.238   6.583   2.478  0.3701  0.5636 -0.0018
   47MOL   C16314975   3.224   6.729   2.419 -0.5830 -0.3865 -0.2537
   47MOL   O16414976   3.089   6.735   2.366  0.2746  0.3538 -0.6532
   47MOL   C16514977   3.089   6.702   2.223  0.0932  0.4889 -0.9006
   47MOL   C16614978   3.082   6.833   2.142  0.1651 -0.1992  0.3759
   47MOL   C16714979   2.973   6.607   2.195  0.2539  0.2769 -0.1256
   47MOL   H16814980   3.213   6.508   2.403 -0.9176  1.8386 -0.8728
   47MOL   H16914981   3.165   6.570   2.558 -1.3013 -0.3132 -1.6447
   47MOL   H17014982   3.292   6.758   2.340 -2.8375  1.4768 -1.5951
   47MOL   H17114983   3.180   6.647   2.198 -0.3586 -0.2320 -0.9670
   47MOL   H17214984   3.168   6.895   2.166  0.7734 -1.4777  1.5537
   47MOL   H17314985   2.988   6.887   2.159  0.0726  0.4068 -1.8081
   47MOL   H17414986   3.079   6.804   2.037  1.7552 -1.0054  0.5451
   47MOL   H17514987   2.951   6.590   2.090  0.7050 -1.9769  0.1124
   47MOL   H17614988   2.878   6.655   2.219  1.2369  2.3691 -0.2997
   47MOL   H17714989   2.977   6.508   2.241 -0.4374  1.4004  2.4212
   47MOL   C17814990   3.243   6.839   2.525  0.4489 -0.0493  0.4108
   47MOL   C17914991   3.218   6.988   2.472  0.0485 -0.0179  0.4649
   47MOL   O18014992   3.214   7.069   2.591 -0.4555  0.0015  0.1750
   47MOL   C18114993   3.093   7.092   2.663 -0.6986  0.3685 -0.1324
   47MOL   C18214994   3.036   7.222   2.616  0.5986  0.0877  0.6742
   47MOL   C18314995   3.129   7.103   2.811 -0.5252 -0.0905 -0.0908
   47MOL   H18414996   3.348   6.847   2.552  0.1786  1.7633  0.9791
   47MOL   H18514997   3.179   6.825   2.611  0.7761 -1.6328  0.4179
   47MOL   H18614998   3.123   7.001   2.421 -0.0890  1.3814  1.0464
   47MOL   H18714999   3.027   7.006   2.656  0.9404 -1.2965  3.8559
   47MOL   H18815000   3.118   7.294   2.607  0.9874 -0.7556 -3.3786
   47MOL   H18915001   2.959   7.258   2.684  1.1292 -0.1703  1.4308
   47MOL   H19015002   3.006   7.210   2.512 -0.2194  1.7944  0.6864
   47MOL   H19115003   3.039   7.119   2.871  0.8090 -0.0056  1.9327
   47MOL   H19215004   3.190   7.191   2.828 -1.2296  0.2161  0.8865
   47MOL   H19315005   3.192   7.017   2.834  2.4227  2.0115 -0.0813
   47MOL   C19415006   3.336   7.046   2.388 -0.4248 -0.2797 -0.3956
   47MOL   C19515007   3.297   7.179   2.327 -0.1305  0.3071  0.2150
   47MOL   O19615008   3.220   7.152   2.208 -0.2239 -0.8120  0.5235
   47MOL   C19715009   3.160   7.259   2.145 -0.2793 -0.5382 -0.4918
   47MOL   C19815010   3.128   7.205   2.009  0.5914  0.4398  0.5183
   47MOL   C19915011   3.032   7.286   2.224 -0.5392 -0.7439  0.5863
   47MOL   H20015012   3.420   7.050   2.457 -0.1741 -2.1257 -0.5777
   47MOL   H20115013   3.374   6.975   2.314 -0.6082  0.9666 -1.7246
   47MOL   H20215014   3.242   7.235   2.402 -0.9534 -0.6432  0.3312
   47MOL   H20315015   3.231   7.341   2.132  0.9314 -1.3522  0.8702
   47MOL   H20415016   3.068   7.115   2.019 -1.1944  1.3817 -1.2578
   47MOL   H20515017   3.072   7.269   1.941  0.8783  0.6010  0.4354
   47MOL   H20615018   3.214   7.174   1.950  0.0933  0.0277  0.0017
   47MOL   H20715019   2.993   7.197   2.275  0.0899 -0.3711  1.7441
   47MOL   H20815020   3.036   7.370   2.293 -1.2989  1.3747 -1.9065
   47MOL   H20915021   2.951   7.320   2.159 -0.9124 -2.4530  0.1112
   47MOL   C21015022   3.431   7.258   2.298  0.2590 -0.5018 -0.0115
   47MOL   C21115023   3.492   7.351   2.413  0.2993 -0.4696  0.0268
   47MOL   O21215024   3.603   7.414   2.347  0.6294 -0.1577 -0.1325
   47MOL   C21315025   3.727   7.366   2.374 -1.1769  0.5311 -0.3969
   47MOL   C21415026   3.793   7.363   2.231 -0.4084  0.4981  0.1761
   47MOL   C21515027   3.809   7.458   2.468 -0.0491 -0.5347 -0.5540
   47MOL   H21615028   3.420   7.315   2.206  0.2555 -0.4072  0.0486
   47MOL   H21715029   3.519   7.194   2.290 -1.5383 -3.0349 -0.2555
   47MOL   H21815030   3.513   7.293   2.503  4.8654 -0.4085 -0.9104
   47MOL   H21915031   3.722   7.261   2.402 -1.1947  0.9647  1.2819
   47MOL   H22015032   3.738   7.316   2.149 -1.2430  1.1884  0.3287
   47MOL   H22115033   3.885   7.306   2.215 -1.9774 -2.0198 -0.1691
   47MOL   H22215034   3.816   7.465   2.200 -0.5832  0.7896  0.9968
   47MOL   H22315035   3.759   7.456   2.565  0.7210 -0.9853 -0.1652
   47MOL   H22415036   3.812   7.562   2.434 -0.1916  0.1150  1.3927
   47MOL   H22515037   3.910   7.418   2.473 -0.0031 -0.2186  1.1103
   47MOL   C22615038   3.393   7.460   2.458  0.4587  0.4729  0.9988
   47MOL   C22715039   3.427   7.546   2.576 -0.3994 -1.0315  0.1414
   47MOL   O22815040   3.396   7.474   2.696  0.2493 -0.6554  0.2586
   47MOL   C22915041   3.491   7.488   2.801 -0.0124 -0.1032 -0.1047
   47MOL   C23015042   3.576   7.363   2.817  0.1573 -0.3034 -0.6391
   47MOL   C23115043   3.428   7.528   2.938 -0.2268 -0.3155  0.1136
   47MOL   H23215044   3.286   7.441   2.469  0.3437  1.1554  1.0486
   47MOL   H23315045   3.393   7.529   2.374  0.1575 -2.0324 -1.1511
   47MOL   H23415046   3.536   7.555   2.579 -0.5125  0.0880  1.2825
   47MOL   H23515047   3.559   7.571   2.779 -2.0281  1.0361 -2.3078
   47MOL   H23615048   3.606   7.326   2.719  1.1883  0.7662 -0.7436
   47MOL   H23715049   3.661   7.380   2.884  0.1207  3.3348 -1.4021
   47MOL   H23815050   3.513   7.286   2.861 -0.5695 -0.0843 -1.2892
   47MOL   H23915051   3.498   7.562   3.013 -1.8012  2.2875  0.4545
   47MOL   H24015052   3.361   7.449   2.972 -0.9578 -0.0150 -0.6044
   47MOL   H24115053   3.360   7.610   2.914  1.0473  0.4416 -0.9498
   47MOL   C24215054   3.359   7.685   2.593  0.0647 -0.0065  0.1942
   47MOL   C24315055   3.206   7.696   2.569  0.3938 -0.6853 -0.3326
   47MOL   O24415056   3.166   0.010   2.595  0.0032 -0.0590 -0.2771
   47MOL   C24515057   3.204   0.116   2.510 -0.4402  0.5810  0.1209
   47MOL   C24615058   3.156   0.086   2.364  0.3403  0.0130 -0.4770
   47MOL   C24715059   3.153   0.245   2.580  0.1302 -0.6010  0.6721
   47MOL   H24815060   3.394   7.734   2.684 -0.7967 -0.6367  0.8660
   47MOL   H24915061   3.408   7.738   2.511  0.7751 -2.9569 -1.3722
   47MOL   H25015062   3.185   7.666   2.467  2.3159  2.6188 -1.7659
   47MOL   H25115063   3.312   0.127   2.517 -0.5115  1.1530  0.3505
   47MOL   H25215064   3.186   7.808   2.330 -0.4903 -0.3519 -0.1671
   47MOL   H25315065   3.048   0.096   2.352  0.3458  1.0305  0.2123
   47MOL   H25415066   3.198   0.152   2.287 -0.8548  0.0092 -1.1433
   47MOL   H25515067   3.189   0.257   2.682 -0.8567 -2.2350  1.2171
   47MOL   H25615068   3.181   0.329   2.515 -0.8826 -2.3225 -2.0774
   47MOL   H25715069   3.045   0.259   2.587  0.5841  3.3928  1.3768
   47MOL   C25815070   3.124   7.610   2.668  0.5601  0.5260 -0.1527
   47MOL   C25915071   2.971   7.625   2.651  0.5312 -0.7731 -0.1412
   47MOL   O26015072   2.912   7.511   2.701  0.3001  0.2248 -0.3693
   47MOL   C26115073   2.867   7.515   2.835 -0.4373  0.5397 -0.0234
   47MOL   C26215074   2.732   7.443   2.851  0.2659 -0.1393  0.4735
   47MOL   C26315075   2.979   7.445   2.917 -0.6006 -0.0634  0.2354
   47MOL   H26415076   3.147   7.503   2.660 -0.3981  0.3083 -0.1093
   47MOL   H26515077   3.152   7.650   2.765 -1.6810  1.8449 -0.0210
   47MOL   H26615078   2.944   7.719   2.698 -0.7745 -1.5019  0.6020
   47MOL   H26715079   2.859   7.619   2.866  0.8592  0.1758  1.5568
   47MOL   H26815080   2.753   7.343   2.811 -1.0284 -0.0086 -0.5790
   47MOL   H26915081   2.645   7.479   2.795  1.3484 -2.0015 -2.5697
   47MOL   H27015082   2.704   7.436   2.956 -0.1704  0.6210  0.4060
   47MOL   H27115083   3.020   7.358   2.865  0.7648  0.4566  0.4148
   47MOL   H27215084   3.059   7.509   2.953 -0.8613  0.7887 -0.6868
   47MOL   H27315085   2.932   7.403   3.006 -0.9498  1.0024  0.5559
   47MOL   C27415086   2.915   7.618   2.507 -0.3844  0.2170  0.5063
   47MOL   C27515087   2.766   7.654   2.491 -0.2898 -0.3719  0.2135
   47MOL   O27615088   2.752   7.796   2.512  0.1591 -0.0379  0.2488
   47MOL   C27715089   2.626   0.007   2.578 -0.5911  0.2748 -0.4081
   47MOL   C27815090   2.607   0.150   2.546 -0.2661  0.3666  0.7301
   47MOL   C27915091   2.647   7.807   2.728  0.0564 -0.0594  0.2976
   47MOL   H28015092   2.966   7.689   2.442  0.4250 -1.6053 -0.8821
   47MOL   H28115093   2.936   7.520   2.464  0.5106  0.7673 -0.3248
   47MOL   H28215094   2.725   7.587   2.567 -1.1217 -1.4993 -1.2126
   47MOL   H28315095   2.537   7.780   2.537  0.1659 -0.9990 -0.6205
   47MOL   H28415096   2.590   0.178   2.442  1.3316  2.0287  0.8836
   47MOL   H28515097   2.522   0.183   2.605 -0.2487 -0.2038  1.0787
   47MOL   H28615098   2.684   0.209   2.596 -2.6559  3.0392  1.3835
   47MOL   H28715099   2.556   0.025   2.775 -2.5884 -1.1475 -3.7190
   47MOL   H28815100   2.735   0.041   2.763 -1.4054  2.7526 -0.2472
   47MOL   H28915101   2.653   7.705   2.766  1.6247 -0.2721 -0.4879
   47MOL   C29015102   2.698   7.616   2.354  0.3200 -0.2036  0.0140
   47MOL   C29115103   2.619   7.486   2.360  0.5209  0.7817 -0.7802
   47MOL   O29215104   2.561   7.468   2.233 -0.4567 -0.0900 -0.0400
   47MOL   C29315105   2.417   7.447   2.223 -0.5456 -0.4824 -0.8501
   47MOL   C29415106   2.402   7.343   2.109 -0.0407  0.0894  0.1132
   47MOL   C29515107   2.349   7.583   2.190  0.4246  0.4645 -0.1987
   47MOL   H29615108   2.764   7.612   2.267 -1.1925  0.7096 -1.2158
   47MOL   H29715109   2.622   7.692   2.334  0.0317 -0.2905  0.7741
   47MOL   H29815110   2.539   7.508   2.431  0.6304  0.6249 -0.6066
   47MOL   H29915111   2.386   7.401   2.317  1.0934  2.3426  1.1588
   47MOL   H30015112   2.442   7.245   2.133 -0.4020 -0.3030 -0.8585
   47MOL   H30115113   2.296   7.329   2.087 -0.2133  1.1970  0.2267
   47MOL   H30215114   2.444   7.371   2.013  0.6227  0.2466  0.4499
   47MOL   H30315115   2.241   7.569   2.188  0.5203 -0.7075  1.9494
   47MOL   H30415116   2.382   7.657   2.263  0.7886 -1.0534  1.1880
   47MOL   H30515117   2.382   7.627   2.095 -1.2305 -0.9665 -1.4669
   47MOL   C30615118   2.697   7.361   2.407 -0.3443  0.4463  0.0308
   47MOL   C30715119   2.638   7.222   2.379 -0.3951  0.4115 -0.3071
   47MOL   O30815120   2.740   7.129   2.428  0.0253 -0.1315 -0.3946
   47MOL   C30915121   2.703   6.990   2.401 -0.4939 -0.0361 -0.4467
   47MOL   C31015122   2.812   6.909   2.460  0.0391  0.6461 -0.1748
   47MOL   C31115123   2.569   6.952   2.477  0.5675  0.4913  0.5089
   47MOL   H31215124   2.724   7.376   2.512 -1.5928 -0.6046  0.5137
   47MOL   H31315125   2.797   7.360   2.364 -0.0766 -0.3852  0.6474
   47MOL   H31415126   2.532   7.223   2.406 -1.1244 -0.4797 -2.9086
   47MOL   H31515127   2.701   6.984   2.292  0.7566 -0.9309 -0.4281
   47MOL   H31615128   2.811   6.905   2.569  0.9423  1.8258 -0.1102
   47MOL   H31715129   2.913   6.944   2.437  0.3274 -0.8630 -1.3669
   47MOL   H31815130   2.808   6.804   2.429 -1.4374  1.0513 -1.3783
   47MOL   H31915131   2.484   7.011   2.442  0.7910  0.4002 -0.2062
   47MOL   H32015132   2.568   6.963   2.585 -0.2679  1.3032  0.4287
   47MOL   H32115133   2.546   6.847   2.464  1.8215 -0.0232  2.3485
   47MOL   H32215134   2.637   7.206   2.271  1.2301  1.2827 -0.4704
   48MOL     C115135   1.580   5.473   2.741 -0.4325  0.4204 -0.3268
   48MOL     C215136   1.612   5.331   2.798  0.3629 -0.5014  0.0550
   48MOL     O315137   1.742   5.290   2.755 -0.0603  0.4637 -0.0274
   48MOL     C415138   1.759   5.237   2.621  0.2605  0.0889 -0.0364
   48MOL     C515139   1.752   5.087   2.617  0.4165  0.2059 -0.2199
   48MOL     C615140   1.900   5.277   2.573  0.3026 -0.2217 -0.2777
   48MOL     H715141   1.561   5.472   2.634 -1.3810 -3.2349 -0.1801
   48MOL     H815142   1.497   5.526   2.787  0.1004  1.8384 -0.9592
   48MOL     H915143   1.541   5.262   2.752  1.4766 -1.1547 -0.7068
   48MOL    H1015144   1.681   5.284   2.560 -0.7395  0.3521  1.4179
   48MOL    H1115145   1.788   5.037   2.708 -1.2675  1.8044  1.3798
   48MOL    H1215146   1.647   5.061   2.606  0.4452  0.2961 -0.7064
   48MOL    H1315147   1.797   5.041   2.529  0.5953 -1.8828  0.9077
   48MOL    H1415148   1.920   5.240   2.473 -3.4183 -1.5377 -0.6392
   48MOL    H1515149   1.904   5.385   2.570  0.9146 -0.2589 -0.8416
   48MOL    H1615150   1.983   5.254   2.640 -1.4687 -0.9489  1.7623
   48MOL    H1715151   1.671   5.533   2.752 -1.3536  1.5298  1.3864
   48MOL    C1815152   1.617   5.332   2.955 -0.8300  0.6992  0.6547
   48MOL    C1915153   1.638   5.188   3.007 -0.6292 -0.5358  0.0378
   48MOL    O2015154   1.552   5.180   3.125  0.1263  0.1292  0.2518
   48MOL    C2115155   1.417   5.154   3.110  0.0521  0.0463 -0.4568
   48MOL    C2215156   1.355   5.199   3.238  0.1041  0.1872  0.1123
   48MOL    C2315157   1.381   5.005   3.087 -0.0740 -0.4566 -0.2758
   48MOL    H2415158   1.706   5.388   2.984 -1.3787  2.8463 -1.6944
   48MOL    H2515159   1.525   5.372   2.997 -1.5480  0.6056 -0.8136
   48MOL    H2615160   1.606   5.103   2.946 -4.6868 -0.3716  1.7499
   48MOL    H2715161   1.387   5.207   3.019 -0.8959 -0.5784 -0.5148
   48MOL    H2815162   1.407   5.154   3.323 -0.1793  2.3790  1.4990
   48MOL    H2915163   1.362   5.307   3.254 -2.6387  0.3926  0.0998
   48MOL    H3015164   1.249   5.174   3.236 -0.0164  0.6524  0.5079
   48MOL    H3115165   1.407   4.947   3.176  2.1296 -0.1592 -0.7184
   48MOL    H3215166   1.427   4.960   2.999 -1.4853  0.1577 -1.3511
   48MOL    H3315167   1.273   4.993   3.079 -0.1185  0.1982 -0.6090
   48MOL    C3415168   1.782   5.173   3.064 -0.2109  0.3297  0.5079
   48MOL    C3515169   1.817   5.026   3.109 -0.4627 -0.5116  0.3699
   48MOL    O3615170   1.846   4.954   2.986  0.3764 -0.0392  0.7000
   48MOL    C3715171   1.839   4.809   2.999 -0.3497 -0.0184 -0.6755
   48MOL    C3815172   1.762   4.769   2.875 -0.7354 -0.5837 -0.5619
   48MOL    C3915173   1.977   4.750   2.996 -0.9419  0.7250  0.2962
   48MOL    H4015174   1.785   5.242   3.148  0.7271  2.2525 -1.0352
   48MOL    H4115175   1.851   5.213   2.990 -0.1519  2.0841  1.4844
   48MOL    H4215176   1.729   4.979   3.153 -0.4473 -0.6479  0.2553
   48MOL    H4315177   1.799   4.776   3.096 -0.2751  0.8310 -0.3544
   48MOL    H4415178   1.820   4.826   2.802  1.4628 -0.9341  0.8586
   48MOL    H4515179   1.659   4.803   2.863 -0.4521  1.6206  2.6848
   48MOL    H4615180   1.752   4.661   2.862  1.1859 -0.5440 -2.6950
   48MOL    H4715181   2.030   4.783   2.907  0.9451 -0.9910  0.7437
   48MOL    H4815182   2.044   4.786   3.074 -0.9612 -2.0542  1.6380
   48MOL    H4915183   1.986   4.644   3.020 -0.8199  1.0984  1.9318
   48MOL    C5015184   1.920   5.013   3.216 -0.1316  0.4498  0.4874
   48MOL    C5115185   1.906   5.088   3.353 -0.1308 -0.0610 -0.1575
   48MOL    O5215186   2.026   5.087   3.424  0.3055 -0.2824  0.2552
   48MOL    C5315187   2.067   5.214   3.473  0.0556  0.1890 -0.5465
   48MOL    C5415188   2.141   5.303   3.375 -0.0688  0.4144 -0.0253
   48MOL    C5515189   2.158   5.194   3.599 -0.0472 -0.6795  0.2094
   48MOL    H5615190   1.931   4.908   3.245  0.3412  0.6492  1.0550
   48MOL    H5715191   2.012   5.054   3.175  0.1216 -0.0529  0.5458
   48MOL    H5815192   1.863   5.188   3.342 -0.0412  0.0689  0.5996
   48MOL    H5915193   1.982   5.273   3.509 -1.4500 -1.5858 -1.1446
   48MOL    H6015194   2.241   5.265   3.353  1.0937  3.5001 -0.3859
   48MOL    H6115195   2.147   5.408   3.403  1.0818  0.6315 -1.0488
   48MOL    H6215196   2.076   5.306   3.288  0.3557  3.0571 -0.2809
   48MOL    H6315197   2.171   5.292   3.645 -0.7181 -1.5459  2.2882
   48MOL    H6415198   2.256   5.151   3.576  0.4701  0.9069 -0.5796
   48MOL    H6515199   2.120   5.127   3.676 -1.4227  1.0825  1.0964
   48MOL    C6615200   1.801   5.010   3.431  0.2092  0.4697 -0.0087
   48MOL    C6715201   1.747   5.077   3.555  0.2237 -0.2367  0.1223
   48MOL    O6815202   1.697   4.968   3.639 -0.4524  0.2542 -0.1981
   48MOL    C6915203   1.774   4.932   3.761  0.2975  0.1094  0.2187
   48MOL    C7015204   1.711   4.818   3.839 -1.0391  0.2703  0.5098
   48MOL    C7115205   1.926   4.904   3.736  0.3189 -0.3872  0.2931
   48MOL    H7215206   1.713   4.999   3.367  0.6761 -1.0440 -0.3993
   48MOL    H7315207   1.840   4.911   3.451  0.4147  0.2143 -1.5843
   48MOL    H7415208   1.832   5.128   3.600  1.7066 -2.6613  0.1777
   48MOL    H7515209   1.764   5.017   3.829 -4.6967 -1.8418  2.1602
   48MOL    H7615210   1.740   4.825   3.944  0.4856  0.4541  0.0990
   48MOL    H7715211   1.603   4.825   3.827 -1.1599  0.4713  1.6851
   48MOL    H7815212   1.743   4.720   3.803 -0.4027 -0.0376  1.8944
   48MOL    H7915213   1.970   4.970   3.661  0.8725  0.9070  1.7301
   48MOL    H8015214   1.924   4.804   3.692  0.6503 -0.1471 -0.2718
   48MOL    H8115215   1.983   4.902   3.829 -1.2283  4.6188  1.4912
   48MOL    C8215216   1.622   5.160   3.545  0.1998 -0.0040  0.1398
   48MOL    C8315217   1.582   5.221   3.682 -0.0674 -0.5329 -0.1943
   48MOL    O8415218   1.671   5.334   3.690  0.7226  0.1661  0.6174
   48MOL    C8515219   1.761   5.327   3.794 -0.3459  0.0544 -0.4437
   48MOL    C8615220   1.678   5.354   3.920  0.0284 -0.7087 -0.2941
   48MOL    C8715221   1.865   5.443   3.770  0.2268  0.2600 -0.4988
   48MOL    H8815222   1.639   5.234   3.467 -1.1282 -1.0491 -1.1791
   48MOL    H8915223   1.547   5.093   3.502 -0.8667 -0.2466  2.2894
   48MOL    H9015224   1.595   5.143   3.757  0.6172  1.3261  1.6609
   48MOL    H9115225   1.799   5.226   3.808  1.8490  1.1058  1.5056
   48MOL    H9215226   1.617   5.442   3.901  0.1973 -0.5802 -0.2353
   48MOL    H9315227   1.616   5.274   3.960 -1.4262  1.7175  2.5374
   48MOL    H9415228   1.741   5.376   4.006  0.9280  0.1985 -1.1690
   48MOL    H9515229   1.818   5.541   3.775 -0.5589  0.0016 -2.4370
   48MOL    H9615230   1.937   5.433   3.851  0.7561 -2.3396 -1.2496
   48MOL    H9715231   1.923   5.429   3.679 -0.5168 -0.9232 -0.8039
   48MOL    C9815232   1.440   5.285   3.683 -0.4993 -0.9905  0.0909
   48MOL    C9915233   1.330   5.180   3.683  0.8770 -0.4098 -0.0072
   48MOL   O10015234   1.203   5.243   3.680 -0.9221  0.1479 -0.5224
   48MOL   C10115235   1.129   5.232   3.554  0.1402  0.0214 -0.0639
   48MOL   C10215236   1.036   5.362   3.559 -0.1185  0.2934 -0.2544
   48MOL   C10315237   1.055   5.104   3.531  0.2773  0.0791 -0.3925
   48MOL   H10415238   1.437   5.348   3.771  1.4000  2.3237 -2.0895
   48MOL   H10515239   1.424   5.363   3.608 -2.7105 -1.6516 -0.1583
   48MOL   H10615240   1.345   5.124   3.591  1.5011 -0.5215  0.1643
   48MOL   H10715241   1.193   5.243   3.468 -1.9322 -0.6367 -1.7365
   48MOL   H10815242   0.954   5.341   3.491 -1.0318  2.2644  0.1954
   48MOL   H10915243   1.089   5.446   3.514 -0.2132  0.3439 -0.2701
   48MOL   H11015244   0.993   5.381   3.657 -0.8397  1.4517 -0.7920
   48MOL   H11115245   0.985   5.099   3.614  0.4725  0.1472 -0.2251
   48MOL   H11215246   1.125   5.020   3.533 -1.7425 -1.6524  0.5515
   48MOL   H11315247   0.994   5.091   3.441 -0.1073 -2.3740  0.1725
   48MOL   C11415248   1.326   5.094   3.812 -0.0767  0.2145  0.0514
   48MOL   C11515249   1.258   4.958   3.805  0.1209 -0.3108  0.9791
   48MOL   O11615250   1.345   4.889   3.718  0.4673  0.1251  0.0643
   48MOL   C11715251   1.304   4.763   3.658  0.3957  0.3861  0.0021
   48MOL   C11815252   1.404   4.653   3.710  0.3421 -0.3204 -0.3322
   48MOL   C11915253   1.321   4.770   3.505  0.0908 -0.2068 -0.3763
   48MOL   H12015254   1.271   5.154   3.885  1.2168  0.1698  1.0674
   48MOL   H12115255   1.421   5.086   3.863 -0.3889  2.2061  0.9839
   48MOL   H12215256   1.155   4.962   3.769  0.1113  2.3894  1.2037
   48MOL   H12315257   1.202   4.734   3.683  0.1657  0.9303 -0.2826
   48MOL   H12415258   1.390   4.639   3.818  0.6576  0.8783 -0.1296
   48MOL   H12515259   1.505   4.686   3.687  0.7917 -0.3049  1.5219
   48MOL   H12615260   1.382   4.554   3.669  0.9380 -1.5426  2.1852
   48MOL   H12715261   1.326   4.667   3.467  1.0120 -0.1815 -0.3279
   48MOL   H12815262   1.417   4.819   3.488  0.1993 -0.5459 -0.7570
   48MOL   H12915263   1.243   4.830   3.459  0.6166  0.5136 -0.3297
   48MOL   C13015264   1.246   4.886   3.934 -0.5000  0.4377 -0.2010
   48MOL   C13115265   1.116   4.912   4.018 -0.3204  0.3540 -0.1000
   48MOL   O13215266   1.118   5.053   4.047  0.1640 -0.3787  0.1624
   48MOL   C13315267   0.991   5.112   4.081  0.0507 -0.2517 -0.3050
   48MOL   C13415268   1.003   5.171   4.223 -0.1842  1.1659 -0.1759
   48MOL   C13515269   0.968   5.229   3.977  0.1472 -0.1724  0.3581
   48MOL   H13615270   1.337   4.903   3.992 -0.8685  1.3040  0.1234
   48MOL   H13715271   1.250   4.778   3.914  1.8811  0.5822 -0.7102
   48MOL   H13815272   1.025   4.899   3.959 -1.5549  0.3317  1.7608
   48MOL   H13915273   0.908   5.041   4.070 -0.1429 -0.3048  1.3713
   48MOL   H14015274   0.925   5.248   4.222  0.7243  2.1347  1.7500
   48MOL   H14115275   1.100   5.216   4.241  0.7652 -1.3420  1.2241
   48MOL   H14215276   0.991   5.107   4.310 -0.3692  0.0951 -0.9715
   48MOL   H14315277   0.954   5.181   3.881  2.6423  0.7631 -0.5055
   48MOL   H14415278   0.871   5.276   3.998  0.3418  1.2160 -1.7593
   48MOL   H14515279   1.057   5.292   3.974  0.3794 -0.2171  4.1188
   48MOL   C14615280   1.100   4.844   4.155 -0.2019 -0.1739  0.0911
   48MOL   C14715281   1.107   4.689   4.163  0.3823 -0.9244 -0.7899
   48MOL   O14815282   1.133   4.665   4.303  0.8256 -0.0069 -0.0496
   48MOL   C14915283   1.266   4.621   4.342  0.0142  0.2201  0.1349
   48MOL   C15015284   1.292   4.482   4.290  1.0081 -0.1088  0.3769
   48MOL   C15115285   1.283   4.616   4.490  0.2118 -0.1316  0.6497
   48MOL   H15215286   1.011   4.878   4.207  0.0305 -0.0571  0.4165
   48MOL   H15315287   1.190   4.873   4.210 -0.8574  3.1409 -0.4620
   48MOL   H15415288   1.193   4.659   4.102  0.2586 -0.6527 -1.0963
   48MOL   H15515289   1.344   4.682   4.298 -0.4891  0.2349 -0.7458
   48MOL   H15615290   1.311   4.482   4.183 -0.0098  0.5861  0.1907
   48MOL   H15715291   1.203   4.419   4.296  1.0317 -0.2128 -0.3532
   48MOL   H15815292   1.367   4.439   4.355  0.2089 -0.8558  0.8158
   48MOL   H15915293   1.269   4.712   4.540  0.1341  0.1795  0.0218
   48MOL   H16015294   1.384   4.587   4.517  0.5168  0.8834  0.6305
   48MOL   H16115295   1.225   4.543   4.547  0.1086  0.1647  0.9296
   48MOL   C16215296   0.972   4.630   4.137 -0.0819  0.6600  0.4399
   48MOL   C16315297   0.979   4.485   4.086  0.2706  0.1290 -0.3804
   48MOL   O16415298   0.846   4.428   4.103 -0.5761 -0.4723 -0.0827
   48MOL   C16515299   0.829   4.317   4.193 -1.2133  0.1890  0.2508
   48MOL   C16615300   0.687   4.271   4.175 -0.2134 -0.1071 -0.1695
   48MOL   C16715301   0.851   4.357   4.344 -0.0020  0.1483 -0.0225
   48MOL   H16815302   0.908   4.627   4.226 -0.9335 -3.0784 -0.1855
   48MOL   H16915303   0.918   4.687   4.061 -0.1439 -2.3143 -1.8469
   48MOL   H17015304   1.049   4.427   4.147  0.1525 -0.7866 -1.0966
   48MOL   H17115305   0.892   4.232   4.169 -1.3092 -0.5833  2.6089
   48MOL   H17215306   0.619   4.353   4.200 -1.0181 -0.7333 -0.2508
   48MOL   H17315307   0.667   4.178   4.227  0.5596 -0.2791 -0.1865
   48MOL   H17415308   0.665   4.265   4.068  2.4568 -0.0587 -0.7516
   48MOL   H17515309   0.956   4.381   4.361  1.1234 -3.7655 -0.8631
   48MOL   H17615310   0.832   4.262   4.394 -0.9769 -0.3178 -1.2470
   48MOL   H17715311   0.777   4.433   4.366 -2.0107 -0.8359 -2.9619
   48MOL   C17815312   1.029   4.469   3.942 -0.4319 -0.0793  0.2224
   48MOL   C17915313   1.060   4.331   3.884 -0.4266  0.0852  0.2027
   48MOL   O18015314   1.101   4.359   3.752 -0.2013 -0.0356  0.5351
   48MOL   C18115315   1.032   4.305   3.641 -0.0034 -1.1634 -0.0995
   48MOL   C18215316   1.078   4.404   3.528 -0.2368  0.6466  0.0115
   48MOL   C18315317   0.871   4.301   3.653 -1.1345 -0.7294 -0.1221
   48MOL   H18415318   1.123   4.525   3.936 -0.0740 -0.7103 -0.2038
   48MOL   H18515319   0.961   4.523   3.876  0.7409  2.1174  0.7496
   48MOL   H18615320   0.967   4.274   3.891  0.2539 -1.4754 -2.7411
   48MOL   H18715321   1.067   4.203   3.623  0.9591 -0.2622 -3.6630
   48MOL   H18815322   1.065   4.508   3.558 -1.2560 -0.1179  2.3888
   48MOL   H18915323   1.032   4.377   3.433  0.4197  0.1359 -0.1675
   48MOL   H19015324   1.186   4.394   3.517 -0.3761 -0.7736 -0.2403
   48MOL   H19115325   0.833   4.206   3.690  0.3198 -1.2755  0.0131
   48MOL   H19215326   0.837   4.316   3.551 -1.1856  1.4987  0.1968
   48MOL   H19315327   0.843   4.391   3.709 -1.9077 -0.5304 -0.8181
   48MOL   C19415328   1.174   4.252   3.952 -0.2923  0.2133  0.5749
   48MOL   C19515329   1.156   4.108   3.932 -0.0452 -0.2434  0.0909
   48MOL   O19615330   1.037   4.060   4.007 -0.6436  0.0963 -0.1026
   48MOL   C19715331   0.982   3.936   3.964 -0.0252 -0.0251  0.0570
   48MOL   C19815332   0.876   3.896   4.068 -0.2958 -0.0381  0.0245
   48MOL   C19915333   0.902   3.970   3.835 -0.1593  0.3416 -0.5937
   48MOL   H20015334   1.264   4.279   3.895 -0.1989  1.3071  1.2273
   48MOL   H20115335   1.192   4.278   4.056  0.8696 -1.0775  0.7225
   48MOL   H20215336   1.144   4.085   3.826 -0.5524 -0.7265  0.2485
   48MOL   H20315337   1.057   3.858   3.948 -1.5774 -1.0336 -2.6949
   48MOL   H20415338   0.798   3.969   4.090  0.2166  0.9264 -1.2865
   48MOL   H20515339   0.838   3.804   4.025 -0.4536  0.5003 -1.0081
   48MOL   H20615340   0.916   3.880   4.168 -1.2363 -1.0100  0.2398
   48MOL   H20715341   0.807   4.020   3.855 -1.2980 -2.0674  0.2736
   48MOL   H20815342   0.962   4.032   3.768  1.7059 -0.5262  0.2385
   48MOL   H20915343   0.874   3.879   3.782  0.4888  0.1359 -0.5782
   48MOL   C21015344   1.294   4.042   3.975 -0.2776 -0.0148  0.6704
   48MOL   C21115345   1.345   4.063   4.116  0.0718  0.3140 -0.4883
   48MOL   O21215346   1.263   3.983   4.198  0.5028  0.0018  0.4151
   48MOL   C21315347   1.247   4.033   4.329  0.0156 -0.4665  0.0592
   48MOL   C21415348   1.111   4.098   4.333  0.4814  0.4852  0.2103
   48MOL   C21515349   1.260   3.922   4.431  0.1168  0.2646 -1.0516
   48MOL   H21615350   1.379   4.083   3.920  0.4015  0.1468  1.8303
   48MOL   H21715351   1.291   3.935   3.953 -0.1800 -0.2921  1.9443
   48MOL   H21815352   1.349   4.170   4.139 -0.2397  0.6784 -2.0775
   48MOL   H21915353   1.318   4.114   4.346 -0.0764 -0.2852 -0.4027
   48MOL   H22015354   1.085   4.123   4.436  0.9140 -1.7542  0.8790
   48MOL   H22115355   1.034   4.033   4.291  0.3964  0.5816  0.2156
   48MOL   H22215356   1.116   4.191   4.276 -0.2068  0.3320 -0.1090
   48MOL   H22315357   1.234   3.945   4.534  1.8515 -2.0587 -0.0388
   48MOL   H22415358   1.360   3.880   4.432  0.6370  1.4789  0.2139
   48MOL   H22515359   1.188   3.842   4.413  1.9141 -1.9263  1.1186
   48MOL   C22615360   1.486   4.011   4.142  0.2448  0.3913  0.6528
   48MOL   C22715361   1.598   4.125   4.124  0.5351  1.0978 -0.4656
   48MOL   O22815362   1.577   4.163   3.981  0.2209  0.2088 -0.0556
   48MOL   C22915363   1.622   4.283   3.932  0.0623 -0.7825  0.2929
   48MOL   C23015364   1.536   4.402   3.975 -0.3565  0.0663 -0.5161
   48MOL   C23115365   1.611   4.271   3.786 -0.3503  0.0165 -0.1498
   48MOL   H23215366   1.504   3.929   4.072  0.3101  1.2952 -0.4022
   48MOL   H23315367   1.504   3.971   4.242  0.6700  1.0219  0.8301
   48MOL   H23415368   1.591   4.210   4.193  1.1779  0.0128  0.9559
   48MOL   H23515369   1.724   4.314   3.953 -0.2487  0.0042  0.6896
   48MOL   H23615370   1.434   4.403   3.935 -1.1304  2.2558  1.3830
   48MOL   H23715371   1.533   4.414   4.084 -0.7582 -2.1209 -0.2566
   48MOL   H23815372   1.578   4.492   3.931  0.2508  1.3790  2.5500
   48MOL   H23915373   1.529   4.209   3.752 -0.8892  1.7639 -2.1677
   48MOL   H24015374   1.707   4.235   3.748 -0.7385 -0.6793 -0.4714
   48MOL   H24115375   1.601   4.371   3.744 -0.4861  0.6124  1.2764
   48MOL   C24215376   1.747   4.072   4.146  0.2102 -0.2779 -0.2875
   48MOL   C24315377   1.786   4.071   4.293  0.5258 -0.1604 -0.5944
   48MOL   O24415378   1.772   4.210   4.336  0.0844  0.1860  0.0246
   48MOL   C24515379   1.771   4.239   4.475 -0.2562  0.6790  0.0322
   48MOL   C24615380   1.858   4.359   4.493  0.3079  0.3703  0.8988
   48MOL   C24715381   1.616   4.275   4.510 -0.3269  0.4979 -0.5247
   48MOL   H24815382   1.750   3.980   4.087 -1.8446  1.0558 -2.5362
   48MOL   H24915383   1.817   4.133   4.090 -1.7956  3.0045  0.6736
   48MOL   H25015384   1.713   4.016   4.353 -0.1058 -0.6487 -1.7940
   48MOL   H25115385   1.812   4.164   4.543 -0.0959 -0.3829 -1.2227
   48MOL   H25215386   1.817   4.449   4.447 -1.1215 -2.1033 -2.9605
   48MOL   H25315387   1.869   4.377   4.600  0.1155  0.5528  0.8856
   48MOL   H25415388   1.961   4.337   4.464 -0.4032 -0.6790 -0.9248
   48MOL   H25515389   1.583   4.357   4.447  0.1366  0.1778 -1.1830
   48MOL   H25615390   1.545   4.192   4.510 -0.1044  0.3044 -0.2015
   48MOL   H25715391   1.624   4.330   4.604  0.9676 -0.2721 -0.1742
   48MOL   C25815392   1.937   4.031   4.318 -0.0115  0.1528 -0.2714
   48MOL   C25915393   1.958   3.889   4.368 -0.0165  0.5347 -0.0428
   48MOL   O26015394   1.920   3.889   4.510 -0.2182 -0.4756  0.1842
   48MOL   C26115395   1.857   3.771   4.570  0.0580 -0.6587 -0.4055
   48MOL   C26215396   1.870   3.773   4.726  0.2387 -0.2780 -0.4748
   48MOL   C26315397   1.708   3.751   4.522 -0.0624  1.3521 -0.2858
   48MOL   H26415398   1.995   4.038   4.226  1.8394  0.5741  0.9058
   48MOL   H26515399   1.987   4.094   4.390 -0.6805  0.3389  0.0329
   48MOL   H26615400   1.894   3.814   4.321  1.1856  0.2137 -1.2228
   48MOL   H26715401   1.917   3.685   4.542 -0.9379 -1.3567 -0.4138
   48MOL   H26815402   1.975   3.781   4.755  0.0153  0.4592  0.1464
   48MOL   H26915403   1.837   3.681   4.773  1.2583 -1.4111 -1.9361
   48MOL   H27015404   1.820   3.855   4.778  2.5286  0.6266  0.3709
   48MOL   H27115405   1.679   3.650   4.549  2.2830  0.0858 -2.3103
   48MOL   H27215406   1.647   3.832   4.562  0.6053  2.9395 -2.4151
   48MOL   H27315407   1.698   3.761   4.414 -1.3253  2.7435 -0.0511
   48MOL   C27415408   2.106   3.833   4.355  0.1367 -0.3319 -0.7225
   48MOL   C27515409   2.156   3.810   4.218  0.3393  0.2443 -0.1348
   48MOL   O27615410   2.266   3.901   4.189 -0.0718  0.0313  0.3622
   48MOL   C27715411   2.294   3.931   4.054  0.2626  0.0631 -0.4278
   48MOL   C27815412   2.440   3.969   4.050 -0.2877  0.1733 -0.5305
   48MOL   C27915413   2.190   4.030   3.994 -0.8744 -0.3711 -0.3772
   48MOL   H28015414   2.167   3.902   4.414  0.9241  0.3629 -2.3098
   48MOL   H28115415   2.109   3.738   4.409  0.8199  0.1519  0.1031
   48MOL   H28215416   2.075   3.828   4.146  1.5988  0.8872 -1.4104
   48MOL   H28315417   2.283   3.844   3.988 -1.8140  0.3293 -0.4672
   48MOL   H28415418   2.453   4.069   4.090 -0.2793 -0.1080  0.1872
   48MOL   H28515419   2.503   3.909   4.117  0.5691  0.9547 -0.6160
   48MOL   H28615420   2.478   3.966   3.948  1.9935  0.5793  0.2770
   48MOL   H28715421   2.207   4.060   3.890 -1.1359  0.0003 -0.3128
   48MOL   H28815422   2.194   4.126   4.044 -3.0088 -0.6095  0.3242
   48MOL   H28915423   2.088   3.992   3.994 -1.0078 -0.0550  1.3486
   48MOL   C29015424   2.218   3.672   4.208 -0.5054 -0.2256  0.2257
   48MOL   C29115425   2.129   3.541   4.209  0.3424  0.1497 -0.4113
   48MOL   O29215426   2.061   3.550   4.087 -0.4662 -0.4542 -0.1981
   48MOL   C29315427   1.933   3.485   4.078 -0.1988  0.0515 -0.1267
   48MOL   C29415428   1.928   3.404   3.949  0.3564 -0.0607  0.9400
   48MOL   C29515429   1.822   3.583   4.090 -0.5446  0.5008 -0.2639
   48MOL   H29615430   2.284   3.660   4.294  1.3105 -4.1319 -1.6026
   48MOL   H29715431   2.287   3.656   4.125 -3.0009  0.4178 -2.0154
   48MOL   H29815432   2.059   3.552   4.292 -0.8302  1.3439 -1.5339
   48MOL   H29915433   1.916   3.418   4.162  0.1531  0.4934  0.2981
   48MOL   H30015434   1.974   3.452   3.863 -0.5379  0.5686  0.8075
   48MOL   H30115435   1.977   3.308   3.965 -1.7252 -1.3957 -0.4657
   48MOL   H30215436   1.826   3.375   3.925  0.1924 -0.2766  1.8793
   48MOL   H30315437   1.809   3.639   3.998 -1.7409  0.1918 -0.2839
   48MOL   H30415438   1.725   3.539   4.112  0.1510 -1.1133 -0.3128
   48MOL   H30515439   1.857   3.641   4.176  0.5494 -0.5300  0.0114
   48MOL   C30615440   2.208   3.405   4.219 -0.2375 -0.0619 -0.2051
   48MOL   C30715441   2.286   3.384   4.339 -0.2417 -0.1951 -0.1994
   48MOL   O30815442   2.216   3.427   4.456  0.2914 -0.2262  0.5612
   48MOL   C30915443   2.303   3.421   4.568  0.1949  0.9309  0.3809
   48MOL   C31015444   2.394   3.550   4.576 -0.2417 -0.1024 -0.3202
   48MOL   C31115445   2.209   3.407   4.695 -0.1908 -0.4901  0.2648
   48MOL   H31215446   2.278   3.410   4.135  0.6054  1.4474  0.5800
   48MOL   H31315447   2.136   3.327   4.197 -1.0242  1.0347 -1.6372
   48MOL   H31415448   2.310   3.278   4.343  0.5411 -0.0169 -0.1579
   48MOL   H31515449   2.361   3.329   4.565 -1.8406 -0.3509 -1.2104
   48MOL   H31615450   2.343   3.645   4.565  0.2721  0.4116  1.5156
   48MOL   H31715451   2.466   3.548   4.495 -1.4978 -1.4761 -1.4202
   48MOL   H31815452   2.455   3.562   4.666 -1.6932 -0.0215  0.6628
   48MOL   H31915453   2.155   3.500   4.713  0.7488 -0.0105  0.6568
   48MOL   H32015454   2.264   3.394   4.789 -1.2141 -1.2386  0.7646
   48MOL   H32115455   2.141   3.323   4.691 -0.4060 -0.2674 -0.7008
   48MOL   H32215456   2.384   3.428   4.322 -0.0092 -1.4861 -2.3224
   49MOL     C115457   7.389   1.822   0.201  0.2386  0.4235 -0.4968
   49MOL     C215458   7.306   1.827   0.333  0.5367 -0.1425  0.2911
   49MOL     O315459   7.199   1.735   0.322 -0.8629 -0.0240  0.0424
   49MOL     C415460   7.087   1.778   0.246 -0.0883 -0.2853 -0.3029
   49MOL     C515461   6.957   1.756   0.322  0.2884 -0.2589  0.5165
   49MOL     C615462   7.089   1.689   0.129  0.2670  1.4992 -0.1387
   49MOL     H715463   7.408   1.717   0.179 -0.6154 -0.1015  1.1691
   49MOL     H815464   7.337   1.870   0.118 -3.1106 -0.8134  0.8119
   49MOL     H915465   7.277   1.931   0.345 -0.9193 -0.4269 -0.6177
   49MOL    H1015466   7.107   1.879   0.211 -1.2533 -0.6185 -1.9529
   49MOL    H1115467   6.950   1.647   0.332  0.2639 -0.3233 -0.1831
   49MOL    H1215468   6.961   1.804   0.420 -0.2526 -0.5851  0.7051
   49MOL    H1315469   6.876   1.804   0.268 -0.7043 -1.0851  1.2581
   49MOL    H1415470   7.025   1.716   0.045 -1.6145 -0.2803  0.6768
   49MOL    H1515471   7.190   1.681   0.090  0.4983  0.6424  0.6077
   49MOL    H1615472   7.051   1.590   0.153  1.7104  1.2051  1.0025
   49MOL    H1715473   7.484   1.875   0.206 -0.2264  1.4539 -1.9254
   49MOL    C1815474   7.383   1.799   0.462 -0.2318  0.1642 -0.2751
   49MOL    C1915475   7.310   1.846   0.592 -0.0474  0.7011 -0.0616
   49MOL    O2015476   7.290   1.990   0.579  0.0199  0.3777 -0.6942
   49MOL    C2115477   7.187   2.041   0.666 -0.0495  0.0263  0.5652
   49MOL    C2215478   7.042   2.009   0.613  0.1246 -0.2895  0.0591
   49MOL    C2315479   7.214   2.193   0.672 -0.1507  0.3164  0.1327
   49MOL    H2415480   7.411   1.695   0.477 -2.9643 -0.8078 -1.6914
   49MOL    H2515481   7.473   1.861   0.455  1.0574 -1.8758 -2.9847
   49MOL    H2615482   7.219   1.789   0.610  1.4783 -1.9847 -0.5504
   49MOL    H2715483   7.205   1.992   0.762  0.7437 -1.2452 -0.2069
   49MOL    H2815484   7.027   2.068   0.522  1.9476 -0.4726 -0.3653
   49MOL    H2915485   7.028   1.901   0.610  0.8155 -0.3325 -2.2560
   49MOL    H3015486   6.976   2.058   0.686  0.7873  0.6488  0.0429
   49MOL    H3115487   7.314   2.212   0.711  1.5787 -1.8899 -2.9639
   49MOL    H3215488   7.139   2.233   0.740 -0.9028 -0.7254 -0.0806
   49MOL    H3315489   7.191   2.252   0.583  1.5702  3.3820  1.6286
   49MOL    C3415490   7.412   1.837   0.709  1.1357 -0.3521  0.4405
   49MOL    C3515491   7.464   1.685   0.740  0.8202 -0.6435 -0.2333
   49MOL    O3615492   7.532   1.692   0.863  0.2405  0.4962 -0.1204
   49MOL    C3715493   7.677   1.697   0.851 -0.6174 -0.0024 -0.0970
   49MOL    C3815494   7.739   1.824   0.791 -0.3204  0.4906  0.2215
   49MOL    C3915495   7.732   1.687   0.990  0.2873 -0.0090  0.2847
   49MOL    H4015496   7.366   1.876   0.799  1.6109  2.4646 -0.5000
   49MOL    H4115497   7.502   1.897   0.704  1.6118 -1.0179  0.8779
   49MOL    H4215498   7.525   1.646   0.659 -0.5451 -0.9500 -1.1362
   49MOL    H4315499   7.707   1.614   0.787 -0.9992 -1.2881  1.3526
   49MOL    H4415500   7.695   1.911   0.838 -3.2414 -0.5287 -0.5344
   49MOL    H4515501   7.718   1.824   0.684  1.5905 -0.7377 -0.1775
   49MOL    H4615502   0.027   1.821   0.800 -0.3488  0.6194  0.5857
   49MOL    H4715503   7.708   1.592   1.038 -0.1101  0.9036  1.9681
   49MOL    H4815504   0.020   1.682   0.998  0.4631 -0.1673 -2.0831
   49MOL    H4915505   7.674   1.745   1.063  0.3716 -0.2393  0.5349
   49MOL    C5015506   7.349   1.587   0.745  0.6603  0.3101  0.1084
   49MOL    C5115507   7.377   1.442   0.718 -0.6255  0.1295  0.3453
   49MOL    O5215508   7.262   1.365   0.670  0.4166 -0.1405  0.5853
   49MOL    C5315509   7.229   1.370   0.531 -0.5570 -0.1762 -0.3853
   49MOL    C5415510   7.080   1.336   0.512 -0.0264  0.4807  0.2808
   49MOL    C5515511   7.308   1.264   0.458  0.2410 -0.1562  0.8494
   49MOL    H5615512   7.294   1.594   0.839 -0.3098  0.8522 -0.4851
   49MOL    H5715513   7.279   1.596   0.661  1.2594  0.9307 -0.3253
   49MOL    H5815514   7.458   1.435   0.645 -1.6149 -0.6574 -0.7057
   49MOL    H5915515   7.240   1.462   0.473  0.6590 -0.1720 -0.1618
   49MOL    H6015516   7.045   1.265   0.586 -0.3771 -0.1463 -0.4838
   49MOL    H6115517   7.069   1.301   0.410  3.2617  1.0818 -0.3467
   49MOL    H6215518   7.024   1.427   0.532  1.3021  0.9974  1.8078
   49MOL    H6315519   7.282   1.262   0.352 -0.2751  0.5438  0.9597
   49MOL    H6415520   7.271   1.165   0.482 -0.6901  0.0542  0.3069
   49MOL    H6515521   7.416   1.258   0.474  0.0820  1.1806  2.5036
   49MOL    C6615522   7.434   1.369   0.842 -0.3471  0.2278  0.3406
   49MOL    C6715523   7.512   1.238   0.800 -0.2317  0.5114 -0.2266
   49MOL    O6815524   7.523   1.131   0.898  0.7735 -0.3563  0.8002
   49MOL    C6915525   7.402   1.052   0.923 -0.6673 -0.2813  0.1668
   49MOL    C7015526   7.436   0.915   0.873  0.1449 -0.0776 -0.0752
   49MOL    C7115527   7.358   1.043   1.071  0.6077 -0.4605 -0.4309
   49MOL    H7215528   7.500   1.424   0.908 -0.1931 -0.1898  0.5391
   49MOL    H7315529   7.342   1.354   0.898 -2.0164  0.4610 -2.2205
   49MOL    H7415530   7.447   1.196   0.724 -2.9121  1.3185  1.5547
   49MOL    H7515531   7.313   1.098   0.879  0.5029  0.4417 -1.5050
   49MOL    H7615532   7.445   0.916   0.764 -0.7321 -0.0603 -0.1558
   49MOL    H7715533   7.534   0.884   0.907  0.4515 -0.6229 -1.4399
   49MOL    H7815534   7.355   0.844   0.887  0.7749 -1.0356 -1.2252
   49MOL    H7915535   7.265   0.989   1.084  1.7416 -1.8597  2.3610
   49MOL    H8015536   7.346   1.145   1.106 -1.1365  0.3721 -3.3037
   49MOL    H8115537   7.436   0.994   1.130 -0.0563 -0.9037  0.0766
   49MOL    C8215538   7.655   1.288   0.763 -0.5034 -0.0443 -1.0132
   49MOL    C8315539   7.712   1.204   0.649 -0.3306  0.4824 -0.5611
   49MOL    O8415540   0.013   1.265   0.611 -0.2710 -0.2670 -0.3261
   49MOL    C8515541   0.013   1.280   0.467 -0.4651  1.0621  0.1289
   49MOL    C8615542   0.160   1.301   0.431  0.1567  0.4898  0.6547
   49MOL    C8715543   7.752   1.397   0.425  0.6174  0.2210 -0.0001
   49MOL    H8815544   7.656   1.396   0.747  0.2098  0.0633 -0.2893
   49MOL    H8915545   7.724   1.284   0.847  0.3772  1.6507 -1.6158
   49MOL    H9015546   7.644   1.195   0.565  0.6911  0.0993 -1.3595
   49MOL    H9115547   7.790   1.192   0.419  0.0544 -0.2314  1.9876
   49MOL    H9215548   0.164   1.305   0.322 -0.9218 -0.5325  0.5690
   49MOL    H9315549   0.214   1.386   0.474  0.5998  0.4254  0.2388
   49MOL    H9415550   0.210   1.210   0.463 -0.3721  0.4821  1.4509
   49MOL    H9515551   7.787   1.479   0.489 -0.2369  1.0942 -0.6373
   49MOL    H9615552   7.783   1.436   0.329 -3.1838  0.8699 -1.0348
   49MOL    H9715553   7.644   1.385   0.429  0.8145 -1.1754  3.1152
   49MOL    C9815554   7.747   1.056   0.690 -0.4455  0.6502 -0.1223
   49MOL    C9915555   7.717   0.947   0.583  0.5459  0.4078 -0.3870
   49MOL   O10015556   7.571   0.940   0.574 -0.4901  0.5371  0.2010
   49MOL   C10115557   7.532   0.866   0.450  0.2235 -0.3577  0.7604
   49MOL   C10215558   7.513   0.972   0.338  0.1748  0.2833  0.1420
   49MOL   C10315559   7.401   0.793   0.477  0.3999 -0.1972  0.0936
   49MOL   H10415560   0.025   1.055   0.738  1.0427  1.9942 -3.0588
   49MOL   H10515561   7.690   1.016   0.774 -2.8009  1.8216 -1.1320
   49MOL   H10615562   7.763   0.966   0.485 -0.4625  1.4902 -0.6577
   49MOL   H10715563   7.605   0.786   0.435 -0.4409 -1.3235  2.5229
   49MOL   H10815564   7.496   0.930   0.239 -0.7958  0.2292  0.3254
   49MOL   H10915565   7.585   1.054   0.346  0.7059 -0.1235 -0.4257
   49MOL   H11015566   7.420   1.025   0.360 -0.5335 -1.0482  0.4046
   49MOL   H11115567   7.411   0.711   0.548 -1.0389 -1.6157 -1.2710
   49MOL   H11215568   7.343   0.763   0.389  0.4269 -1.3547  0.4638
   49MOL   H11315569   7.334   0.854   0.537 -0.1902  1.0733 -1.8208
   49MOL   C11415570   7.767   0.809   0.634  0.4721  0.3672 -0.3119
   49MOL   C11515571   0.104   0.786   0.644  0.6566 -1.2189 -0.5025
   49MOL   O11615572   0.106   0.689   0.749  0.3683  0.2233  0.0315
   49MOL   C11715573   0.134   0.750   0.877  0.3421  0.0290 -0.0153
   49MOL   C11815574   0.282   0.727   0.908 -0.1322 -0.3789 -0.4258
   49MOL   C11915575   0.045   0.672   0.970 -0.0672 -0.8469  0.3919
   49MOL   H12015576   7.719   0.722   0.589  1.0391 -0.8386  1.3606
   49MOL   H12115577   7.720   0.799   0.733  1.6044 -3.0093 -0.0551
   49MOL   H12215578   0.156   0.879   0.666 -0.1006 -1.4279  2.4307
   49MOL   H12315579   0.115   0.856   0.859  1.0297  0.0273 -0.8012
   49MOL   H12415580   0.310   0.624   0.888  1.7777  0.1343 -0.5223
   49MOL   H12515581   0.299   0.749   1.014  1.5152  1.3226 -1.0084
   49MOL   H12615582   0.349   0.803   0.867  0.3260 -0.4057  0.2659
   49MOL   H12715583   0.046   0.716   1.070  0.4358 -0.4131  0.1988
   49MOL   H12815584   0.083   0.570   0.976  0.4425 -0.6512  0.5072
   49MOL   H12915585   7.766   0.657   0.929  0.2787 -0.4353 -0.6104
   49MOL   C13015586   0.156   0.707   0.521 -0.4880 -1.2583 -0.2788
   49MOL   C13115587   0.175   0.773   0.382  0.6057 -0.2553 -0.3095
   49MOL   O13215588   0.211   0.676   0.287 -0.7622  0.0094 -0.3481
   49MOL   C13315589   0.115   0.647   0.187 -0.2330 -0.4710  0.4783
   49MOL   C13415590   0.191   0.537   0.107 -0.0673  0.0557 -0.0208
   49MOL   C13515591   7.804   0.588   0.247 -0.4441  0.8774  0.3869
   49MOL   H13615592   0.085   0.625   0.512 -1.2574 -0.7301  0.9095
   49MOL   H13715593   0.251   0.661   0.548 -0.3282 -0.7700 -0.0019
   49MOL   H13815594   0.087   0.831   0.354  2.1846  1.8581 -1.0271
   49MOL   H13915595   0.089   0.721   0.111 -1.1579 -1.0801  0.1939
   49MOL   H14015596   0.277   0.580   0.055 -1.0986 -0.7552 -2.4195
   49MOL   H14115597   0.131   0.483   0.034  0.7295 -0.0411 -0.6129
   49MOL   H14215598   0.239   0.459   0.167  1.2861  0.1857 -0.8979
   49MOL   H14315599   7.747   0.559   0.158 -1.7019  1.2328  1.0645
   49MOL   H14415600   0.002   0.508   0.317 -0.3012  1.8357  1.4612
   49MOL   H14515601   7.735   0.651   0.303 -0.3099 -0.1617  1.7220
   49MOL   C14615602   0.295   0.865   0.394  1.0957  0.2471  0.1675
   49MOL   C14715603   0.323   0.958   0.267  0.4644  1.1408  0.1177
   49MOL   O14815604   0.206   1.025   0.233 -0.0312  0.0408  0.1307
   49MOL   C14915605   0.183   1.068   0.100  0.3175 -0.3976 -0.4116
   49MOL   C15015606   0.225   1.208   0.058 -0.2985 -0.0127 -0.2028
   49MOL   C15115607   0.028   1.065   0.101 -0.5238 -0.4704  0.1428
   49MOL   H15215608   0.388   0.816   0.423  0.4982 -0.0930  1.5389
   49MOL   H15315609   0.272   0.932   0.477 -0.2940  0.2765 -0.2367
   49MOL   H15415610   0.342   0.889   0.186  0.2481 -2.1450  2.7460
   49MOL   H15515611   0.227   1.004   0.024  1.6993 -0.6512  0.5942
   49MOL   H15615612   0.333   1.221   0.068 -0.3809  0.1585  0.4933
   49MOL   H15715613   0.179   1.285   0.121  0.8400  0.8725 -0.4454
   49MOL   H15815614   0.203   1.218   7.772  1.2227  2.7368 -0.3143
   49MOL   H15915615   7.792   1.112   0.020 -0.1136  0.1228  0.1981
   49MOL   H16015616   7.812   1.115   0.191  2.1680 -2.1127  2.2239
   49MOL   H16115617   7.818   0.960   0.107 -2.4246  0.0399 -0.1273
   49MOL   C16215618   0.449   1.046   0.285  0.5340 -0.1930  0.4159
   49MOL   C16315619   0.583   0.960   0.269 -0.3567  0.3359  0.3016
   49MOL   O16415620   0.586   0.952   0.132  0.2404 -0.2742 -0.1873
   49MOL   C16515621   0.644   0.838   0.078 -0.3505  0.3279 -0.0344
   49MOL   C16615622   0.725   0.883   7.780  0.1448  0.0416 -0.4998
   49MOL   C16715623   0.535   0.745   0.030 -1.3321  0.2452  0.4087
   49MOL   H16815624   0.456   1.114   0.199 -1.6042 -0.6079 -0.1043
   49MOL   H16915625   0.444   1.105   0.376 -1.4393 -0.6031  0.5858
   49MOL   H17015626   0.580   0.858   0.307  0.6587  1.6101  3.9550
   49MOL   H17115627   0.705   0.794   0.157  0.6641  1.8684  0.0722
   49MOL   H17215628   0.764   0.804   7.715 -1.0582  0.0439 -1.2412
   49MOL   H17315629   0.818   0.936   7.801  0.2094 -0.9225  1.7727
   49MOL   H17415630   0.665   0.949   7.718 -2.1241  1.1813  2.7664
   49MOL   H17515631   0.473   0.794   7.775 -1.2073  1.1355  0.8686
   49MOL   H17615632   0.473   0.702   0.109 -0.5961 -1.3559  0.1240
   49MOL   H17715633   0.591   0.662   7.808  1.3436  2.0791  0.2211
   49MOL   C17815634   0.706   1.038   0.328  0.0736  0.8446  0.2183
   49MOL   C17915635   0.739   1.008   0.481  0.3640 -0.1864  0.7020
   49MOL   O18015636   0.773   0.872   0.496 -0.3748  0.2111  0.4434
   49MOL   C18115637   0.745   0.819   0.631 -0.2273  0.3925  0.5352
   49MOL   C18215638   0.848   0.705   0.636 -0.7082 -0.4402 -0.3610
   49MOL   C18315639   0.604   0.765   0.633 -0.7570 -0.0725  0.4645
   49MOL   H18415640   0.683   1.145   0.324 -0.3937  0.7527  0.4856
   49MOL   H18515641   0.793   1.020   0.265  0.3079 -0.1057  0.8042
   49MOL   H18615642   0.656   1.033   0.547  1.2957 -0.3564  1.9464
   49MOL   H18715643   0.760   0.891   0.711 -0.4172 -1.2726  2.0875
   49MOL   H18815644   0.949   0.744   0.637 -1.2342  0.9052  1.0198
   49MOL   H18915645   0.838   0.638   0.550 -0.1145  2.3784 -2.6971
   49MOL   H19015646   0.844   0.650   0.730  0.8859 -0.7915 -0.4833
   49MOL   H19115647   0.587   0.682   0.565  0.1332 -0.7081  1.0094
   49MOL   H19215648   0.544   0.849   0.596 -1.0517 -0.5992 -0.2665
   49MOL   H19315649   0.580   0.733   0.734 -0.8270 -0.6739  0.2587
   49MOL   C19415650   0.869   1.080   0.520  0.2325 -0.1435  1.1688
   49MOL   C19515651   0.857   1.238   0.529  0.3208 -0.1466 -0.5490
   49MOL   O19615652   0.984   1.287   0.570  0.3004 -0.7571  0.7761
   49MOL   C19715653   1.080   1.306   0.464  0.5029 -0.7882 -0.4416
   49MOL   C19815654   1.064   1.451   0.407 -0.3890  0.8933  0.1119
   49MOL   C19915655   1.219   1.279   0.524  0.4232 -0.4204 -0.2836
   49MOL   H20015656   0.899   1.040   0.617 -1.4969  0.1835  1.8733
   49MOL   H20115657   0.942   1.060   0.442 -1.2147 -1.8287  0.1967
   49MOL   H20215658   0.844   1.286   0.432  0.8177 -1.9918 -1.5546
   49MOL   H20315659   1.063   1.234   0.384 -0.3150 -0.7842 -0.2796
   49MOL   H20415660   1.042   1.517   0.492 -3.1113  1.9931 -1.3680
   49MOL   H20515661   1.144   1.491   0.344 -2.1600 -2.6267 -4.6375
   49MOL   H20615662   0.979   1.456   0.339  0.2001 -2.5258 -0.9532
   49MOL   H20715663   1.246   1.341   0.610 -0.5692  0.3430 -0.5112
   49MOL   H20815664   1.234   1.174   0.547  0.1058 -0.9748 -2.5269
   49MOL   H20915665   1.298   1.310   0.455  1.4196  0.3731  1.1919
   49MOL   C21015666   0.762   1.291   0.642 -0.6015 -0.1682  0.1848
   49MOL   C21115667   0.740   1.449   0.639  1.1247  0.5529  0.5017
   49MOL   O21215668   0.646   1.461   0.526 -0.4751  0.0988 -0.0533
   49MOL   C21315669   0.650   1.584   0.449  1.0408 -0.6763  0.3613
   49MOL   C21415670   0.580   1.535   0.319  0.1843  0.2137 -0.6360
   49MOL   C21515671   0.578   1.709   0.508 -0.2432 -0.0433 -0.3807
   49MOL   H21615672   0.800   1.254   0.737  0.4623 -1.2250 -0.6333
   49MOL   H21715673   0.667   1.244   0.619 -0.4589 -1.8325  2.7406
   49MOL   H21815674   0.828   1.510   0.618  0.3063  2.3156  2.0450
   49MOL   H21915675   0.751   1.608   0.416  0.6326 -0.8735 -1.0733
   49MOL   H22015676   0.647   1.455   0.287  0.7591  0.4451 -0.0107
   49MOL   H22115677   0.579   1.613   0.243 -1.2199 -0.2500 -1.1151
   49MOL   H22215678   0.478   1.495   0.320  0.7664 -1.2970  0.2708
   49MOL   H22315679   0.633   1.737   0.597  1.1637 -0.4607 -1.1059
   49MOL   H22415680   0.474   1.689   0.534  0.1916 -1.6532  0.1659
   49MOL   H22515681   0.587   1.791   0.437  2.4939  1.8344  2.0592
   49MOL   C22615682   0.675   1.499   0.774  0.0346  0.7105  0.3609
   49MOL   C22715683   0.768   1.499   0.900  0.0598  0.1025 -0.1986
   49MOL   O22815684   0.709   1.548   1.018 -0.7695 -0.4568 -0.6516
   49MOL   C22915685   0.595   1.483   1.075 -0.7677 -0.2131  1.1783
   49MOL   C23015686   0.480   1.585   1.050  0.0284 -0.4484 -0.2128
   49MOL   C23115687   0.618   1.471   1.219  0.2126  0.2910  0.4538
   49MOL   H23215688   0.590   1.438   0.804 -1.6667  2.2855 -1.0900
   49MOL   H23315689   0.638   1.602   0.769  0.2944  0.6976 -2.0322
   49MOL   H23415690   0.786   1.392   0.913 -0.4602  0.1531  0.9813
   49MOL   H23515691   0.581   1.384   1.031 -1.2820 -0.3900  1.7253
   49MOL   H23615692   0.448   1.616   0.950  1.2271  0.7470 -0.2399
   49MOL   H23715693   0.391   1.533   1.086 -0.1849  0.0269 -0.0433
   49MOL   H23815694   0.492   1.673   1.113 -3.1883  0.1041 -0.3003
   49MOL   H23915695   0.538   1.422   1.275 -0.7179  1.3762  0.0920
   49MOL   H24015696   0.627   1.572   1.260  0.6760  0.4074  0.0734
   49MOL   H24115697   0.710   1.415   1.232 -0.1510 -0.4428 -0.1356
   49MOL   C24215698   0.904   1.583   0.876 -0.0128  0.3962 -0.3184
   49MOL   C24315699   1.015   1.569   0.993 -0.7310  0.0273 -0.7579
   49MOL   O24415700   1.106   1.680   0.970  0.2362  0.2302  0.2764
   49MOL   C24515701   1.120   1.779   1.066  0.3445  0.6951  0.1518
   49MOL   C24615702   1.185   1.715   1.191  0.0772  0.6021  0.0621
   49MOL   C24715703   1.216   1.883   1.001  0.0929  0.1290  0.0979
   49MOL   H24815704   0.955   1.573   0.780 -0.2385  0.0803 -0.4058
   49MOL   H24915705   0.877   1.687   0.892 -1.3226 -0.2690  2.0419
   49MOL   H25015706   0.968   1.566   1.092  1.6694  2.3882  0.5319
   49MOL   H25115707   1.024   1.826   1.086  0.8179  1.3840  0.8439
   49MOL   H25215708   1.234   1.788   1.255  0.5074  1.8128 -1.6400
   49MOL   H25315709   1.123   1.642   1.243 -0.2054 -0.8354 -2.2094
   49MOL   H25415710   1.272   1.662   1.152  0.3684  1.6169 -0.6728
   49MOL   H25515711   1.172   1.956   0.932 -1.8308 -1.9053 -0.8815
   49MOL   H25615712   1.270   1.950   1.068  3.0312 -1.3970 -0.7064
   49MOL   H25715713   1.294   1.836   0.941 -2.3167  0.4715 -3.4858
   49MOL   C25815714   1.107   1.444   0.989 -0.9713 -0.7227 -0.5604
   49MOL   C25915715   1.038   1.317   1.041 -0.6576 -0.2460  0.0049
   49MOL   O26015716   1.126   1.260   1.146 -0.2990  0.2152 -0.0518
   49MOL   C26115717   1.103   1.313   1.278  0.0324 -0.5246  0.1240
   49MOL   C26215718   0.979   1.241   1.331 -0.3580 -0.4700  0.3009
   49MOL   C26315719   1.219   1.269   1.374  0.5318  0.0074  0.1732
   49MOL   H26415720   1.126   1.428   0.883  0.5101  2.4174 -0.8148
   49MOL   H26515721   1.197   1.457   1.049 -1.7267  2.5800 -0.0408
   49MOL   H26615722   0.940   1.338   1.082 -0.6493 -1.1999  0.5169
   49MOL   H26715723   1.089   1.420   1.261 -2.1870 -0.8126  0.0629
   49MOL   H26815724   0.984   1.132   1.326  1.0116 -0.4989  1.9596
   49MOL   H26915725   0.892   1.272   1.274  0.3534 -0.4846 -0.7925
   49MOL   H27015726   0.974   1.268   1.437 -1.3057  0.5563 -0.0017
   49MOL   H27115727   1.204   1.328   1.465  1.4152 -0.7777  0.8376
   49MOL   H27215728   1.218   1.161   1.388 -2.0215 -0.2195 -1.5601
   49MOL   H27315729   1.315   1.303   1.333  0.1922 -1.0087 -1.4703
   49MOL   C27415730   1.033   1.215   0.921 -0.1044 -0.5516  0.2928
   49MOL   C27515731   0.971   1.076   0.961  0.1354 -0.2265 -0.3558
   49MOL   O27615732   0.836   1.075   0.918  0.0044  0.1656 -0.4662
   49MOL   C27715733   0.727   1.057   1.004 -0.2253  1.5445  0.1088
   49MOL   C27815734   0.735   0.921   1.083 -0.5539  0.5297 -1.2805
   49MOL   C27915735   0.599   1.065   0.922  0.1977  0.5243  0.4775
   49MOL   H28015736   0.979   1.261   0.838 -1.0211  0.8358  1.6455
   49MOL   H28115737   1.134   1.208   0.880 -0.0827  0.2319  0.1971
   49MOL   H28215738   0.965   1.070   1.069  1.7935  1.6903 -0.1324
   49MOL   H28315739   0.725   1.139   1.076  1.1445 -0.3707  2.4020
   49MOL   H28415740   0.647   0.899   1.142  2.3700  0.3635  3.2379
   49MOL   H28515741   0.740   0.832   1.020 -1.7736  0.9102 -1.9377
   49MOL   H28615742   0.815   0.920   1.157 -2.3487 -0.7293  0.7124
   49MOL   H28715743   0.582   0.975   0.862 -1.1246 -0.2007  1.8739
   49MOL   H28815744   0.595   1.154   0.860 -0.6527  1.1008  1.3563
   49MOL   H28915745   0.511   1.067   0.987 -1.1913  1.9059 -1.4049
   49MOL   C29015746   1.028   0.945   0.900 -0.1212  0.0458  0.1853
   49MOL   C29115747   1.143   0.876   0.984 -0.6467  0.1955  0.6122
   49MOL   O29215748   1.176   0.753   0.924  0.3055  0.1549  0.5101
   49MOL   C29315749   1.154   0.641   1.010 -0.1348  0.7758 -0.6887
   49MOL   C29415750   1.227   0.530   0.935 -0.1528  0.1616 -0.1578
   49MOL   C29515751   1.002   0.613   1.039  0.6758 -0.8309 -0.2858
   49MOL   H29615752   1.072   0.958   0.801 -1.2081 -2.7522 -0.7438
   49MOL   H29715753   0.943   0.877   0.888 -0.4794  0.4249  0.5502
   49MOL   H29815754   1.099   0.876   1.084  0.1241  0.4234  0.9602
   49MOL   H29915755   1.203   0.654   1.106  0.2981 -1.3182 -0.6013
   49MOL   H30015756   1.246   0.448   1.005  1.9418  0.0361 -0.8358
   49MOL   H30115757   1.160   0.485   0.861  0.1712 -2.0689  0.8611
   49MOL   H30215758   1.325   0.566   0.904 -0.3004  1.8246  1.2512
   49MOL   H30315759   0.985   0.540   1.118  2.0107 -0.9405 -0.0911
   49MOL   H30415760   0.956   0.704   1.078  2.3487 -0.2459  0.3754
   49MOL   H30515761   0.943   0.586   0.952 -0.2317 -2.2260  0.7488
   49MOL   C30615762   1.275   0.956   0.991 -0.5423  0.2000 -0.0885
   49MOL   C30715763   1.353   0.927   1.120 -0.2186  0.5041 -0.1160
   49MOL   O30815764   1.455   1.023   1.123  0.1584  0.3587 -0.4833
   49MOL   C30915765   1.571   0.985   1.196  0.0881 -0.7729 -0.5098
   49MOL   C31015766   1.665   1.112   1.182  0.0424  0.1699 -0.2898
   49MOL   C31115767   1.537   0.947   1.333 -0.7053  0.5189 -0.5927
   49MOL   H31215768   1.248   1.061   0.998  1.2960  0.6355  0.8290
   49MOL   H31315769   1.329   0.931   0.899  0.4479 -0.3047  0.6170
   49MOL   H31415770   1.288   0.942   1.207 -0.0334 -0.7813  0.2612
   49MOL   H31515771   1.614   0.908   1.132  1.1254  0.0561 -0.8477
   49MOL   H31615772   1.617   1.201   1.225 -2.8840 -0.4255 -2.2182
   49MOL   H31715773   1.695   1.137   1.080  1.3139 -1.0535 -0.2341
   49MOL   H31815774   1.752   1.089   1.245 -0.3087 -1.6084 -0.4423
   49MOL   H31915775   1.502   1.026   1.399 -3.8739 -2.9322  2.0917
   49MOL   H32015776   1.633   0.930   1.382 -1.3912  0.2434  0.6638
   49MOL   H32115777   1.465   0.866   1.342  0.6630 -0.7000 -0.2953
   49MOL   H32215778   1.383   0.822   1.120 -2.4350 -0.2471  3.9133
   50MOL     C115779   7.005   5.647   6.401 -0.0063 -0.0927 -0.2907
   50MOL     C215780   7.095   5.546   6.471  0.1973  0.1835 -0.0003
   50MOL     O315781   7.024   5.443   6.535  0.6343  0.1315  0.3795
   50MOL     C415782   6.935   5.481   6.644  0.3040 -0.4305  0.1206
   50MOL     C515783   7.009   5.540   6.759  0.0458  0.5765 -0.0788
   50MOL     C615784   6.867   5.351   6.686 -0.3095  0.3090  0.2582
   50MOL     H715785   6.944   5.708   6.468  0.1088  0.6669 -0.8747
   50MOL     H815786   7.069   5.708   6.338  1.0856 -0.6102  0.3148
   50MOL     H915787   7.155   5.594   6.548  1.3465  0.2012 -0.8907
   50MOL    H1015788   6.861   5.553   6.610  1.5031  0.5566 -0.4305
   50MOL    H1115789   6.943   5.544   6.846 -2.3895  1.2671 -1.8957
   50MOL    H1215790   7.087   5.465   6.774 -1.2928 -0.6627  0.9662
   50MOL    H1315791   7.039   5.643   6.741  0.3372  0.5234  0.1068
   50MOL    H1415792   6.928   5.261   6.693 -0.0300  0.1334 -3.5435
   50MOL    H1515793   6.817   5.360   6.783 -1.2305  3.2023 -0.4398
   50MOL    H1615794   6.794   5.319   6.612  0.3855 -0.3171 -0.1641
   50MOL    H1715795   6.935   5.592   6.337  0.6514 -1.7160  0.3483
   50MOL    C1815796   7.192   5.481   6.378  0.2695 -0.0129 -0.1965
   50MOL    C1915797   7.293   5.378   6.434 -0.0681 -0.5120 -0.0304
   50MOL    O2015798   7.385   5.457   6.507  0.2734  0.3375  0.0970
   50MOL    C2115799   7.445   5.389   6.614 -0.1128  0.1226 -0.1122
   50MOL    C2215800   7.361   5.421   6.746 -0.7376  0.4370  0.3492
   50MOL    C2315801   7.587   5.448   6.637 -0.0157  0.1581  0.0702
   50MOL    H2415802   7.139   5.437   6.293  0.2574 -2.0042  0.8127
   50MOL    H2515803   7.239   5.564   6.326  0.0077  0.5531  0.4649
   50MOL    H2615804   7.238   5.313   6.502 -0.0795 -2.1964 -1.6283
   50MOL    H2715805   7.451   5.281   6.599  0.2288  0.2134 -0.6297
   50MOL    H2815806   7.263   5.373   6.748  0.0246 -1.3408 -1.8984
   50MOL    H2915807   7.416   5.381   6.831  0.5445  1.3416 -0.0366
   50MOL    H3015808   7.358   5.530   6.749  0.1089  0.5083 -0.9871
   50MOL    H3115809   7.630   5.393   6.720 -1.0720 -1.8120 -0.6599
   50MOL    H3215810   7.581   5.555   6.658  0.9609  0.3061 -0.3666
   50MOL    H3315811   7.656   5.449   6.552  0.0932 -0.3070  0.1547
   50MOL    C3415812   7.348   5.292   6.326 -0.2948 -0.3384 -0.6615
   50MOL    C3515813   7.266   5.161   6.296 -0.6844 -0.0943 -0.2650
   50MOL    O3615814   7.135   5.193   6.258  0.7489 -0.8796  0.2622
   50MOL    C3715815   7.031   5.097   6.273 -0.1800  0.4426  0.9321
   50MOL    C3815816   6.928   5.169   6.354  0.2784 -0.0099 -0.4802
   50MOL    C3915817   6.983   5.067   6.125  0.8470 -0.3239 -0.0894
   50MOL    H4015818   7.443   5.263   6.369  1.2476  4.3607 -0.6557
   50MOL    H4115819   7.361   5.344   6.231 -0.5306  0.1431 -0.4303
   50MOL    H4215820   7.260   5.094   6.382 -1.3237  1.3604  0.8455
   50MOL    H4315821   7.050   5.004   6.325 -1.9634 -0.7369 -0.4317
   50MOL    H4415822   6.854   5.100   6.395  2.2739 -1.7257  0.2895
   50MOL    H4515823   6.883   5.246   6.291  1.0532 -0.1086 -1.1522
   50MOL    H4615824   6.984   5.228   6.427 -0.0577 -0.8988  0.5089
   50MOL    H4715825   6.982   5.161   6.070 -1.7015 -0.1077  0.2878
   50MOL    H4815826   7.065   5.005   6.089  2.0712  1.5147 -0.5169
   50MOL    H4915827   6.891   5.009   6.121 -0.1817  1.3108 -0.6625
   50MOL    C5015828   7.321   5.076   6.181 -0.2338  0.4627 -0.4857
   50MOL    C5115829   7.473   5.032   6.182  0.5617  0.3690  0.7289
   50MOL    O5215830   7.488   4.941   6.075  0.3047  0.2143 -0.0948
   50MOL    C5315831   7.569   4.983   5.968 -0.3867  0.1775  0.4287
   50MOL    C5415832   7.501   5.099   5.881  0.3692 -0.0801 -0.3948
   50MOL    C5515833   7.599   4.857   5.887  0.2409 -0.1978  0.4203
   50MOL    H5615834   7.270   4.980   6.191 -1.7660  1.4087  1.0045
   50MOL    H5715835   7.295   5.124   6.087  1.7078  2.1406 -0.1965
   50MOL    H5815836   7.533   5.122   6.163  0.3851  0.8427  2.3207
   50MOL    H5915837   7.664   5.025   6.002  0.6641 -2.5704  0.9584
   50MOL    H6015838   7.486   5.198   5.925 -3.4304 -0.9950  0.4898
   50MOL    H6115839   7.402   5.082   5.839  0.8774  1.1402 -2.1691
   50MOL    H6215840   7.561   5.126   5.794  1.9956  0.9936  1.0194
   50MOL    H6315841   7.518   4.823   5.823  0.6562  0.4944 -0.4847
   50MOL    H6415842   7.611   4.779   5.962 -0.0467  0.0167  0.6944
   50MOL    H6515843   7.692   4.858   5.830 -1.0548  0.5582 -1.7674
   50MOL    C6615844   7.516   4.945   6.301 -0.2148 -0.1935 -0.1307
   50MOL    C6715845   7.670   4.934   6.325  0.1717  0.2446 -0.5300
   50MOL    O6815846   7.719   4.827   6.406 -0.1378  0.8367 -0.2614
   50MOL    C6915847   7.730   4.696   6.340 -0.8454  0.5103 -0.4718
   50MOL    C7015848   0.028   4.613   6.389  0.6099 -0.0314  0.3481
   50MOL    C7115849   7.599   4.619   6.380 -0.1315  0.0352  0.2466
   50MOL    H7215850   7.478   4.987   6.394  0.2674 -0.9261  0.3982
   50MOL    H7315851   7.465   4.849   6.285  0.3869 -0.4707 -0.3941
   50MOL    H7415852   7.723   4.906   6.234  0.6546 -1.0446  0.1455
   50MOL    H7515853   7.742   4.702   6.232 -0.3755  0.2148 -0.4414
   50MOL    H7615854   0.119   4.648   6.341 -1.2696  0.3151 -3.1178
   50MOL    H7715855   0.033   4.624   6.498 -1.1060  0.3234  0.3990
   50MOL    H7815856   0.018   4.508   6.362 -0.9032  0.7047 -2.0696
   50MOL    H7915857   7.579   4.622   6.487 -0.3396  1.7912  0.1742
   50MOL    H8015858   7.608   4.517   6.342 -1.9982 -0.2426  0.4847
   50MOL    H8115859   7.509   4.655   6.330  1.1240  1.2162 -1.2404
   50MOL    C8215860   7.725   5.067   6.385  0.1879  0.0047  0.0093
   50MOL    C8315861   0.037   5.122   6.303  0.2030 -0.1666  0.1735
   50MOL    O8415862   0.058   5.252   6.345 -0.3005  0.0444  0.0150
   50MOL    C8515863   0.058   5.356   6.256 -0.0444 -0.2851  0.8685
   50MOL    C8615864   0.142   5.468   6.315  0.3525 -0.0636  0.6262
   50MOL    C8715865   7.736   5.397   6.212  0.5574 -0.8466 -0.1441
   50MOL    H8815866   7.652   5.146   6.368  0.1763 -0.2453 -1.1994
   50MOL    H8915867   7.740   5.059   6.492 -0.7670 -2.4455 -0.0014
   50MOL    H9015868   0.006   5.123   6.199 -3.9800 -0.0979  1.3198
   50MOL    H9115869   0.108   5.322   6.165 -1.8713 -0.4442 -0.0926
   50MOL    H9215870   0.076   5.496   6.397 -0.9116 -0.3995 -0.2718
   50MOL    H9315871   0.244   5.438   6.339  0.7523  0.0178 -0.9390
   50MOL    H9415872   0.144   5.551   6.244  0.6639 -1.0847 -0.5685
   50MOL    H9515873   7.747   5.487   6.152 -0.1920 -0.5329  0.1852
   50MOL    H9615874   7.681   5.325   6.152 -2.1971  0.0752  1.2258
   50MOL    H9715875   7.668   5.431   6.290  0.3323 -0.3637 -0.5573
   50MOL    C9815876   0.152   5.028   6.328  0.0310  0.8285  0.5236
   50MOL    C9915877   0.268   5.050   6.228 -0.0552 -0.3256 -0.4714
   50MOL   O10015878   0.239   4.955   6.118  0.1507 -0.2041  0.1885
   50MOL   C10115879   0.216   5.015   5.991  0.5089  0.1855 -0.0306
   50MOL   C10215880   0.138   4.915   5.896  0.4943  0.2451  0.6215
   50MOL   C10315881   0.342   5.083   5.942  0.2175  0.9693 -0.1265
   50MOL   H10415882   0.189   5.060   6.426  0.7310 -0.6397  0.7431
   50MOL   H10515883   0.122   4.924   6.338  2.2217  0.2638  1.6827
   50MOL   H10615884   0.269   5.156   6.203  0.0049  0.0900  1.2857
   50MOL   H10715885   0.140   5.089   6.015 -0.9046 -1.5299  0.8874
   50MOL   H10815886   0.091   4.957   5.807  1.9381  1.5753  0.4699
   50MOL   H10915887   0.058   4.876   5.960  1.9495 -2.0490  1.0877
   50MOL   H11015888   0.204   4.833   5.869  0.2187 -0.0050  0.6948
   50MOL   H11115889   0.411   5.013   5.895  0.8864  1.5578 -0.0303
   50MOL   H11215890   0.394   5.146   6.014  0.2107  0.3081  0.4675
   50MOL   H11315891   0.299   5.134   5.856  0.8022  1.5119 -0.0917
   50MOL   C11415892   0.407   5.016   6.283 -0.0142 -0.0654  0.2957
   50MOL   C11515893   0.443   4.886   6.362  0.5396 -0.1014 -0.3404
   50MOL   O11615894   0.361   4.892   6.477  0.4395 -0.1320  0.2431
   50MOL   C11715895   0.398   4.818   6.590 -0.1940  0.0120 -0.2794
   50MOL   C11815896   0.276   4.745   6.654  0.1554 -0.2885  0.4677
   50MOL   C11915897   0.473   4.912   6.686  0.7350  0.2047  1.3240
   50MOL   H12015898   0.415   5.102   6.350 -0.8922 -0.3948  0.8466
   50MOL   H12115899   0.480   5.041   6.207 -0.6580  1.8232  0.2478
   50MOL   H12215900   0.549   4.889   6.391  0.0967  0.3749  1.2806
   50MOL   H12315901   0.478   4.745   6.578  0.8948  1.4582 -2.0369
   50MOL   H12415902   0.297   4.694   6.748 -1.1244 -1.0259  0.3607
   50MOL   H12515903   0.241   4.672   6.581 -2.2499  1.5060 -0.2176
   50MOL   H12615904   0.203   4.822   6.676  2.3528  1.5022  1.6919
   50MOL   H12715905   0.558   4.952   6.632  0.8650 -1.5139  0.1894
   50MOL   H12815906   0.512   4.866   6.777  0.3748 -1.0607  0.8618
   50MOL   H12915907   0.409   4.996   6.715 -1.2970 -0.6410 -0.5185
   50MOL   C13015908   0.414   4.757   6.282 -0.1713 -0.2197  0.0453
   50MOL   C13115909   0.491   4.736   6.153  0.3827  0.3510  0.6987
   50MOL   O13215910   0.458   4.614   6.095  0.4281  0.0429  0.0798
   50MOL   C13315911   0.346   4.609   6.003  0.1241  0.0056 -0.4342
   50MOL   C13415912   0.373   4.486   5.911 -0.0819  0.7138  0.0510
   50MOL   C13515913   0.203   4.607   6.069 -0.3399  0.1888 -0.1553
   50MOL   H13615914   0.308   4.742   6.261 -0.2523  0.1182  0.2224
   50MOL   H13715915   0.432   4.672   6.348 -0.5966 -0.3706 -0.0353
   50MOL   H13815916   0.480   4.821   6.085 -1.6591 -0.5615 -0.1294
   50MOL   H13915917   0.358   4.697   5.940  0.2211 -0.1553 -0.6419
   50MOL   H14015918   0.478   4.488   5.880  0.3046  1.0839  1.3383
   50MOL   H14115919   0.311   4.507   5.824 -0.2427 -0.0970 -0.0295
   50MOL   H14215920   0.344   4.390   5.954 -0.3476  1.7758  2.3364
   50MOL   H14315921   0.184   4.511   6.116 -2.4238  1.3534  1.4819
   50MOL   H14415922   0.173   4.688   6.135  1.4652  0.1631  0.7353
   50MOL   H14515923   0.137   4.620   5.983  0.8449  2.1360 -0.8079
   50MOL   C14615924   0.641   4.719   6.181 -0.7054  0.2477 -0.2084
   50MOL   C14715925   0.729   4.822   6.106  0.5958  0.5166  0.6864
   50MOL   O14815926   0.736   4.940   6.191  0.0558 -0.0947 -0.3748
   50MOL   C14915927   0.793   5.061   6.142  0.1560 -0.5064 -0.0776
   50MOL   C15015928   0.789   5.166   6.252 -0.5911  0.8229  0.1622
   50MOL   C15115929   0.703   5.095   6.021  1.7235 -0.2254  0.0676
   50MOL   H15215930   0.674   4.621   6.147  1.5813  0.3623  1.5643
   50MOL   H15315931   0.670   4.728   6.285  0.9790  0.2882 -0.6628
   50MOL   H15415932   0.681   4.840   6.010  1.2799  2.0763  0.6192
   50MOL   H15515933   0.897   5.040   6.115 -0.2503 -1.7027 -0.7548
   50MOL   H15615934   0.692   5.201   6.284 -1.8626 -1.6250 -0.8427
   50MOL   H15715935   0.841   5.259   6.230 -1.5584  0.3850 -4.5243
   50MOL   H15815936   0.830   5.117   6.340 -2.9011  0.1251  0.8641
   50MOL   H15915937   0.598   5.070   6.036  1.4981 -0.1480 -1.3402
   50MOL   H16015938   0.736   5.039   5.933  0.8663 -2.2938  1.0144
   50MOL   H16115939   0.718   5.199   5.994  1.2136 -0.2804 -0.4291
   50MOL   C16215940   0.871   4.762   6.086 -0.0827 -0.3398 -0.0965
   50MOL   C16315941   0.890   4.697   5.949 -0.8743 -0.0608 -0.5968
   50MOL   O16415942   0.860   4.793   5.849  0.2707  0.3554 -0.6396
   50MOL   C16515943   0.824   4.739   5.722 -0.3982 -0.3159 -0.0352
   50MOL   C16615944   0.837   4.862   5.627  0.0027 -0.4029 -0.4993
   50MOL   C16715945   0.674   4.692   5.719 -0.2913  0.7061  0.0224
   50MOL   H16815946   0.952   4.832   6.107 -1.2527  0.8211  0.6243
   50MOL   H16915947   0.880   4.687   6.163 -1.5752  1.1689  1.6009
   50MOL   H17015948   0.822   4.614   5.930  0.4769 -1.2520 -0.3570
   50MOL   H17115949   0.883   4.654   5.687  0.6185  0.5365 -0.4011
   50MOL   H17215950   0.759   4.932   5.656  0.0131 -1.6103  2.6190
   50MOL   H17315951   0.827   4.833   5.522 -0.7463 -1.1817 -0.2153
   50MOL   H17415952   0.933   4.913   5.637 -1.3324  1.9313  0.8436
   50MOL   H17515953   0.620   4.782   5.750  0.7000  0.1774  3.5829
   50MOL   H17615954   0.652   4.618   5.796  1.7050  1.0820  0.9835
   50MOL   H17715955   0.638   4.662   5.621  2.5771 -1.6399 -0.3823
   50MOL   C17815956   1.034   4.651   5.922 -0.0942  0.6102 -0.0553
   50MOL   C17915957   1.105   4.540   6.006 -0.3652 -1.0264 -0.5770
   50MOL   O18015958   1.135   4.584   6.139  0.4168 -0.1430  0.1614
   50MOL   C18115959   1.205   4.499   6.231  0.3310  0.1263  0.2795
   50MOL   C18215960   1.207   4.584   6.357  0.0981  0.2978 -0.2299
   50MOL   C18315961   1.343   4.441   6.189 -0.2781  0.8045  0.0841
   50MOL   H18415962   1.092   4.743   5.909  0.4296  0.2480 -0.3223
   50MOL   H18515963   1.030   4.612   5.820 -1.4488 -0.8113  0.5201
   50MOL   H18615964   1.195   4.514   5.950  1.9714  1.5635  1.8852
   50MOL   H18715965   1.136   4.415   6.245  0.1263 -0.1455 -2.0967
   50MOL   H18815966   1.275   4.669   6.347 -0.6150  0.7662 -1.1249
   50MOL   H18915967   1.264   4.546   6.442  0.6452  1.7026  0.0592
   50MOL   H19015968   1.108   4.614   6.393 -0.1857  0.0321 -0.7895
   50MOL   H19115969   1.397   4.396   6.273  0.4906  3.2793  0.9910
   50MOL   H19215970   1.411   4.521   6.158  1.5822 -0.4349  0.8444
   50MOL   H19315971   1.348   4.371   6.106  1.5509  0.3402  0.5594
   50MOL   C19415972   1.010   4.413   6.011 -0.3767  0.4907  0.2369
   50MOL   C19515973   0.964   4.354   5.871 -0.2957 -0.0815  0.5207
   50MOL   O19615974   0.908   4.223   5.889 -0.0418 -0.0897 -0.3699
   50MOL   C19715975   0.806   4.206   5.978 -0.0856 -0.2488 -0.1557
   50MOL   C19815976   0.680   4.288   5.950  0.9446 -0.0349 -0.1216
   50MOL   C19915977   0.767   4.066   5.952  0.0839 -0.4707 -1.1315
   50MOL   H20015978   1.068   4.344   6.073 -0.6914  0.7015  0.7678
   50MOL   H20115979   0.921   4.446   6.064 -0.2575 -0.3547  0.9676
   50MOL   H20215980   0.894   4.421   5.822  1.9129  0.2383 -2.3365
   50MOL   H20315981   0.839   4.226   6.080  0.9193  0.8215 -0.6814
   50MOL   H20415982   0.646   4.276   5.848 -1.1811  0.7924  0.4715
   50MOL   H20515983   0.606   4.263   6.026  2.0280  0.4412  1.1113
   50MOL   H20615984   0.707   4.394   5.956 -1.8722  0.7797 -1.0958
   50MOL   H20715985   0.674   4.044   6.006  0.9284  2.4850  1.7462
   50MOL   H20815986   0.740   4.055   5.847 -2.0743 -0.5554 -0.5907
   50MOL   H20915987   0.846   4.000   5.987  0.6252  1.0982  0.6969
   50MOL   C21015988   1.082   4.326   5.778  0.2402 -0.3595  0.2177
   50MOL   C21115989   1.043   4.287   5.636  0.3975 -0.0765 -0.7179
   50MOL   O21215990   0.985   4.411   5.584  0.5845  0.3016 -0.0866
   50MOL   C21315991   0.882   4.389   5.492  1.0129 -0.1406  0.1415
   50MOL   C21415992   0.736   4.388   5.546 -0.3065 -0.3242 -0.1673
   50MOL   C21515993   0.910   4.499   5.382  0.1125  1.0717  0.1347
   50MOL   H21615994   1.147   4.251   5.823  0.1597 -0.7292 -0.2878
   50MOL   H21715995   1.142   4.417   5.769  2.8956 -2.0518  0.2309
   50MOL   H21815996   0.968   4.207   5.637  1.1569 -0.7928 -0.1761
   50MOL   H21915997   0.907   4.300   5.433 -0.4278 -0.0261 -0.6562
   50MOL   H22015998   0.689   4.485   5.562  1.8161  0.9122 -1.2593
   50MOL   H22115999   0.739   4.328   5.637 -0.5868 -0.7918 -0.4600
   50MOL   H22216000   0.677   4.341   5.467 -1.0715  0.3968 -0.0310
   50MOL   H22316001   0.833   4.496   5.304  1.3402  0.7045 -1.0942
   50MOL   H22416002   1.009   4.498   5.336 -0.2155  0.0704 -0.5713
   50MOL   H22516003   0.894   4.599   5.422 -0.4131  1.6130 -1.3929
   50MOL   C22616004   1.166   4.252   5.542 -0.1682  0.3550  0.1807
   50MOL   C22716005   1.226   4.106   5.539  0.6927 -0.4386  0.4398
   50MOL   O22816006   1.263   4.072   5.664  0.3713 -0.0139  0.0694
   50MOL   C22916007   1.257   3.930   5.703  0.1016 -0.4781 -0.2742
   50MOL   C23016008   1.113   3.899   5.738 -0.1697 -0.3152  0.4311
   50MOL   C23116009   1.347   3.921   5.832 -0.2241  0.0492  0.0259
   50MOL   H23216010   1.247   4.324   5.535  1.2461 -1.2582 -0.4421
   50MOL   H23316011   1.128   4.253   5.440 -0.0227 -0.2928  0.1152
   50MOL   H23416012   1.143   4.049   5.497  1.8672 -0.0114 -2.5423
   50MOL   H23516013   1.297   3.857   5.632 -0.1148 -2.5111  1.6322
   50MOL   H23616014   1.045   3.924   5.656  0.2643  1.6456  0.6682
   50MOL   H23716015   1.094   3.792   5.751  1.2956 -0.3103  2.8097
   50MOL   H23816016   1.079   3.954   5.825 -0.0506 -1.7546  1.3979
   50MOL   H23916017   1.451   3.944   5.805 -1.2306  0.3835 -3.9582
   50MOL   H24016018   1.332   3.823   5.877 -1.7809  0.6759  0.8983
   50MOL   H24116019   1.321   3.987   5.914  2.4796  1.8734 -0.4766
   50MOL   C24216020   1.350   4.095   5.443 -0.4856 -0.0183 -0.5310
   50MOL   C24316021   1.361   3.967   5.354  0.2562  0.1059 -0.6170
   50MOL   O24416022   1.496   3.928   5.341  0.2079 -0.0687  0.4883
   50MOL   C24516023   1.536   3.831   5.435  0.2166 -0.3470  0.6439
   50MOL   C24616024   1.514   3.692   5.374  0.6956 -0.2982 -0.1180
   50MOL   C24716025   1.678   3.859   5.460 -0.2322  0.7447  0.3220
   50MOL   H24816026   1.353   4.189   5.388 -2.2175  0.4016  0.0725
   50MOL   H24916027   1.442   4.104   5.502 -0.2785 -0.6284 -0.7553
   50MOL   H25016028   1.285   3.895   5.388 -0.8285  1.9898  1.0651
   50MOL   H25116029   1.470   3.829   5.522 -0.9044 -0.9672 -0.2033
   50MOL   H25216030   1.559   3.622   5.445 -1.4056 -1.4237  0.1292
   50MOL   H25316031   1.409   3.675   5.351  0.6006 -1.7210  1.3418
   50MOL   H25416032   1.571   3.689   5.281  2.4051 -0.8604  0.9298
   50MOL   H25516033   1.712   3.783   5.530  0.9846  0.3274 -0.6984
   50MOL   H25616034   1.746   3.850   5.376 -0.5057 -0.9659  0.2570
   50MOL   H25716035   1.689   3.955   5.510  1.3465  0.1314  1.1706
   50MOL   C25816036   1.307   3.994   5.215  0.0543  0.1582  0.2890
   50MOL   C25916037   1.322   3.870   5.124 -0.2724 -0.1847 -0.2184
   50MOL   O26016038   1.342   3.907   4.985 -0.0044 -0.0822  0.0144
   50MOL   C26116039   1.478   3.892   4.932  0.8954  0.2548 -1.2957
   50MOL   C26216040   1.484   3.940   4.788  0.4364 -0.1726 -0.4727
   50MOL   C26316041   1.581   3.978   5.004  0.4987 -0.7451  0.2325
   50MOL   H26416042   1.208   4.041   5.214 -0.7605 -1.4569  1.8638
   50MOL   H26516043   1.375   4.073   5.185  0.4942 -0.0637  0.6984
   50MOL   H26616044   1.410   3.817   5.160 -1.3082 -2.0955 -0.4318
   50MOL   H26716045   1.504   3.787   4.944 -1.1105 -0.2520 -1.1091
   50MOL   H26816046   1.421   3.876   4.726  0.2942 -0.2420 -0.2582
   50MOL   H26916047   1.586   3.924   4.753  0.3160 -0.6365 -0.6088
   50MOL   H27016048   1.462   4.046   4.775  0.8955 -0.0497 -0.2697
   50MOL   H27116049   1.613   3.942   5.102  1.3531 -0.9826 -0.1222
   50MOL   H27216050   1.672   3.976   4.944 -0.4581 -1.0823 -1.2100
   50MOL   H27316051   1.553   4.082   5.020  1.3433 -0.8192  2.5219
   50MOL   C27416052   1.202   3.770   5.134  0.1525 -0.3760 -0.3544
   50MOL   C27516053   1.225   3.637   5.062 -0.2009 -0.4686  0.9131
   50MOL   O27616054   1.313   3.559   5.146  0.5597 -0.1544  0.2758
   50MOL   C27716055   1.386   3.455   5.074 -0.4295 -0.1062 -0.1279
   50MOL   C27816056   1.434   3.344   5.174 -0.4442 -0.1834 -0.0922
   50MOL   C27916057   1.512   3.516   5.008 -0.0749 -0.2076  0.8289
   50MOL   H28016058   1.180   3.740   5.237  1.8749 -1.5057 -0.2900
   50MOL   H28116059   1.116   3.826   5.097 -0.1292 -1.0505 -0.7530
   50MOL   H28216060   1.274   3.667   4.970 -1.0306  1.1226  0.9712
   50MOL   H28316061   1.325   3.416   4.992 -0.5971  0.4549 -0.2728
   50MOL   H28416062   1.500   3.385   5.251  0.3864 -0.8251 -0.4514
   50MOL   H28516063   1.358   3.292   5.232 -0.3346 -0.7687 -0.4670
   50MOL   H28616064   1.494   3.262   5.134 -0.0354  0.2622 -0.3960
   50MOL   H28716065   1.479   3.562   4.915  2.8147  1.2395  0.4391
   50MOL   H28816066   1.584   3.438   4.987  1.9115  2.3759 -2.5001
   50MOL   H28916067   1.544   3.596   5.076 -0.1925  0.9331 -0.4266
   50MOL   C29016068   1.095   3.553   5.035  0.0570  0.6735  0.4283
   50MOL   C29116069   1.059   3.550   4.885 -0.4969  0.2610  0.1594
   50MOL   O29216070   0.947   3.465   4.884 -0.1953  0.2010 -0.0425
   50MOL   C29316071   0.979   3.327   4.852 -0.0251 -0.5415 -0.0796
   50MOL   C29416072   0.968   3.308   4.706 -0.1608  0.2313  0.3722
   50MOL   C29516073   0.886   3.241   4.927 -0.3100  0.1600  0.6409
   50MOL   H29616074   1.001   3.580   5.083  0.4656 -1.4293  2.5204
   50MOL   H29716075   1.123   3.450   5.061  2.2587  0.7545 -1.4369
   50MOL   H29816076   1.137   3.506   4.824 -0.4275 -0.6247  0.8843
   50MOL   H29916077   1.078   3.291   4.880 -0.4628 -1.6489  0.0796
   50MOL   H30016078   0.869   3.331   4.666  1.1934  0.7294 -2.8727
   50MOL   H30116079   1.048   3.364   4.656 -0.8544 -0.1926 -1.2585
   50MOL   H30216080   0.996   3.207   4.676  2.1396 -0.4286  4.3659
   50MOL   H30316081   0.881   3.257   5.035 -3.9358 -0.1856  0.5921
   50MOL   H30416082   0.787   3.268   4.892  0.1747  2.2013  0.7874
   50MOL   H30516083   0.912   3.140   4.893 -1.0547  0.2593 -0.2120
   50MOL   C30616084   1.019   3.697   4.837  0.3942 -0.4076 -0.6775
   50MOL   C30716085   0.958   3.712   4.703 -0.3485  0.1746  0.6534
   50MOL   O30816086   0.887   3.831   4.699  0.2455  0.4552  0.4578
   50MOL   C30916087   0.791   3.823   4.590  0.2959 -0.7122  0.0336
   50MOL   C31016088   0.653   3.761   4.630  0.2888  0.4806 -0.3917
   50MOL   C31116089   0.759   3.975   4.564  0.2345 -0.2122 -0.5648
   50MOL   H31216090   1.094   3.775   4.847  1.7061 -1.5533 -1.3411
   50MOL   H31316091   0.942   3.721   4.911  0.9794  0.2717 -0.2891
   50MOL   H31416092   1.036   3.715   4.627 -1.9789  0.1637 -1.0737
   50MOL   H31516093   0.839   3.785   4.500 -1.6911  0.7221 -1.6602
   50MOL   H31616094   0.655   3.653   4.645  1.0438  0.2363 -2.1180
   50MOL   H31716095   0.576   3.794   4.560  2.1949  1.6661 -1.9670
   50MOL   H31816096   0.636   3.813   4.724 -1.4076 -1.7048  0.5484
   50MOL   H31916097   0.850   4.027   4.533  0.6090  0.1395  1.1101
   50MOL   H32016098   0.720   4.036   4.645 -0.2640 -4.4100  2.4869
   50MOL   H32116099   0.687   3.985   4.483 -0.7017 -2.6836 -0.0607
   50MOL   H32216100   0.896   3.625   4.684  1.4913 -1.3026  1.3222
   51MOL     C116101   6.652   7.237   2.251 -0.4277 -0.3700 -0.7902
   51MOL     C216102   6.568   7.122   2.197  0.0824 -0.2086 -0.2063
   51MOL     O316103   6.652   7.007   2.174  0.3456 -0.0983 -0.4241
   51MOL     C416104   6.725   6.998   2.053  0.1449  0.0692 -0.3843
   51MOL     C516105   6.642   6.950   1.938  0.1016  0.0883  0.2027
   51MOL     C616106   6.841   6.903   2.063 -0.0223 -0.1453 -0.0892
   51MOL     H716107   6.707   7.211   2.340 -0.2403 -2.6628 -1.5359
   51MOL     H816108   6.712   7.264   2.164  2.7177  0.6371  1.6045
   51MOL     H916109   6.531   7.161   2.102 -1.1435  3.0991  1.5457
   51MOL    H1016110   6.778   7.093   2.043  0.3510  0.0028  0.0399
   51MOL    H1116111   6.613   6.848   1.961 -0.1957  0.4140  1.2723
   51MOL    H1216112   6.557   7.012   1.910 -2.2413 -2.0007  2.4772
   51MOL    H1316113   6.713   6.954   1.855 -2.1096  2.2289 -1.6554
   51MOL    H1416114   6.926   6.951   2.014 -1.5628  2.1491 -0.5898
   51MOL    H1516115   6.870   6.884   2.166 -0.3270  2.0673  0.4328
   51MOL    H1616116   6.816   6.803   2.027 -1.6295  0.4653 -0.7084
   51MOL    H1716117   6.593   7.327   2.265  1.0917  0.5383 -0.1240
   51MOL    C1816118   6.455   7.094   2.286  0.3088 -0.3019  0.2331
   51MOL    C1916119   6.350   6.996   2.232 -0.2202 -0.0279 -0.1821
   51MOL    O2016120   6.317   7.030   2.095 -0.0553 -0.5168  0.2370
   51MOL    C2116121   6.228   6.963   2.017 -0.5696  0.4707 -0.7466
   51MOL    C2216122   6.274   6.820   1.985  0.3070  0.3658  1.0239
   51MOL    C2316123   6.217   7.042   1.887  0.3896 -0.3061 -0.0882
   51MOL    H2416124   6.493   7.066   2.384 -0.9393  0.4023  0.9433
   51MOL    H2516125   6.395   7.184   2.300 -0.9186 -0.9719 -0.6344
   51MOL    H2616126   6.404   6.903   2.219 -1.2798 -0.7484  0.4806
   51MOL    H2716127   6.133   6.960   2.070  0.4475  2.3560  1.2791
   51MOL    H2816128   6.216   6.768   1.908  0.3160  0.8997  0.6511
   51MOL    H2916129   6.378   6.820   1.953 -1.0031 -0.6396 -3.5929
   51MOL    H3016130   6.269   6.758   2.074  0.5431  1.0649  1.5243
   51MOL    H3116131   6.180   7.145   1.897 -1.3136 -1.0609  1.8690
   51MOL    H3216132   6.148   6.994   1.818  0.5184  0.6345 -0.8702
   51MOL    H3316133   6.311   7.047   1.833 -1.1722 -2.8267 -3.2007
   51MOL    C3416134   6.228   6.960   2.323  0.3051 -0.0078 -0.4131
   51MOL    C3516135   6.255   6.927   2.468 -0.1881  0.4026 -0.1189
   51MOL    O3616136   6.130   6.898   2.526  0.2717 -0.0102  0.1814
   51MOL    C3716137   6.049   7.008   2.557  0.3965  0.2234 -0.1068
   51MOL    C3816138   5.903   6.966   2.547  0.2222 -1.0073 -0.5232
   51MOL    C3916139   6.082   7.073   2.689  0.8350 -0.1818  0.1102
   51MOL    H4016140   6.174   6.872   2.289 -1.8572  0.8035  0.7870
   51MOL    H4116141   6.159   7.045   2.313 -0.8895 -0.8179  0.6967
   51MOL    H4216142   6.306   7.007   2.522 -1.6906  1.1304  0.2469
   51MOL    H4316143   6.051   7.084   2.479  0.5143  0.8838  0.5405
   51MOL    H4416144   5.872   6.921   2.641 -0.5746 -0.4442 -0.5173
   51MOL    H4516145   5.879   6.897   2.466 -3.1078  1.9728 -2.2004
   51MOL    H4616146   5.843   7.055   2.531 -0.3747 -1.2751  0.1930
   51MOL    H4716147   6.024   7.162   2.711 -0.8805 -1.2819  0.1170
   51MOL    H4816148   6.069   7.001   2.769  1.1031 -0.4535 -0.0888
   51MOL    H4916149   6.184   7.109   2.699  1.4772 -1.2576 -2.1241
   51MOL    C5016150   6.337   6.797   2.478 -0.6281  0.9230 -0.5961
   51MOL    C5116151   6.369   6.752   2.622  0.1404  0.3004  0.9133
   51MOL    O5216152   6.471   6.838   2.674 -0.3367 -0.3397 -0.5585
   51MOL    C5316153   6.422   6.912   2.785  0.0017  0.3519  0.3059
   51MOL    C5416154   6.510   7.041   2.796  0.1694 -0.6214 -0.1735
   51MOL    C5516155   6.434   6.831   2.915 -0.1748  0.3553  0.6317
   51MOL    H5616156   6.288   6.713   2.430 -2.4745  0.2958  2.2473
   51MOL    H5716157   6.435   6.807   2.432  1.1839  0.2430  2.8776
   51MOL    H5816158   6.276   6.760   2.679 -0.5429  5.6126 -0.6739
   51MOL    H5916159   6.323   6.949   2.758 -0.6595 -0.1949  1.9298
   51MOL    H6016160   6.460   7.106   2.867  0.7336  0.6430 -0.9034
   51MOL    H6116161   6.514   7.090   2.699 -3.5100  0.6040  0.2222
   51MOL    H6216162   6.609   7.021   2.837 -0.4158  0.5574  1.8450
   51MOL    H6316163   6.537   6.796   2.929 -0.2994 -1.5076 -2.6713
   51MOL    H6416164   6.385   6.734   2.924  0.6268  0.1000  2.4858
   51MOL    H6516165   6.429   6.896   3.003  2.6739  1.2051  0.2318
   51MOL    C6616166   6.407   6.605   2.633 -0.0574  0.1240  0.3501
   51MOL    C6716167   6.285   6.505   2.658 -0.4755  0.3441  0.0795
   51MOL    O6816168   6.221   6.524   2.787  0.4677  0.5145 -0.0180
   51MOL    C6916169   6.085   6.485   2.819 -0.7748 -0.4079 -1.0639
   51MOL    C7016170   6.081   6.512   2.974  0.1946  0.2299  0.0466
   51MOL    C7116171   5.979   6.557   2.740 -0.3329 -0.0653  0.2349
   51MOL    H7216172   6.459   6.583   2.540  0.3516  2.4300  0.0018
   51MOL    H7316173   6.472   6.589   2.719  1.9943  0.3494 -1.1359
   51MOL    H7416174   6.214   6.530   2.579 -1.4984 -1.4292  0.4016
   51MOL    H7516175   6.083   6.377   2.807  1.7106 -0.3933 -1.8220
   51MOL    H7616176   5.976   6.511   3.003 -0.0424  0.1400 -0.7801
   51MOL    H7716177   6.129   6.432   3.030  1.0156 -0.5328 -1.6908
   51MOL    H7816178   6.129   6.607   2.997  3.2948 -0.1370 -4.1770
   51MOL    H7916179   5.983   6.528   2.635  0.4543 -0.3990  0.3509
   51MOL    H8016180   6.004   6.660   2.765  2.0513 -0.6328  0.2836
   51MOL    H8116181   5.873   6.537   2.757 -0.6118  1.1039 -0.0989
   51MOL    C8216182   6.328   6.360   2.648  0.2187 -0.6814 -0.5825
   51MOL    C8316183   6.394   6.310   2.519  0.4152 -0.1432 -0.3857
   51MOL    O8416184   6.407   6.167   2.519 -0.1805  0.4232 -0.5064
   51MOL    C8516185   6.521   6.106   2.587  0.1094  0.0012 -0.0340
   51MOL    C8616186   6.572   6.015   2.481 -0.4751  0.0048  0.4227
   51MOL    C8716187   6.471   6.040   2.712 -0.3479  0.0210 -0.3475
   51MOL    H8816188   6.405   6.348   2.724  0.2076 -1.0179 -0.6247
   51MOL    H8916189   6.244   6.294   2.671  1.2551 -1.7948  0.0968
   51MOL    H9016190   6.494   6.351   2.507  0.5445 -0.3487  0.0149
   51MOL    H9116191   6.593   6.178   2.626  0.0130 -0.0553  0.2507
   51MOL    H9216192   6.666   5.976   2.522 -1.1369 -2.1845 -0.0540
   51MOL    H9316193   6.511   5.925   2.467  1.9656 -2.0630  2.4709
   51MOL    H9416194   6.593   6.075   2.392  0.8329  0.5543  1.0785
   51MOL    H9516195   6.391   5.969   2.692 -0.0545 -0.4521  0.1346
   51MOL    H9616196   6.547   5.980   2.762 -1.2750 -1.9464 -1.2604
   51MOL    H9716197   6.426   6.117   2.776  0.8910  1.1683 -0.8286
   51MOL    C9816198   6.315   6.340   2.390  0.3414  0.0593  0.1250
   51MOL    C9916199   6.400   6.335   2.255  0.4405 -0.5077 -0.3456
   51MOL   O10016200   6.447   6.467   2.226  0.1888  0.5981 -0.5652
   51MOL   C10116201   6.582   6.469   2.170 -0.6455  0.3874  0.3017
   51MOL   C10216202   6.685   6.483   2.282 -0.2373  0.3448 -0.6612
   51MOL   C10316203   6.586   6.598   2.076 -0.1030 -0.1919 -0.3330
   51MOL   H10416204   6.233   6.268   2.391 -0.3442  0.8377  0.4643
   51MOL   H10516205   6.283   6.444   2.402 -0.4744 -0.0127 -1.3612
   51MOL   H10616206   6.474   6.257   2.271  0.2381 -0.4081  1.2204
   51MOL   H10716207   6.605   6.388   2.101 -0.5988  0.2538  0.4731
   51MOL   H10816208   6.671   6.405   2.357  0.6764  0.8150  0.0137
   51MOL   H10916209   6.674   6.581   2.328  0.1456  0.1896 -0.2403
   51MOL   H11016210   6.789   6.472   2.251 -0.4009 -2.8334 -0.2482
   51MOL   H11116211   6.509   6.574   2.003  2.1224 -0.2006 -2.7301
   51MOL   H11216212   6.686   6.602   2.033  0.3893  0.7047  0.8729
   51MOL   H11316213   6.580   6.686   2.140 -0.7672 -2.3040  2.6781
   51MOL   C11416214   6.308   6.300   2.132 -0.4548 -0.7456  0.0786
   51MOL   C11516215   6.228   6.163   2.126  0.3812  0.2104 -0.5414
   51MOL   O11616216   6.160   6.171   2.000  0.3112 -0.2452  0.3960
   51MOL   C11716217   6.016   6.198   2.001 -0.4149 -0.2618  0.1391
   51MOL   C11816218   5.942   6.071   2.028  0.0020 -0.1615 -0.3496
   51MOL   C11916219   5.994   6.251   1.856 -0.1870  0.2658  0.8326
   51MOL   H12016220   6.361   6.307   2.037 -0.7681 -0.0481 -0.0494
   51MOL   H12116221   6.232   6.375   2.112  1.2006  1.0797  0.5512
   51MOL   H12216222   6.163   6.149   2.212  1.2296  1.1824  0.2686
   51MOL   H12316223   5.986   6.278   2.068 -1.9737 -1.4715  0.9009
   51MOL   H12416224   5.967   5.997   1.952 -1.8716 -1.1095 -0.0636
   51MOL   H12516225   5.837   6.097   2.018 -0.8307 -3.0643  0.1768
   51MOL   H12616226   5.959   6.032   2.128  1.2475 -0.2639 -0.5946
   51MOL   H12716227   6.050   6.344   1.846  0.6707 -0.2860  0.5117
   51MOL   H12816228   5.890   6.275   1.833 -0.1101  0.6617  0.8885
   51MOL   H12916229   6.033   6.168   1.797 -1.3599  1.3385 -1.5126
   51MOL   C13016230   6.310   6.033   2.130 -0.4476  0.8716  0.5217
   51MOL   C13116231   6.402   6.006   2.010 -0.2989  0.1853  0.0794
   51MOL   O13216232   6.364   5.881   1.958 -0.2458 -0.1300  0.5958
   51MOL   C13316233   6.253   5.874   1.860 -0.2504 -0.4349  0.1393
   51MOL   C13416234   6.305   5.933   1.726 -0.3000  0.3261 -0.7224
   51MOL   C13516235   6.215   5.726   1.853  0.6156 -0.8924  0.5516
   51MOL   H13616236   6.230   5.959   2.140  0.3817 -0.1944 -0.5774
   51MOL   H13716237   6.352   6.022   2.230 -1.5889 -1.5188  0.7914
   51MOL   H13816238   6.408   6.082   1.932 -0.5134  0.5574  0.4256
   51MOL   H13916239   6.166   5.933   1.889 -1.0821 -1.6148  0.1131
   51MOL   H14016240   6.324   6.038   1.749  1.3457 -0.9308  4.3420
   51MOL   H14116241   6.234   5.931   1.644 -1.0960  1.4078 -0.0783
   51MOL   H14216242   6.400   5.886   1.701  0.3697  1.0163  0.5121
   51MOL   H14316243   6.164   5.681   1.938  1.4321  0.4294  1.7737
   51MOL   H14416244   6.135   5.706   1.782  0.1230 -0.6093  1.0301
   51MOL   H14516245   6.304   5.662   1.845  1.8537  0.8416  0.0964
   51MOL   C14616246   6.546   5.981   2.064 -0.0749  0.1377  0.4251
   51MOL   C14716247   6.659   5.941   1.958  0.0113 -0.0238 -0.5569
   51MOL   O14816248   6.782   5.958   2.030 -0.1514  0.0477 -0.1994
   51MOL   C14916249   6.833   6.095   2.046  0.4580 -0.0183  0.4280
   51MOL   C15016250   6.914   6.159   1.932 -0.4134 -0.1146 -0.0637
   51MOL   C15116251   6.921   6.086   2.171  0.0878 -0.4854  1.1632
   51MOL   H15216252   6.546   5.904   2.142  0.5838  0.6595  0.9517
   51MOL   H15316253   6.575   6.075   2.110  3.0198 -0.1222 -0.8624
   51MOL   H15416254   6.660   6.010   1.875  1.6952  1.0939  0.3708
   51MOL   H15516255   6.749   6.160   2.071  0.5760  1.0754 -1.9612
   51MOL   H15616256   6.978   6.097   1.869  1.0800  0.9411  0.3854
   51MOL   H15716257   6.976   6.239   1.973  0.2031 -0.9607  0.6839
   51MOL   H15816258   6.844   6.220   1.874  0.6553  2.3195  1.1037
   51MOL   H15916259   6.864   6.041   2.253  0.0968 -0.5968  1.1087
   51MOL   H16016260   6.934   6.184   2.215  0.9426 -0.3829  0.6845
   51MOL   H16116261   7.013   6.034   2.143 -0.6645 -0.2420 -1.9316
   51MOL   C16216262   6.650   5.793   1.913  0.4060  0.3959 -0.3810
   51MOL   C16316263   6.749   5.767   1.795 -0.4629 -0.3216  0.5309
   51MOL   O16416264   6.778   5.632   1.791 -0.5282  1.0469  1.2434
   51MOL   C16516265   6.915   5.600   1.795  0.1629  0.4358  0.2641
   51MOL   C16616266   6.928   5.457   1.744 -0.5572 -0.1339 -0.6863
   51MOL   C16716267   6.970   5.612   1.933 -0.6384  0.2317  0.1802
   51MOL   H16816268   6.690   5.730   1.992 -1.4853 -1.8996 -1.2140
   51MOL   H16916269   6.547   5.759   1.899  0.6836 -0.3570 -0.5562
   51MOL   H17016270   6.834   5.834   1.807 -1.6367  1.2584  0.2558
   51MOL   H17116271   6.964   5.668   1.726  2.5112 -1.2769  0.1720
   51MOL   H17216272   6.886   5.471   1.644 -1.0302  1.2401 -0.3043
   51MOL   H17316273   6.867   5.377   1.786 -1.6182  0.3965 -1.1866
   51MOL   H17416274   7.035   5.439   1.751 -0.2701  1.7797  0.4103
   51MOL   H17516275   7.066   5.565   1.955 -0.2696  1.0616  0.3573
   51MOL   H17616276   6.904   5.552   1.996 -1.3410  0.2037 -0.5757
   51MOL   H17716277   6.951   5.709   1.977 -0.9417 -0.0120  0.5942
   51MOL   C17816278   6.690   5.806   1.664 -0.8744 -0.2130  1.4158
   51MOL   C17916279   6.778   5.808   1.542  0.7679 -0.4842 -0.3590
   51MOL   O18016280   6.694   5.819   1.422  0.1355  0.2281  0.7096
   51MOL   C18116281   6.650   5.698   1.363  0.5099 -0.6182 -0.5101
   51MOL   C18216282   6.760   5.636   1.273 -0.2077 -0.1185 -0.5515
   51MOL   C18316283   6.526   5.724   1.283 -0.1390 -0.3200  0.0164
   51MOL   H18416284   6.657   5.910   1.663  0.1634  0.1291 -0.8604
   51MOL   H18516285   6.594   5.759   1.644 -0.4731 -0.5654  0.3104
   51MOL   H18616286   6.836   5.716   1.532  2.5719  0.5285  0.3783
   51MOL   H18716287   6.637   5.619   1.437 -4.9060  0.4402 -0.1268
   51MOL   H18816288   6.801   5.712   1.206 -1.3074  0.6955 -0.3035
   51MOL   H18916289   6.719   5.555   1.212 -0.5162  0.7774 -1.5499
   51MOL   H19016290   6.838   5.597   1.339  2.8013  1.1194 -3.2370
   51MOL   H19116291   6.440   5.754   1.343  1.5059 -0.5951  2.6014
   51MOL   H19216292   6.492   5.637   1.228 -2.5985  2.0995 -2.4632
   51MOL   H19316293   6.536   5.802   1.207  0.5786  0.0770  0.5125
   51MOL   C19416294   6.876   5.936   1.535  0.1896 -0.0407 -0.2891
   51MOL   C19516295   6.959   5.953   1.405  0.4509  0.8736  0.0316
   51MOL   O19616296   7.092   5.901   1.419  1.0432 -0.6926 -0.0236
   51MOL   C19716297   7.113   5.764   1.422 -0.1400 -0.0791 -0.1105
   51MOL   C19816298   7.145   5.712   1.287  0.2585 -0.1896 -0.4988
   51MOL   C19916299   7.227   5.731   1.517  0.0050 -0.7470 -0.0427
   51MOL   H20016300   6.815   6.025   1.555  0.6025 -0.0657  1.1684
   51MOL   H20116301   6.935   5.939   1.627 -0.3750  2.9112  0.0273
   51MOL   H20216302   6.915   5.908   1.316  1.2977  0.0290  0.0320
   51MOL   H20316303   7.023   5.712   1.454 -0.8571 -0.1355 -2.1183
   51MOL   H20416304   7.235   5.752   1.241  0.4286 -1.4857 -1.3312
   51MOL   H20516305   7.174   5.608   1.301  1.7560  0.3902  0.7105
   51MOL   H20616306   7.059   5.725   1.221 -0.5817  3.0471  1.1567
   51MOL   H20716307   7.277   5.637   1.495  4.0775  1.1106  0.8341
   51MOL   H20816308   7.288   5.820   1.529  0.3175 -0.9990  0.2311
   51MOL   H20916309   7.182   5.712   1.614 -0.7746 -2.8455 -0.7878
   51MOL   C21016310   6.976   6.107   1.376  0.2396  0.9066  0.1215
   51MOL   C21116311   7.060   6.144   1.244 -0.0666  0.1734  0.6600
   51MOL   O21216312   6.978   6.131   1.131  0.1346 -0.6658 -0.5917
   51MOL   C21316313   7.027   6.060   1.015  0.1087  0.0704  0.9307
   51MOL   C21416314   6.926   5.956   0.964  0.4198  0.0356 -0.0758
   51MOL   C21516315   7.060   6.155   0.898 -0.2792 -0.7104 -0.1834
   51MOL   H21616316   7.030   6.139   1.465  1.5775  0.0582 -0.3659
   51MOL   H21716317   6.884   6.165   1.374 -0.7349 -0.6022 -0.4946
   51MOL   H21816318   7.144   6.074   1.235 -1.2238 -0.9183 -2.5252
   51MOL   H21916319   7.116   5.998   1.032  1.8458  2.8010  2.1150
   51MOL   H22016320   6.844   6.001   0.909  1.3222 -0.5909 -1.9826
   51MOL   H22116321   6.883   5.902   1.048  1.2123  0.6978  0.7661
   51MOL   H22216322   6.984   5.893   0.896 -2.1511  0.1761 -2.5081
   51MOL   H22316323   7.121   6.242   0.920 -1.7803  1.8129 -5.2561
   51MOL   H22416324   6.967   6.200   0.862 -0.8616 -2.4383 -0.9026
   51MOL   H22516325   7.103   6.108   0.810  0.2061 -0.3717 -0.1294
   51MOL   C22616326   7.114   6.287   1.244 -0.5081 -0.5319 -0.0698
   51MOL   C22716327   7.191   6.324   1.377  0.0689 -0.7119  0.3403
   51MOL   O22816328   7.251   6.448   1.353  0.0453  0.3240 -0.0589
   51MOL   C22916329   7.193   6.577   1.381  0.0793  0.0752 -0.9188
   51MOL   C23016330   7.270   6.692   1.309 -0.7924 -0.4230  0.2989
   51MOL   C23116331   7.190   6.598   1.536 -0.0278  0.2054 -0.2191
   51MOL   H23216332   7.032   6.356   1.227  1.0452  1.0041 -1.4606
   51MOL   H23316333   7.178   6.306   1.158  0.0638 -0.5217  0.3492
   51MOL   H23416334   7.117   6.337   1.456  0.4683 -1.4625  0.8412
   51MOL   H23516335   7.090   6.576   1.347  0.1715  0.1509 -1.1998
   51MOL   H23616336   7.377   6.677   1.317 -0.6836  0.3891  0.4333
   51MOL   H23716337   7.248   6.707   1.203  0.8522 -0.2056 -0.0241
   51MOL   H23816338   7.240   6.787   1.354  1.5693  1.0365 -1.0656
   51MOL   H23916339   7.138   6.513   1.581  0.7601  0.3461  0.9851
   51MOL   H24016340   7.153   6.697   1.560 -1.6981 -0.2532 -0.7981
   51MOL   H24116341   7.293   6.597   1.571 -0.3053  1.7364  0.6872
   51MOL   C24216342   7.301   6.222   1.416 -0.4955 -0.2195  0.0328
   51MOL   C24316343   7.363   6.246   1.554 -0.6167  0.3228 -0.1927
   51MOL   O24416344   7.486   6.178   1.550  0.9461  0.6527 -0.4947
   51MOL   C24516345   7.595   6.269   1.595 -0.0543 -0.0790 -0.1951
   51MOL   C24616346   7.709   6.187   1.654 -0.2077 -0.1903 -0.1602
   51MOL   C24716347   7.641   6.351   1.475 -0.5331 -0.5963 -0.6272
   51MOL   H24816348   7.275   6.117   1.408  1.6150 -0.6739 -1.4843
   51MOL   H24916349   7.378   6.236   1.339  0.8462  2.7632  1.7981
   51MOL   H25016350   7.372   6.354   1.567  3.2590 -0.0144  0.6519
   51MOL   H25116351   7.561   6.333   1.677 -0.6311  1.3304 -1.5198
   51MOL   H25216352   7.751   6.118   1.581 -2.2904 -2.8979  1.1366
   51MOL   H25316353   7.793   6.239   1.701 -0.8326  0.0824  0.6523
   51MOL   H25416354   7.671   6.121   1.732  0.0967 -0.4827 -0.2572
   51MOL   H25516355   7.720   6.419   1.507 -2.1276  0.8300  0.3953
   51MOL   H25616356   7.690   6.283   1.405 -0.7416 -0.8474 -0.5273
   51MOL   H25716357   7.557   6.412   1.441  0.0743  0.2467 -0.6567
   51MOL   C25816358   7.274   6.174   1.659 -0.8730 -0.2703  0.0602
   51MOL   C25916359   7.316   6.209   1.803  0.0027 -0.2245 -1.0171
   51MOL   O26016360   7.250   6.127   1.899  0.5566 -0.1383 -0.4675
   51MOL   C26116361   7.298   5.997   1.916 -0.5423  0.5920  0.9535
   51MOL   C26216362   7.353   5.978   2.064  0.1755 -0.0391  1.2598
   51MOL   C26316363   7.188   5.895   1.882 -0.8853 -0.7607  0.1391
   51MOL   H26416364   7.167   6.193   1.648 -1.0624 -2.4104 -2.4729
   51MOL   H26516365   7.276   6.067   1.639 -0.8067  0.4099 -3.9722
   51MOL   H26616366   7.424   6.202   1.816 -0.1623 -1.3659 -0.1379
   51MOL   H26716367   7.377   5.973   1.845  2.7843  2.8988  3.7054
   51MOL   H26816368   7.452   6.021   2.079  0.3857 -0.7757  2.0486
   51MOL   H26916369   7.362   5.873   2.092 -2.7019 -0.8303 -0.6082
   51MOL   H27016370   7.295   6.031   2.140 -0.7023  3.2508 -1.6016
   51MOL   H27116371   7.221   5.791   1.890 -1.7366 -0.9835  0.8956
   51MOL   H27216372   7.102   5.894   1.949 -0.3823  1.5807  0.8634
   51MOL   H27316373   7.145   5.915   1.785 -0.4461  1.2978  0.3486
   51MOL   C27416374   7.285   6.358   1.838 -0.5071 -0.9948 -0.4980
   51MOL   C27516375   7.328   6.405   1.978 -0.6795 -0.8229  0.1747
   51MOL   O27616376   7.462   6.452   1.978  0.3131  0.2921  0.3309
   51MOL   C27716377   7.556   6.361   2.033  0.3398 -0.7493  0.5116
   51MOL   C27816378   7.546   6.376   2.183  0.3637 -0.9221  0.6095
   51MOL   C27916379   7.694   6.397   1.970 -0.2013  0.6525 -0.3640
   51MOL   H28016380   7.338   6.424   1.770  1.1037 -0.4163  1.2732
   51MOL   H28116381   7.176   6.366   1.829 -0.7372 -2.3921  0.7378
   51MOL   H28216382   7.309   6.324   2.048 -2.5378 -0.5780 -0.0278
   51MOL   H28316383   7.540   6.253   2.022 -1.0858 -0.5701  0.7068
   51MOL   H28416384   7.453   6.342   2.228 -0.8025  2.3318  0.8049
   51MOL   H28516385   7.626   6.329   2.240  0.6223  0.1424  1.1373
   51MOL   H28616386   7.550   6.479   2.219  0.0677 -0.2726 -1.1352
   51MOL   H28716387   7.700   6.505   1.962  2.1116  0.5179 -0.6349
   51MOL   H28816388   7.714   6.354   1.872 -0.2292 -0.3518  0.0618
   51MOL   H28916389   7.777   6.358   2.029 -1.3608  2.2121  2.3663
   51MOL   C29016390   7.237   6.523   2.032  0.0089 -0.1548 -0.2499
   51MOL   C29116391   7.208   6.525   2.177  0.2392 -0.0797 -0.2616
   51MOL   O29216392   7.169   6.662   2.210  0.2385 -0.3403 -0.5965
   51MOL   C29316393   7.264   6.752   2.271 -0.5873 -0.1644  0.1865
   51MOL   C29416394   7.293   6.708   2.409 -0.5322  0.0823  0.1263
   51MOL   C29516395   7.209   6.898   2.255 -0.2383 -0.3523 -0.4306
   51MOL   H29616396   7.139   6.521   1.984 -0.2409  0.9134  0.1962
   51MOL   H29716397   7.280   6.613   1.987 -0.0137  0.5120  1.0426
   51MOL   H29816398   7.304   6.508   2.225  0.7794 -2.7901 -2.2260
   51MOL   H29916399   7.360   6.738   2.221 -0.7665  0.8915 -0.4723
   51MOL   H30016400   7.204   6.728   2.470 -0.4055  2.1890 -0.3353
   51MOL   H30116401   7.328   6.608   2.432  0.4598 -0.3292 -2.9856
   51MOL   H30216402   7.376   6.765   2.451  0.3083 -0.8050 -0.3246
   51MOL   H30316403   7.115   6.908   2.309  0.1763 -0.2783  0.2845
   51MOL   H30416404   7.278   6.971   2.299 -1.0191  1.6083 -2.3473
   51MOL   H30516405   7.211   6.931   2.151 -0.6413  0.0677 -0.3054
   51MOL   C30616406   7.105   6.428   2.230 -0.4452 -0.2291 -0.4827
   51MOL   C30716407   7.081   6.441   2.382 -0.0527  0.0860 -0.3437
   51MOL   O30816408   6.990   6.336   2.423  0.1934 -0.1971  0.6249
   51MOL   C30916409   6.956   6.321   2.561 -0.0097  0.4604 -0.2766
   51MOL   C31016410   6.832   6.388   2.595 -0.0516  0.0014 -0.4656
   51MOL   C31116411   6.955   6.172   2.592  0.3950  0.1051  0.1561
   51MOL   H31216412   7.149   6.329   2.212  2.0822  0.6035  0.8751
   51MOL   H31316413   7.013   6.440   2.173 -0.3798 -1.5231 -0.8811
   51MOL   H31416414   7.169   6.449   2.446  0.0140 -0.4219 -0.3676
   51MOL   H31516415   7.031   6.358   2.631 -1.0799  1.8788  0.1386
   51MOL   H31616416   6.825   6.491   2.561 -2.3260  0.4094  1.1465
   51MOL   H31716417   6.809   6.376   2.700  2.7028  0.9917  0.2836
   51MOL   H31816418   6.753   6.338   2.538 -0.3069 -0.8053  0.5884
   51MOL   H31916419   6.928   6.147   2.695  1.5458  3.4741  1.3590
   51MOL   H32016420   7.053   6.128   2.577  0.1809 -0.4085  0.2483
   51MOL   H32116421   6.892   6.112   2.526 -1.4465  1.8250  0.2994
   51MOL   H32216422   7.019   6.530   2.382 -2.1785 -1.3288 -2.1217
   52MOL     C116423   3.649   3.134   7.593 -0.8014 -0.4596  0.5609
   52MOL     C216424   3.712   3.144   7.736 -0.0131  0.4045  0.3864
   52MOL     O316425   3.855   3.142   7.732 -0.3205  0.2466  0.1947
   52MOL     C416426   3.918   3.019   7.689  0.3669  0.6701  0.1626
   52MOL     C516427   4.030   3.000   7.792 -0.0153  0.3804  0.7336
   52MOL     C616428   3.977   3.039   7.547 -0.0395  0.4499  0.0541
   52MOL     H716429   3.702   3.202   7.527 -0.7456 -1.7190 -0.7109
   52MOL     H816430   3.649   3.035   7.547 -0.4705 -1.0063  1.7205
   52MOL     H916431   3.669   3.061   7.791  0.7113 -0.0607  0.2521
   52MOL    H1016432   3.844   2.939   7.691  1.6882 -0.5924 -0.9392
   52MOL    H1116433   3.995   2.967   0.069  0.2487 -0.0523  0.6818
   52MOL    H1216434   4.109   2.935   7.756 -0.3793 -0.3945  1.3292
   52MOL    H1316435   4.077   3.097   7.810  0.8835 -0.0285  0.5981
   52MOL    H1416436   4.028   2.949   7.513 -0.7161 -0.5028  1.5118
   52MOL    H1516437   3.894   3.069   7.483  0.1081  0.4621 -0.1344
   52MOL    H1616438   4.048   3.122   7.547 -0.0303  0.4424 -0.2437
   52MOL    H1716439   3.544   3.163   7.589 -0.3976  1.5611  3.1687
   52MOL    C1816440   3.673   3.266   7.818 -0.1888  0.3725 -0.0945
   52MOL    C1916441   3.683   3.243   0.150 -0.2862  0.0309  0.4393
   52MOL    O2016442   3.575   3.309   0.214 -0.4183 -0.0076 -0.4703
   52MOL    C2116443   3.458   3.227   0.235  0.4202  0.0517  0.2045
   52MOL    C2216444   3.336   3.322   0.250 -0.3776 -0.1119  0.0930
   52MOL    C2316445   3.481   3.145   0.361 -0.0332  0.4219  0.1002
   52MOL    H2416446   3.720   3.360   7.787 -1.6211  0.3956 -2.3088
   52MOL    H2516447   3.569   3.287   7.793  0.2257  2.2327 -0.3753
   52MOL    H2616448   3.692   3.140   0.182 -1.1426 -0.1683  0.0588
   52MOL    H2716449   3.440   3.162   0.149  1.2661 -1.2607  0.9950
   52MOL    H2816450   3.244   3.265   0.242  0.1159 -0.7928 -0.8728
   52MOL    H2916451   3.341   3.372   0.346 -0.1942  0.8184 -0.3902
   52MOL    H3016452   3.341   3.397   0.170  0.5526 -0.7430 -0.4466
   52MOL    H3116453   3.394   3.088   0.393  1.4045 -1.7459  0.2918
   52MOL    H3216454   3.498   3.211   0.445 -2.8541  1.2430  0.0818
   52MOL    H3316455   3.555   3.067   0.340 -0.2651  0.7349 -2.0444
   52MOL    C3416456   3.821   3.304   0.201  0.2973  0.0889 -0.0020
   52MOL    C3516457   3.846   3.280   0.354 -0.5287  0.0191  0.0874
   52MOL    O3616458   3.988   3.294   0.383 -0.1668  0.3513  0.1865
   52MOL    C3716459   4.077   3.181   0.345  0.5961  0.3115  0.2388
   52MOL    C3816460   4.173   3.229   0.242  0.3418 -0.0237  0.7033
   52MOL    C3916461   4.149   3.129   0.467 -0.1889  0.3456  0.3499
   52MOL    H4016462   3.842   3.408   0.174 -1.0110  0.0236 -1.3668
   52MOL    H4116463   3.900   3.239   0.163 -0.2752 -0.2260 -0.6724
   52MOL    H4216464   3.808   3.183   0.385  0.8755  0.3241  2.8893
   52MOL    H4316465   4.019   3.098   0.305  0.8091  0.6652 -0.7974
   52MOL    H4416466   4.225   3.318   0.277  0.2392  0.5206 -0.5015
   52MOL    H4516467   4.115   3.268   0.159 -0.6916 -1.7997  0.5757
   52MOL    H4616468   4.237   3.149   0.205 -1.0068 -0.9282  0.3034
   52MOL    H4716469   4.235   3.195   0.478 -1.8721  2.7346 -0.3333
   52MOL    H4816470   4.089   3.124   0.559  1.3086 -2.2211  1.2286
   52MOL    H4916471   4.194   3.033   0.442  0.6598  0.7613  0.2911
   52MOL    C5016472   3.785   3.388   0.441  0.4518 -0.2366  0.1142
   52MOL    C5116473   3.795   3.353   0.593  0.5292 -0.7255 -0.0016
   52MOL    O5216474   3.698   3.256   0.633  0.1426  0.0956 -0.1221
   52MOL    C5316475   3.762   3.136   0.683 -0.6493 -0.2213  0.9182
   52MOL    C5416476   3.655   3.029   0.683  0.2361  0.3857  0.2385
   52MOL    C5516477   3.822   3.167   0.819 -0.2634 -0.4303 -0.4258
   52MOL    H5616478   3.826   3.487   0.423  0.5603 -0.5609 -1.4507
   52MOL    H5716479   3.680   3.407   0.419  0.9255  0.5575 -1.4697
   52MOL    H5816480   3.897   3.325   0.618  0.6519  0.0527  0.3916
   52MOL    H5916481   3.840   3.106   0.613 -2.7414 -0.7394 -1.2782
   52MOL    H6016482   3.692   2.929   0.708  1.8191  1.2308  1.3143
   52MOL    H6116483   3.604   3.026   0.586 -0.6018 -1.1280  0.7017
   52MOL    H6216484   3.569   3.048   0.747 -0.8672 -0.6377 -0.9151
   52MOL    H6316485   3.881   3.088   0.865 -0.9377 -0.4786  0.3694
   52MOL    H6416486   3.741   3.192   0.888 -2.2434  1.7773 -3.4433
   52MOL    H6516487   3.878   3.260   0.818 -0.7192 -0.0716  2.6959
   52MOL    C6616488   3.770   3.475   0.679  0.5974  0.5837  0.9427
   52MOL    C6716489   3.879   3.583   0.685  0.0018 -0.0977  0.3906
   52MOL    O6816490   3.982   3.538   0.774 -0.4763  0.2135  0.0743
   52MOL    C6916491   4.114   3.574   0.743  0.0690 -0.5294  0.0272
   52MOL    C7016492   4.199   3.526   0.857 -0.2945  0.1111 -0.2109
   52MOL    C7116493   4.162   3.502   0.611  0.0164 -0.3416  0.5535
   52MOL    H7216494   3.679   3.519   0.637 -1.6174 -2.5018  2.2852
   52MOL    H7316495   3.741   3.446   0.780 -1.0296 -0.8114  0.1125
   52MOL    H7416496   3.920   3.592   0.585  0.8584 -1.8924  0.5530
   52MOL    H7516497   4.123   3.682   0.735  0.3457 -0.3163  2.6813
   52MOL    H7616498   4.187   3.586   0.946 -0.3974 -0.3894  0.1166
   52MOL    H7716499   4.178   3.424   0.891 -3.6316  1.3453  1.6647
   52MOL    H7816500   4.307   3.537   0.845  0.1326 -1.2935  2.0341
   52MOL    H7916501   4.270   3.514   0.597  0.0453 -2.4749 -1.3025
   52MOL    H8016502   4.121   3.556   0.526  1.8762  0.1769 -0.0477
   52MOL    H8116503   4.126   3.400   0.601  0.6939 -0.5429  0.1113
   52MOL    C8216504   3.831   3.718   0.730 -0.0649 -0.9823  0.1022
   52MOL    C8316505   3.817   3.830   0.620  0.1264  0.3434  0.2305
   52MOL    O8416506   3.702   3.911   0.645 -0.6513  0.5206 -0.2522
   52MOL    C8516507   3.579   3.845   0.614  0.0335  0.1603  0.6058
   52MOL    C8616508   3.544   3.858   0.467  0.2034 -0.5679 -0.7663
   52MOL    C8716509   3.468   3.900   0.692  0.7299 -0.9912  0.4940
   52MOL    H8816510   3.736   3.696   0.780 -1.5292  0.6181 -1.8957
   52MOL    H8916511   3.883   3.754   0.818 -0.5372  0.5808 -0.2509
   52MOL    H9016512   3.808   3.785   0.521  1.6925  1.0971 -0.2753
   52MOL    H9116513   3.586   3.740   0.643 -0.0059  0.8466  3.1964
   52MOL    H9216514   3.531   3.962   0.438 -0.1739  0.1591  1.8713
   52MOL    H9316515   3.629   3.814   0.415 -0.2933 -2.6658  0.1142
   52MOL    H9416516   3.453   3.802   0.444 -0.3781  0.7190 -1.6913
   52MOL    H9516517   3.503   3.897   0.796  1.6477  0.3084  0.2322
   52MOL    H9616518   3.448   4.002   0.660  1.5488 -1.6725 -2.3342
   52MOL    H9716519   3.376   3.843   0.679 -0.1273  0.7984 -1.4286
   52MOL    C9816520   3.944   3.926   0.634  0.1802  0.1920 -0.4516
   52MOL    C9916521   3.966   4.021   0.512  0.2732  0.5195 -0.5558
   52MOL   O10016522   4.001   3.940   0.398 -0.1841  0.5751  0.0347
   52MOL   C10116523   3.901   3.909   0.304 -0.2749  0.0114  0.0079
   52MOL   C10216524   3.914   3.765   0.273 -1.1626 -0.1022  0.2639
   52MOL   C10316525   3.948   4.000   0.193 -0.1791 -0.0715  0.7018
   52MOL   H10416526   3.916   3.996   0.712 -0.0241  1.2027 -1.4202
   52MOL   H10516527   4.033   3.867   0.655  0.5801  1.2742  0.9464
   52MOL   H10616528   3.879   4.083   0.491 -0.3297 -0.3703 -0.7104
   52MOL   H10716529   3.801   3.938   0.337 -0.2412 -0.5169  0.5709
   52MOL   H10816530   4.019   3.741   0.257 -1.4427 -0.4964 -0.9580
   52MOL   H10916531   3.854   3.738   0.186 -1.1650  1.5225 -0.2550
   52MOL   H11016532   3.894   3.702   0.359  1.4022 -0.7624  0.4253
   52MOL   H11116533   3.952   4.107   0.212  0.6377  0.0142  0.0591
   52MOL   H11216534   3.891   3.988   0.101  2.6694 -0.7399 -1.0071
   52MOL   H11316535   4.048   3.969   0.166 -0.1121  1.8771 -1.4613
   52MOL   C11416536   4.083   4.118   0.519  0.7473 -0.3712  0.2883
   52MOL   C11516537   4.082   4.231   0.626 -0.5437  0.3617  0.2920
   52MOL   O11616538   4.204   4.297   0.615 -0.1090  0.0620 -0.0240
   52MOL   C11716539   4.241   4.389   0.717  0.5592 -0.0877  0.6538
   52MOL   C11816540   4.278   4.527   0.658  0.4417  0.2046 -0.7170
   52MOL   C11916541   4.371   4.322   0.772  0.2674  0.4805 -0.1287
   52MOL   H12016542   4.080   4.158   0.418  2.9148  1.0747  0.7509
   52MOL   H12116543   4.178   4.063   0.526  0.7888 -0.3289  0.0788
   52MOL   H12216544   4.076   4.183   0.723  0.1838  0.3732  0.3493
   52MOL   H12316545   4.162   4.413   0.787 -3.7378 -0.3064 -3.8341
   52MOL   H12416546   4.347   4.583   0.721 -3.4017  1.7420  2.3462
   52MOL   H12516547   4.186   4.584   0.643 -1.7771 -2.7005  1.3091
   52MOL   H12616548   4.321   4.498   0.563  2.3035 -0.5798  0.3441
   52MOL   H12716549   4.453   4.323   0.700 -0.4327 -2.8803 -1.0848
   52MOL   H12816550   4.352   4.218   0.800  2.7296  0.6560  2.4312
   52MOL   H12916551   4.404   4.365   0.866  1.3556 -1.2085  0.2981
   52MOL   C13016552   3.956   4.329   0.632 -0.1065  0.0928 -0.2779
   52MOL   C13116553   3.848   4.304   0.746  0.3284  0.1217  1.0342
   52MOL   O13216554   3.740   4.398   0.712  0.1956  0.4677  0.2060
   52MOL   C13316555   3.611   4.334   0.702 -0.1428 -0.1240  0.4794
   52MOL   C13416556   3.501   4.442   0.707 -0.0685 -0.2931 -0.8671
   52MOL   C13516557   3.612   4.248   0.580  0.3116 -0.2984  0.0888
   52MOL   H13616558   3.910   4.327   0.533  1.5945 -0.5137 -1.0804
   52MOL   H13716559   3.985   4.433   0.647 -1.6688  0.8089 -2.0460
   52MOL   H13816560   3.813   4.201   0.752  1.5559 -0.4078 -0.4047
   52MOL   H13916561   3.616   4.279   0.797 -1.3374  1.1343  1.2915
   52MOL   H14016562   3.520   4.519   0.633  1.4858 -1.5415 -1.8011
   52MOL   H14116563   3.472   4.479   0.805  0.2988 -0.7056 -0.6015
   52MOL   H14216564   3.404   4.397   0.685 -0.4280  0.1236 -0.1264
   52MOL   H14316565   3.514   4.208   0.552  0.5490 -0.1115 -1.0146
   52MOL   H14416566   3.643   4.309   0.496 -2.3691  1.2111  0.1202
   52MOL   H14516567   3.685   4.167   0.583 -1.4403 -1.8928  1.1714
   52MOL   C14616568   3.899   4.354   0.881  0.1611  0.5830 -0.0900
   52MOL   C14716569   3.801   4.340   0.998 -1.0233 -0.1550  0.8373
   52MOL   O14816570   3.801   4.198   1.014 -0.1246  0.4631 -0.5460
   52MOL   C14916571   3.685   4.150   1.087 -0.1699  0.6252  0.5582
   52MOL   C15016572   3.738   4.052   1.186  0.5603 -0.3813 -0.2503
   52MOL   C15116573   3.575   4.101   0.990  0.5324  0.9224 -0.0899
   52MOL   H15216574   3.933   4.457   0.872 -1.3418  1.1116  0.0269
   52MOL   H15316575   3.988   4.293   0.897  0.6270  1.6819  1.6060
   52MOL   H15416576   3.705   4.376   0.961 -1.3539 -1.0057  0.8569
   52MOL   H15516577   3.645   4.230   1.149 -1.1229  0.8248 -0.2904
   52MOL   H15616578   3.798   3.976   1.135 -1.0400 -0.7912 -1.5902
   52MOL   H15716579   3.647   4.005   1.222  0.0532  0.5613 -0.2946
   52MOL   H15816580   3.798   4.090   1.268 -1.4088 -1.0734  1.5627
   52MOL   H15916581   3.511   4.177   0.945 -4.9649 -1.4013  3.3686
   52MOL   H16016582   3.496   4.044   1.039  0.8626  0.8511  0.3684
   52MOL   H16116583   3.611   4.034   0.912 -1.3380  1.0994 -1.1379
   52MOL   C16216584   3.848   4.405   1.133 -0.5133  0.3034  0.0646
   52MOL   C16316585   3.842   4.564   1.126  0.1090 -0.1777  0.3657
   52MOL   O16416586   3.781   4.625   1.244  0.0736 -0.0355 -0.7805
   52MOL   C16516587   3.641   4.624   1.250 -0.0893  0.3616  0.2843
   52MOL   C16616588   3.602   4.760   1.200 -0.5917  0.6498 -0.0395
   52MOL   C16716589   3.597   4.605   1.391 -0.0519 -1.0017  0.4992
   52MOL   H16816590   3.786   4.367   1.215 -0.4735 -0.3117 -0.1877
   52MOL   H16916591   3.949   4.383   1.168 -1.9919 -0.8794  3.9039
   52MOL   H17016592   3.787   4.595   1.037 -0.1551 -0.1752  0.5280
   52MOL   H17116593   3.597   4.540   1.197  1.7591 -0.5400  0.1487
   52MOL   H17216594   3.622   4.785   1.096  2.6482  1.5588  0.7342
   52MOL   H17316595   3.650   4.839   1.258  0.9407  2.1334 -3.2486
   52MOL   H17416596   3.494   4.754   1.208 -0.7154 -1.3991 -2.5911
   52MOL   H17516597   3.490   4.587   1.396 -0.1285 -0.3747  1.1866
   52MOL   H17616598   3.612   4.696   1.449 -0.4248 -0.9910  0.5764
   52MOL   H17716599   3.644   4.517   1.435  1.5404 -2.4055 -3.7166
   52MOL   C17816600   3.992   4.627   1.115 -0.4416  0.4848 -0.2924
   52MOL   C17916601   4.009   4.775   1.086 -0.5321 -0.5822 -1.0862
   52MOL   O18016602   4.146   4.797   1.100 -1.0128 -0.0248 -0.7236
   52MOL   C18116603   4.193   4.917   1.165 -0.1882  0.1077  0.0118
   52MOL   C18216604   4.297   4.976   1.070  0.1413  0.8431  0.6735
   52MOL   C18316605   4.250   4.879   1.307  0.1273  0.2488  0.7309
   52MOL   H18416606   4.048   4.570   1.041  1.2075  2.0816 -0.3035
   52MOL   H18516607   4.037   4.601   1.211  2.5620  1.4701 -1.3852
   52MOL   H18616608   3.966   4.833   1.167 -1.5037 -0.5183 -1.6422
   52MOL   H18716609   4.106   4.982   1.174 -1.7098 -1.8692  0.0033
   52MOL   H18816610   4.318   5.076   1.107 -1.3934  1.7021 -0.7123
   52MOL   H18916611   4.257   4.975   0.969  1.5581  2.2003  0.0792
   52MOL   H19016612   4.390   4.920   1.073  2.0430  3.9459  0.9746
   52MOL   H19116613   4.166   4.878   1.376 -0.1235 -0.1871  0.4192
   52MOL   H19216614   4.299   4.954   1.368  0.3804 -1.1693  2.2951
   52MOL   H19316615   4.317   4.794   1.307 -0.0889  0.0757  0.1881
   52MOL   C19416616   3.978   4.820   0.936  0.3338  0.1775  0.7422
   52MOL   C19516617   3.863   4.923   0.919 -0.3903 -0.5577 -0.7899
   52MOL   O19616618   3.830   4.945   0.784  0.1198  0.1384 -0.3447
   52MOL   C19716619   3.720   4.872   0.719 -0.3522 -0.5665  0.2129
   52MOL   C19816620   3.683   4.937   0.587 -0.1227  1.2459 -0.3680
   52MOL   C19916621   3.726   4.725   0.697 -0.4086 -0.8327 -0.4272
   52MOL   H20016622   4.069   4.865   0.896 -0.7817  0.6035 -1.3611
   52MOL   H20116623   3.973   4.736   0.866  2.1133 -0.3348  1.2026
   52MOL   H20216624   3.777   4.887   0.975  0.3911  0.0678  0.8361
   52MOL   H20316625   3.636   4.880   0.789 -0.4195 -0.7319  0.1504
   52MOL   H20416626   3.582   4.911   0.555 -0.6613 -0.3065  2.4519
   52MOL   H20516627   3.691   5.043   0.610 -0.5879  1.4541 -1.1321
   52MOL   H20616628   3.758   4.922   0.510  0.1809 -1.4844  0.4137
   52MOL   H20716629   3.747   4.683   0.796 -0.6187 -0.0132 -0.0320
   52MOL   H20816630   3.634   4.682   0.659 -0.3998 -1.3204  0.0896
   52MOL   H20916631   3.801   4.690   0.626  3.1758  2.3571  1.5367
   52MOL   C21016632   3.890   5.056   0.990 -1.1806  0.2718  0.3080
   52MOL   C21116633   3.781   5.165   0.985  0.1530 -0.6711 -0.2290
   52MOL   O21216634   3.670   5.123   1.059 -0.5971  0.0957 -0.0415
   52MOL   C21316635   3.552   5.186   1.017  0.2457  0.6247 -0.6357
   52MOL   C21416636   3.483   5.101   0.911 -0.3267  0.0302  0.2390
   52MOL   C21516637   3.472   5.211   1.142  0.2631 -0.5127  0.2166
   52MOL   H21616638   3.980   5.104   0.953 -1.1550  0.1095  0.1599
   52MOL   H21716639   3.909   5.034   1.095 -1.5435 -1.8681 -0.0498
   52MOL   H21816640   3.748   5.168   0.881  0.0218  0.0503 -0.1741
   52MOL   H21916641   3.572   5.285   0.976 -1.3402  0.7230 -1.2070
   52MOL   H22016642   3.530   5.086   0.814  0.7104 -1.0080  0.8958
   52MOL   H22116643   3.382   5.141   0.899  0.5902  1.9220 -1.2701
   52MOL   H22216644   3.455   5.008   0.960  1.0331 -0.3848  0.2410
   52MOL   H22316645   3.405   5.297   1.128  1.5428  0.6844  1.3591
   52MOL   H22416646   3.535   5.240   1.226 -1.1151 -0.3838  1.2253
   52MOL   H22516647   3.422   5.122   1.179 -2.3115  1.2034  0.9971
   52MOL   C22616648   3.836   5.297   1.048  0.4048  0.1483 -0.3526
   52MOL   C22716649   3.802   5.420   0.952 -0.2309 -0.5123 -0.3583
   52MOL   O22816650   3.894   5.399   0.844  0.5554 -0.9117 -0.4545
   52MOL   C22916651   3.844   5.441   0.722  0.1898 -0.1799 -0.0991
   52MOL   C23016652   3.749   5.344   0.650 -0.0554  0.3250 -0.3289
   52MOL   C23116653   3.975   5.458   0.641  0.3901  0.0632 -0.1059
   52MOL   H23216654   3.942   5.297   1.071  0.6492 -2.1677 -1.3942
   52MOL   H23316655   3.786   5.306   1.145  1.0742 -1.0136  0.1068
   52MOL   H23416656   3.700   5.417   0.912 -0.6904  0.1907  0.7277
   52MOL   H23516657   3.803   5.543   0.724 -4.7326 -2.0072 -0.0805
   52MOL   H23616658   3.660   5.328   0.710  0.4098  0.1666  0.3298
   52MOL   H23716659   3.712   5.390   0.558  0.0769 -1.1294 -1.1263
   52MOL   H23816660   3.794   5.247   0.628  0.7432  0.3849  0.9808
   52MOL   H23916661   3.956   5.492   0.539 -0.3171  0.1823  0.0632
   52MOL   H24016662   4.020   5.361   0.623  1.0766  0.1530  1.0588
   52MOL   H24116663   4.049   5.519   0.693  2.8682 -0.6717 -2.6511
   52MOL   C24216664   3.822   5.551   1.026 -0.2643 -0.1626 -0.0832
   52MOL   C24316665   3.697   5.596   1.094  0.4673 -0.1244  0.7293
   52MOL   O24416666   3.619   5.661   0.993  0.0961 -0.0633 -0.4164
   52MOL   C24516667   3.493   5.603   0.967  0.1664 -0.0296  0.2039
   52MOL   C24616668   3.402   5.620   1.087  0.5897 -0.0484  0.1584
   52MOL   C24716669   3.431   5.666   0.841 -0.3129  0.1980  0.3127
   52MOL   H24816670   3.906   5.542   1.096  1.1270  1.0918 -1.5700
   52MOL   H24916671   3.853   5.631   0.960  1.1595 -0.6269  0.0100
   52MOL   H25016672   3.639   5.516   1.140 -1.3643  2.4274  2.9841
   52MOL   H25116673   3.510   5.497   0.946  1.7007 -0.6440  3.9837
   52MOL   H25216674   3.300   5.583   1.081  0.7245 -0.7868  2.3030
   52MOL   H25316675   3.447   5.584   1.179 -0.1857  1.0179  0.9700
   52MOL   H25416676   3.382   5.727   1.095 -0.8471 -0.2039 -1.0631
   52MOL   H25516677   3.510   5.685   0.769 -0.1970  0.8934  0.6191
   52MOL   H25616678   3.359   5.612   0.779  0.5196 -1.0547  0.4088
   52MOL   H25716679   3.397   5.766   0.867  0.0665  0.6677 -1.0046
   52MOL   C25816680   3.735   5.702   1.196  0.0328 -0.2845 -0.0456
   52MOL   C25916681   3.785   5.653   1.334 -0.3327  0.4705 -0.0598
   52MOL   O26016682   3.673   5.605   1.408  0.7710 -0.1141 -0.0929
   52MOL   C26116683   3.677   5.466   1.446 -0.8026  0.4248  0.0785
   52MOL   C26216684   3.775   5.455   1.558  0.6550  0.6349 -0.4819
   52MOL   C26316685   3.538   5.414   1.481  0.2882  0.3108  0.2279
   52MOL   H26416686   3.812   5.761   1.147  0.0136  0.1042  0.3900
   52MOL   H26516687   3.647   5.763   1.215 -0.1311 -0.6872  0.5231
   52MOL   H26616688   3.852   5.573   1.302 -0.6295 -0.1737  0.9002
   52MOL   H26716689   3.699   5.400   1.362 -0.2180  1.2773 -0.4469
   52MOL   H26816690   3.739   5.499   1.651  1.9782 -0.4318  0.5626
   52MOL   H26916691   3.879   5.481   1.535  0.3688  1.7587 -0.5132
   52MOL   H27016692   3.780   5.349   1.583 -1.9225  0.3201 -1.1916
   52MOL   H27116693   3.553   5.316   1.525 -1.0559  0.7613  1.7094
   52MOL   H27216694   3.502   5.471   1.567  1.5288 -0.5283  1.3172
   52MOL   H27316695   3.477   5.421   1.390  1.1360  1.1760 -0.2906
   52MOL   C27416696   3.869   5.756   1.422 -0.3770 -0.1683 -0.0387
   52MOL   C27516697   3.987   5.826   1.354  1.0115 -0.0336 -0.2138
   52MOL   O27616698   4.047   5.916   1.450 -0.8566 -0.1905  0.3238
   52MOL   C27716699   3.997   6.046   1.461 -0.5341  0.2732  0.2423
   52MOL   C27816700   4.063   6.133   1.359 -0.2565 -0.4042 -0.0717
   52MOL   C27916701   4.039   6.074   1.611  0.5163 -0.0203  0.0721
   52MOL   H28016702   3.802   5.822   1.477 -0.2870  0.4663 -0.6908
   52MOL   H28116703   3.918   5.713   1.510 -3.6604 -2.0447  0.9671
   52MOL   H28216704   3.970   5.872   1.257  1.5078  0.9109  0.1423
   52MOL   H28316705   3.888   6.039   1.450 -0.5620  1.0110  0.0337
   52MOL   H28416706   4.066   6.237   1.392  0.6535 -0.9296  1.5723
   52MOL   H28516707   4.167   6.101   1.356 -0.4306 -1.1443  1.3772
   52MOL   H28616708   4.010   6.113   1.266 -0.5803  0.5385 -0.0937
   52MOL   H28716709   3.986   6.160   1.651 -0.2865 -1.1821  1.5801
   52MOL   H28816710   4.146   6.091   1.619  0.1208  1.1046  4.2806
   52MOL   H28916711   4.008   5.992   1.676 -1.7449 -0.8911 -2.0045
   52MOL   C29016712   4.091   5.713   1.318  0.2449  0.0315 -0.0711
   52MOL   C29116713   4.233   5.754   1.282  0.2897 -0.3215 -0.2092
   52MOL   O29216714   4.305   5.631   1.261  0.0924  0.1354 -0.7889
   52MOL   C29316715   4.370   5.576   1.374 -0.0393  0.3010  0.5484
   52MOL   C29416716   4.517   5.621   1.358  0.9178 -0.3589  0.2019
   52MOL   C29516717   4.350   5.422   1.353  0.7888 -0.6261  0.5629
   52MOL   H29616718   4.047   5.658   1.235 -0.3037  0.0915  0.1762
   52MOL   H29716719   4.100   5.639   1.397 -0.8018 -1.2769 -1.1493
   52MOL   H29816720   4.278   5.800   1.371 -0.5875 -0.4148  0.2888
   52MOL   H29916721   4.331   5.602   1.473 -0.5317 -1.8407  0.9373
   52MOL   H30016722   4.518   5.719   1.404 -2.3608 -0.2632  0.1546
   52MOL   H30116723   4.585   5.559   1.417 -1.1134 -2.1220  0.7722
   52MOL   H30216724   4.549   5.615   1.254 -0.6146  0.3828 -0.3185
   52MOL   H30316725   4.242   5.410   1.367  0.8017  0.7890  2.1403
   52MOL   H30416726   4.373   5.390   1.252 -1.5617  0.8406 -0.4878
   52MOL   H30516727   4.400   5.358   1.426  0.8577 -0.8869  0.2872
   52MOL   C30616728   4.251   5.839   1.156  0.4968  0.4099 -0.0311
   52MOL   C30716729   4.214   5.769   1.025  0.3412  0.0252  0.1624
   52MOL   O30816730   4.219   5.866   0.922  0.3720  0.1737  0.2619
   52MOL   C30916731   4.200   5.816   0.788  0.1058  0.3513 -0.3260
   52MOL   C31016732   4.056   5.846   0.757 -0.4102  0.7791 -0.2696
   52MOL   C31116733   4.297   5.894   0.696 -0.1256 -0.5637  0.1879
   52MOL   H31216734   4.354   5.875   1.152 -0.4067  3.3422  1.3907
   52MOL   H31316735   4.175   5.917   1.156 -0.7507 -0.7788 -1.5946
   52MOL   H31416736   4.279   5.682   1.013  0.0661  0.0972 -2.1835
   52MOL   H31516737   4.227   5.710   0.782 -1.4711 -0.0183 -1.1625
   52MOL   H31616738   4.024   5.949   0.769 -2.6349  0.2436 -1.2929
   52MOL   H31716739   3.989   5.785   0.817 -0.2940 -1.1567 -2.0103
   52MOL   H31816740   4.029   5.811   0.657  1.5915 -1.1540 -0.1758
   52MOL   H31916741   4.276   5.853   0.597 -0.0379 -0.3886  0.0975
   52MOL   H32016742   4.403   5.885   0.720 -0.0628 -1.0940 -0.2577
   52MOL   H32116743   4.276   6.000   0.689 -3.1378 -1.1278 -0.0597
   52MOL   H32216744   4.109   5.740   1.033  0.0398  1.1074  0.1626
   53MOL     C116745   1.419   1.607   1.485 -0.0756 -0.6024 -0.5641
   53MOL     C216746   1.483   1.749   1.504 -0.7814 -0.2801 -1.0517
   53MOL     O316747   1.496   1.827   1.389 -0.4296  0.3657 -0.0618
   53MOL     C416748   1.611   1.808   1.303  0.3132 -0.0660  0.1965
   53MOL     C516749   1.724   1.876   1.368 -0.4761  0.1378  0.4831
   53MOL     C616750   1.572   1.874   1.168 -0.1873 -0.2338  0.1024
   53MOL     H716751   1.335   1.617   1.416  0.1169  0.3038 -0.6686
   53MOL     H816752   1.488   1.542   1.432  1.8920  0.4919  0.6012
   53MOL     H916753   1.573   1.733   1.563 -1.1178 -1.2460 -0.8031
   53MOL    H1016754   1.640   1.706   1.277 -0.2230 -0.1140 -0.2145
   53MOL    H1116755   1.820   1.868   1.317 -1.6109 -0.7912 -1.6012
   53MOL    H1216756   1.709   1.982   1.384 -0.8828  0.4128 -1.5796
   53MOL    H1316757   1.740   1.834   1.468  2.1587  0.7314  0.3606
   53MOL    H1416758   1.657   1.845   1.106  2.0727  1.8863  2.0595
   53MOL    H1516759   1.487   1.828   1.119  0.7980 -2.1231  0.1231
   53MOL    H1616760   1.551   1.981   1.170  2.2222  0.2521  1.3463
   53MOL    H1716761   1.402   1.566   1.585 -2.8759  2.1187  0.1465
   53MOL    C1816762   1.386   1.834   1.593 -0.6057  0.4129  0.2696
   53MOL    C1916763   1.438   1.962   1.649 -0.7205  0.7203  0.2730
   53MOL    O2016764   1.508   1.944   1.766 -1.0795  0.5275  0.3626
   53MOL    C2116765   1.646   1.984   1.772  0.4790  0.3154  0.4216
   53MOL    C2216766   1.710   1.907   1.885  0.3221 -0.8791 -0.2604
   53MOL    C2316767   1.657   2.134   1.782  0.3304 -0.0530 -0.3149
   53MOL    H2416768   1.302   1.862   1.528 -0.0596  1.5940  0.0679
   53MOL    H2516769   1.342   1.785   1.680  1.1491  0.3006  1.1203
   53MOL    H2616770   1.501   2.002   1.570 -0.2298 -0.8933 -0.1758
   53MOL    H2716771   1.703   1.952   1.685  0.8539  0.2933  0.6752
   53MOL    H2816772   1.806   1.947   1.917  0.4212  0.5782 -2.2543
   53MOL    H2916773   1.645   1.903   1.972  0.1171 -1.8076 -0.4485
   53MOL    H3016774   1.733   1.804   1.856 -1.2381 -1.2398 -0.2431
   53MOL    H3116775   1.619   2.170   1.877  1.0759 -1.0137  0.3604
   53MOL    H3216776   1.616   2.189   1.697  0.2719 -0.0509 -0.2850
   53MOL    H3316777   1.761   2.167   1.793 -0.8277  3.2326  1.3644
   53MOL    C3416778   1.320   2.061   1.688 -0.5958  0.6229 -0.7116
   53MOL    C3516779   1.271   2.164   1.583  0.6849 -0.6654 -0.4228
   53MOL    O3616780   1.130   2.152   1.587  0.4042  0.3467 -0.2129
   53MOL    C3716781   1.060   2.076   1.491  0.2557 -0.0868  0.4207
   53MOL    C3816782   0.932   2.024   1.550  0.1256 -0.2991 -0.3250
   53MOL    C3916783   1.042   2.161   1.364 -0.6184  0.1052 -0.6206
   53MOL    H4016784   1.325   2.105   1.787  1.0676  0.7372 -0.8312
   53MOL    H4116785   1.235   1.995   1.695  0.3149 -0.3478  1.3229
   53MOL    H4216786   1.298   2.149   1.478 -0.8389  2.5331 -1.3182
   53MOL    H4316787   1.125   1.993   1.462 -1.3965 -0.4019 -2.5391
   53MOL    H4416788   0.863   2.106   1.566  1.4429  0.9863 -1.1434
   53MOL    H4516789   0.940   1.984   1.651  1.0236 -0.2721 -0.3765
   53MOL    H4616790   0.874   1.954   1.489 -2.0955  0.0824  1.2941
   53MOL    H4716791   0.997   2.102   1.284 -1.6909  1.1475 -0.7901
   53MOL    H4816792   0.981   2.251   1.367  1.5050  1.5177  1.9976
   53MOL    H4916793   1.140   2.179   1.320 -0.8327  0.7463 -0.8439
   53MOL    C5016794   1.299   2.311   1.625  0.2276 -0.2621  0.1071
   53MOL    C5116795   1.382   2.389   1.524 -0.3464  0.0598 -0.0973
   53MOL    O5216796   1.504   2.323   1.492 -0.2042 -0.2814 -0.3555
   53MOL    C5316797   1.548   2.335   1.358  0.4293  0.5662 -0.3892
   53MOL    C5416798   1.495   2.213   1.284  0.6674 -0.8686  0.3597
   53MOL    C5516799   1.699   2.337   1.385  0.0122 -0.2100  0.0387
   53MOL    H5616800   1.202   2.357   1.644  1.6091  3.0311 -0.4186
   53MOL    H5716801   1.356   2.322   1.718  2.0132 -1.5397 -0.7932
   53MOL    H5816802   1.322   2.391   1.433 -0.7791 -2.2416  0.1107
   53MOL    H5916803   1.527   2.423   1.297 -1.4520 -0.2983 -1.0443
   53MOL    H6016804   1.530   2.132   1.348  1.9408 -0.3667  0.3234
   53MOL    H6116805   1.542   2.211   1.185 -0.5919  0.9877 -0.3082
   53MOL    H6216806   1.386   2.217   1.280  0.6869 -1.0303 -0.7078
   53MOL    H6316807   1.727   2.408   1.462 -0.6890  0.2785 -0.1497
   53MOL    H6416808   1.749   2.371   1.294  0.0232  0.9350  0.4700
   53MOL    H6516809   1.731   2.236   1.410 -0.9556 -0.6368 -0.4069
   53MOL    C6616810   1.406   2.537   1.560  0.5806  1.1390  0.6660
   53MOL    C6716811   1.278   2.632   1.566  0.2503  0.0405  0.3053
   53MOL    O6816812   1.259   2.676   1.428 -0.0601 -0.6166  0.1862
   53MOL    C6916813   1.128   2.684   1.369  0.1525  0.1828 -0.4347
   53MOL    C7016814   1.131   2.773   1.245  0.0410  0.0546 -0.1057
   53MOL    C7116815   1.080   2.540   1.334  0.5856 -0.2442 -0.2798
   53MOL    H7216816   1.441   2.541   1.663 -0.6724  0.2399  1.1415
   53MOL    H7316817   1.489   2.576   1.501 -0.2525  0.2834 -1.1144
   53MOL    H7416818   1.190   2.586   1.611  0.7048 -0.3913  0.7699
   53MOL    H7516819   1.056   2.729   1.436  0.2938 -1.2156  0.6791
   53MOL    H7616820   1.034   2.766   1.195  0.1792 -0.9191 -0.2391
   53MOL    H7716821   1.149   2.877   1.272  0.8986 -0.2013  0.3180
   53MOL    H7816822   1.206   2.753   1.169 -1.0320  0.0550 -1.1936
   53MOL    H7916823   0.979   2.532   1.293 -0.2096  0.3595  1.4793
   53MOL    H8016824   1.068   2.476   1.422  1.9033  0.0755  0.1382
   53MOL    H8116825   1.153   2.502   1.263 -0.7371 -1.3689 -1.0735
   53MOL    C8216826   1.307   2.761   1.644 -0.4512 -0.5953  0.3039
   53MOL    C8316827   1.283   2.749   1.797  0.5437  0.2559 -0.4718
   53MOL    O8416828   1.388   2.682   1.857  0.3552  0.2111  0.4015
   53MOL    C8516829   1.372   2.619   1.982  0.8995 -0.1722  0.7609
   53MOL    C8616830   1.512   2.583   2.015 -0.0091 -0.1582 -0.3679
   53MOL    C8716831   1.287   2.493   1.963 -0.7717 -0.8180 -0.0099
   53MOL    H8816832   1.405   2.805   1.624  0.6503 -3.2985 -0.4154
   53MOL    H8916833   1.226   2.827   1.612 -1.3071 -0.1450  3.2828
   53MOL    H9016834   1.186   2.704   1.818  1.4581 -1.0128  1.1235
   53MOL    H9116835   1.325   2.686   2.055  1.0350  0.3344  0.3868
   53MOL    H9216836   1.570   2.668   2.052 -1.5751 -0.4286  2.8466
   53MOL    H9316837   1.513   2.512   2.097  0.1487  0.1346 -0.1175
   53MOL    H9416838   1.567   2.543   1.929 -0.3871  0.2883 -0.8221
   53MOL    H9516839   1.296   2.440   2.058 -0.3266 -1.0377 -0.1765
   53MOL    H9616840   1.186   2.501   1.922  0.3007 -2.6723 -3.1052
   53MOL    H9716841   1.333   2.424   1.893 -3.1949  0.5890 -3.1374
   53MOL    C9816842   1.284   2.886   1.874 -0.3993  0.2228  0.0686
   53MOL    C9916843   1.164   2.985   1.840 -0.1117  0.2729 -0.0378
   53MOL   O10016844   1.177   3.099   1.926  0.2904 -0.7859 -0.1214
   53MOL   C10116845   1.260   3.209   1.893 -0.3378  0.1096 -0.6537
   53MOL   C10216846   1.330   3.239   2.021 -0.1761  1.0103 -0.2945
   53MOL   C10316847   1.176   3.332   1.861 -0.7839  0.4985 -0.0113
   53MOL   H10416848   1.276   2.869   1.981 -2.2091 -0.0396 -0.0850
   53MOL   H10516849   1.373   2.946   1.855 -0.8289  1.4260  1.7601
   53MOL   H10616850   1.171   3.014   1.735 -1.1457 -0.9475 -0.4579
   53MOL   H10716851   1.329   3.187   1.812  0.4856 -0.4058  0.1672
   53MOL   H10816852   1.253   3.268   2.092  0.0576 -0.1702  0.4511
   53MOL   H10916853   1.399   3.323   2.019  1.4766 -0.3271 -0.8931
   53MOL   H11016854   1.381   3.149   2.057  0.1681  1.6150  0.7515
   53MOL   H11116855   1.146   3.330   1.756 -0.6892 -1.4143 -0.0121
   53MOL   H11216856   1.225   3.428   1.880  1.8229 -0.6746 -0.6328
   53MOL   H11316857   1.084   3.334   1.920 -0.5624  0.3432  0.3394
   53MOL   C11416858   1.028   2.917   1.868  0.2032  1.0423 -0.5307
   53MOL   C11516859   0.888   2.999   1.870 -0.2696  0.0390 -0.7519
   53MOL   O11616860   0.836   3.024   1.736 -0.2780 -0.5156 -0.2737
   53MOL   C11716861   0.883   3.143   1.673  0.0328 -0.0204 -0.1798
   53MOL   C11816862   0.809   3.265   1.729  0.0870  0.6502  0.1644
   53MOL   C11916863   0.850   3.131   1.524 -0.2304 -0.4557 -0.0873
   53MOL   H12016864   1.036   2.870   1.965  1.1715 -0.5231 -1.3557
   53MOL   H12116865   1.024   2.833   1.799  0.5498  0.7413 -0.1875
   53MOL   H12216866   0.889   3.100   1.913 -1.1658  0.0073 -0.6571
   53MOL   H12316867   0.990   3.145   1.690 -0.0406  1.4681  0.1822
   53MOL   H12416868   0.705   3.247   1.753  0.1154  2.0119  1.3819
   53MOL   H12516869   0.808   3.345   1.655 -2.6825  0.3204 -0.1956
   53MOL   H12616870   0.852   3.301   1.823  0.9789 -0.0850  0.0458
   53MOL   H12716871   0.743   3.118   1.507 -0.3905  0.8645 -0.1301
   53MOL   H12816872   0.916   3.051   1.490  3.1150  0.9455  2.8548
   53MOL   H12916873   0.885   3.224   1.481  0.0931 -0.0946  0.9485
   53MOL   C13016874   0.783   2.929   1.958  0.1631 -0.1146  0.2607
   53MOL   C13116875   0.798   2.962   2.108 -0.3927 -0.4347  0.4925
   53MOL   O13216876   0.731   2.867   2.193 -0.2667 -0.5216  0.0391
   53MOL   C13316877   0.791   2.738   2.221 -0.3100 -0.1657 -0.3230
   53MOL   C13416878   0.887   2.752   2.334 -0.1191 -0.2458 -0.1616
   53MOL   C13516879   0.678   2.640   2.263 -0.2789 -0.1881 -0.1209
   53MOL   H13616880   0.792   2.825   1.928 -2.8038 -0.4577  0.3611
   53MOL   H13716881   0.683   2.961   1.929 -1.8580 -1.8112  4.8415
   53MOL   H13816882   0.905   2.970   2.127 -0.5601  2.6255  0.4201
   53MOL   H13916883   0.831   2.694   2.130  0.8493  3.5655 -1.7153
   53MOL   H14016884   0.936   2.658   2.362  4.2213  1.9056 -0.0915
   53MOL   H14116885   0.831   2.774   2.425 -1.3121  1.6030 -1.3150
   53MOL   H14216886   0.957   2.835   2.327 -0.9902  0.5058 -0.0561
   53MOL   H14316887   0.595   2.647   2.192  0.9650 -3.9277 -2.0652
   53MOL   H14416888   0.709   2.536   2.263 -0.1301 -0.1422  0.0490
   53MOL   H14516889   0.656   2.668   2.366  1.5163 -0.0414  0.2391
   53MOL   C14616890   0.756   3.106   2.144 -0.3826  0.6856  0.0053
   53MOL   C14716891   0.823   3.172   2.269 -0.0139  0.4890 -0.2839
   53MOL   O14816892   0.802   3.312   2.277 -0.5736 -0.6951  0.0406
   53MOL   C14916893   0.847   3.391   2.159 -0.6960 -0.1134  0.2629
   53MOL   C15016894   0.949   3.496   2.229  0.1451 -0.2789  0.1548
   53MOL   C15116895   0.725   3.458   2.085 -0.5877 -0.0839  0.2174
   53MOL   H15216896   0.650   3.095   2.167 -0.2144  0.8282  0.8837
   53MOL   H15316897   0.751   3.170   2.056  1.5729  1.2177  0.2631
   53MOL   H15416898   0.931   3.163   2.253 -0.0188  0.2632 -0.1811
   53MOL   H15516899   0.906   3.333   2.088  0.4125 -0.1735  1.2224
   53MOL   H15616900   0.975   3.557   2.142 -0.1853 -0.6447 -0.1997
   53MOL   H15716901   1.025   3.447   2.290  1.0683  0.9362  0.0109
   53MOL   H15816902   0.891   3.553   2.302 -0.3516  0.7359 -1.0180
   53MOL   H15916903   0.757   3.528   2.007 -1.4378  0.6115  0.4882
   53MOL   H16016904   0.658   3.510   2.153 -0.7108  1.3611 -0.9560
   53MOL   H16116905   0.673   3.378   2.032  0.3314 -0.4611 -0.1243
   53MOL   C16216906   0.776   3.105   2.397 -0.7592  0.3477 -0.1370
   53MOL   C16316907   0.829   3.166   2.530 -0.0536  0.3719  0.8350
   53MOL   O16416908   0.804   3.087   2.647 -0.0595 -0.1597 -0.2365
   53MOL   C16516909   0.664   3.084   2.688  0.3630  0.2982 -0.0706
   53MOL   C16616910   0.626   3.207   2.770 -0.3944  0.0158  0.0754
   53MOL   C16716911   0.644   2.952   2.760  0.7855 -0.4647 -0.3893
   53MOL   H16816912   0.668   3.101   2.404 -0.6626  0.4887  1.4992
   53MOL   H16916913   0.810   3.001   2.395 -1.4038  0.1170  0.7413
   53MOL   H17016914   0.797   3.270   2.535 -1.9111 -0.1908  0.8975
   53MOL   H17116915   0.591   3.080   2.607  0.5059  0.0611 -0.1870
   53MOL   H17216916   0.656   3.202   2.875 -1.5830 -0.3475  0.4108
   53MOL   H17316917   0.518   3.219   2.776 -0.5002 -1.5281  1.5224
   53MOL   H17416918   0.672   3.294   2.724 -0.3686  0.2065  0.4592
   53MOL   H17516919   0.560   2.949   2.829  0.1864  2.6145 -0.9133
   53MOL   H17616920   0.736   2.934   2.817  0.0536  1.4697  1.4536
   53MOL   H17716921   0.623   2.876   2.686 -2.1204  0.3073 -0.4209
   53MOL   C17816922   0.985   3.178   2.522 -0.3829 -0.2486 -0.4382
   53MOL   C17916923   1.052   3.232   2.648 -0.0446  0.5661  0.5633
   53MOL   O18016924   1.182   3.184   2.632  0.5275  0.0563 -0.4203
   53MOL   C18116925   1.265   3.140   2.733  1.0138  0.9111  0.2278
   53MOL   C18216926   1.396   3.223   2.733  0.5053  0.7783  0.1354
   53MOL   C18316927   1.292   2.988   2.737  0.3163 -0.3447  0.0879
   53MOL   H18416928   1.016   3.247   2.444 -1.8813  0.1809 -0.6673
   53MOL   H18516929   1.024   3.077   2.509 -1.2050 -0.4102 -1.6970
   53MOL   H18616930   1.005   3.194   2.739  1.0150 -1.1875  0.3918
   53MOL   H18716931   1.220   3.177   2.825  1.2339  3.7355 -0.7557
   53MOL   H18816932   1.468   3.201   2.812 -0.3294  0.9070  0.9457
   53MOL   H18916933   1.369   3.328   2.738  1.2513  0.9473  0.8107
   53MOL   H19016934   1.456   3.225   2.642  0.4940  1.3182  0.1377
   53MOL   H19116935   1.364   2.960   2.814 -0.8765 -0.4711  1.1798
   53MOL   H19216936   1.325   2.959   2.637 -1.0769  2.0277 -1.0966
   53MOL   H19316937   1.199   2.935   2.756  0.1064  0.0763  0.2533
   53MOL   C19416938   1.063   3.388   2.648 -0.2065  0.7157  0.2473
   53MOL   C19516939   0.959   3.463   2.737 -0.6103  0.1084 -0.7293
   53MOL   O19616940   0.960   3.600   2.697 -0.0237  0.5969  0.5017
   53MOL   C19716941   0.886   3.623   2.579  0.2591  0.2116  0.0338
   53MOL   C19816942   0.760   3.703   2.610 -0.1244 -0.0285 -0.0845
   53MOL   C19916943   0.980   3.714   2.503  0.0993 -0.2357 -0.5572
   53MOL   H20016944   1.163   3.412   2.685 -0.5764  0.4517  1.4510
   53MOL   H20116945   1.066   3.425   2.546 -0.2116  1.6705  0.5860
   53MOL   H20216946   0.860   3.424   2.714 -0.8316  0.7919 -0.9290
   53MOL   H20316947   0.872   3.534   2.518 -0.2299 -0.0491  0.5183
   53MOL   H20416948   0.780   3.792   2.670 -0.6179  1.7622 -2.4877
   53MOL   H20516949   0.712   3.740   2.519 -1.6879 -0.8255  0.4015
   53MOL   H20616950   0.683   3.646   2.663 -0.6281  0.3729 -0.3757
   53MOL   H20716951   0.988   3.808   2.558 -0.8145 -0.0475 -0.7374
   53MOL   H20816952   1.071   3.655   2.488  1.6019  1.8069  0.3354
   53MOL   H20916953   0.938   3.750   2.409 -3.9832  0.3733  1.4305
   53MOL   C21016954   0.985   3.474   2.890  0.1730 -0.6832 -0.0183
   53MOL   C21116955   0.856   3.496   2.977 -0.4373 -0.0497 -0.0905
   53MOL   O21216956   0.904   3.497   3.115  0.3335  0.0686 -0.4522
   53MOL   C21316957   0.919   3.375   3.194 -0.3637 -0.0839 -0.3727
   53MOL   C21416958   0.961   3.408   3.339 -0.3915 -0.0795  0.1860
   53MOL   C21516959   0.785   3.310   3.210  0.5186  0.6298  0.4587
   53MOL   H21616960   1.064   3.546   2.912 -0.9871  0.7956 -0.5824
   53MOL   H21716961   1.022   3.375   2.916 -0.7685 -1.4438 -1.4599
   53MOL   H21816962   0.778   3.419   2.969  1.8542 -2.5725  0.9681
   53MOL   H21916963   0.982   3.315   3.129 -1.0255  0.7458 -1.7866
   53MOL   H22016964   1.056   3.461   3.335 -0.1078 -0.6248 -0.2920
   53MOL   H22116965   0.971   3.317   3.399  2.7416  1.5021  2.2399
   53MOL   H22216966   0.896   3.474   3.395 -2.3786 -2.9419  1.3882
   53MOL   H22316967   0.782   3.231   3.284 -0.9256 -1.4487 -1.7252
   53MOL   H22416968   0.743   3.277   3.115  2.7253  0.5402 -0.5142
   53MOL   H22516969   0.713   3.380   3.252 -1.7828 -0.2141 -1.9091
   53MOL   C22616970   0.794   3.631   2.968  0.8159  0.5202  0.4339
   53MOL   C22716971   0.675   3.657   3.070  0.5490  0.2678 -0.3917
   53MOL   O22816972   0.569   3.729   3.006 -0.5898  0.1714  0.3357
   53MOL   C22916973   0.491   3.657   2.913  0.1359 -0.7868 -0.5111
   53MOL   C23016974   0.438   3.769   2.822 -0.9019 -0.2619 -0.2744
   53MOL   C23116975   0.376   3.610   3.005 -0.3876 -0.4567 -0.1874
   53MOL   H23216976   0.758   3.648   2.866  1.1624 -0.3558  0.1632
   53MOL   H23316977   0.867   3.711   2.979  1.9937 -0.6410  1.2087
   53MOL   H23416978   0.639   3.561   3.107 -0.6728  1.3176  1.2357
   53MOL   H23516979   0.547   3.578   2.864  4.5029  3.1585 -2.2637
   53MOL   H23616980   0.346   3.809   2.866 -0.2935  0.2206  0.5812
   53MOL   H23716981   0.515   3.845   2.805  0.2549 -1.6133 -1.2084
   53MOL   H23816982   0.384   3.731   2.735  0.7101  2.3013 -2.4934
   53MOL   H23916983   0.344   3.692   3.070 -1.0535 -1.5900  0.9291
   53MOL   H24016984   0.418   3.535   3.071 -2.2735 -1.6844 -0.3453
   53MOL   H24116985   0.294   3.570   2.946 -1.3652  2.7985 -1.1711
   53MOL   C24216986   0.727   3.744   3.191  0.6354  0.2252  0.1086
   53MOL   C24316987   0.618   3.774   3.302 -0.1543 -0.4665  0.4875
   53MOL   O24416988   0.684   3.865   3.393  0.3134 -0.5049 -0.3851
   53MOL   C24516989   0.688   4.006   3.349  0.1595 -0.4379  0.8268
   53MOL   C24616990   0.584   4.088   3.425  0.2516 -0.0332  0.0544
   53MOL   C24716991   0.826   4.067   3.389  0.1047  0.2923 -0.0636
   53MOL   H24816992   0.809   3.693   3.241 -1.1597 -1.7265  1.1329
   53MOL   H24916993   0.777   3.832   3.150  0.4468  0.6751  0.8380
   53MOL   H25016994   0.531   3.823   3.257 -0.0740 -0.7453  0.0255
   53MOL   H25116995   0.674   4.008   3.241 -0.1898 -0.3745  0.8743
   53MOL   H25216996   0.605   4.076   3.531  1.9005 -0.1717 -0.2889
   53MOL   H25316997   0.601   4.189   3.386 -0.3866  0.0318 -0.0771
   53MOL   H25416998   0.480   4.062   3.405 -0.1957  1.2103  0.6858
   53MOL   H25516999   0.840   4.075   3.497 -0.7781 -0.1695  0.0960
   53MOL   H25617000   0.904   4.000   3.352 -1.3811  0.2424 -3.2372
   53MOL   H25717001   0.837   4.161   3.336 -1.9793 -0.4764 -1.9260
   53MOL   C25817002   0.580   3.648   3.381  0.3516  0.6343 -0.2113
   53MOL   C25917003   0.493   3.659   3.509  0.1996  0.5271  0.5742
   53MOL   O26017004   0.461   3.538   3.569  0.0920 -0.2863 -0.1171
   53MOL   C26117005   0.543   3.424   3.568 -0.1497  0.1451  0.2227
   53MOL   C26217006   0.682   3.438   3.638 -0.0137  0.4352 -0.2299
   53MOL   C26317007   0.464   3.320   3.649 -0.3535 -0.1043 -0.2418
   53MOL   H26417008   0.527   3.577   3.317 -2.6055  0.8699  1.8759
   53MOL   H26517009   0.671   3.596   3.411 -0.6440  0.2271  2.2185
   53MOL   H26617010   0.560   3.708   3.580  2.4876 -1.2891 -0.2706
   53MOL   H26717011   0.553   3.400   3.463  0.9515 -0.0327  0.3608
   53MOL   H26817012   0.744   3.351   3.617  0.1512  0.2575  0.9223
   53MOL   H26917013   0.672   3.440   3.747  1.8907 -1.0802  0.0121
   53MOL   H27017014   0.745   3.523   3.610  0.4155  0.0497 -0.4342
   53MOL   H27117015   0.496   3.217   3.634 -0.5504 -0.1009 -0.6737
   53MOL   H27217016   0.468   3.328   3.758 -1.7855 -2.4386  0.0297
   53MOL   H27317017   0.357   3.330   3.634 -0.3751  1.7420  0.9511
   53MOL   C27417018   0.358   3.731   3.498  0.1554 -0.0269 -0.5140
   53MOL   C27517019   0.316   3.793   3.632  0.6651  0.0349  0.2199
   53MOL   O27617020   0.406   3.899   3.662  0.2730 -0.2077 -0.1130
   53MOL   C27717021   0.457   3.915   3.794 -1.3346 -0.5467 -0.1933
   53MOL   C27817022   0.482   4.064   3.809 -0.5349  0.1462 -0.0501
   53MOL   C27917023   0.583   3.826   3.817 -0.1772 -0.0146 -0.6355
   53MOL   H28017024   0.368   3.818   3.433  1.0493  0.6782  0.5456
   53MOL   H28117025   0.276   3.664   3.472  1.0757 -2.2167  2.0138
   53MOL   H28217026   0.326   3.714   3.705  3.4692  1.1083  1.0695
   53MOL   H28317027   0.383   3.877   3.864 -2.6109  0.9399 -0.6969
   53MOL   H28417028   0.386   4.116   3.820 -1.5290 -2.0654  2.2339
   53MOL   H28517029   0.526   4.079   3.907  0.7033 -1.7281 -0.3039
   53MOL   H28617030   0.534   4.118   3.730 -0.5059 -0.1033 -0.2052
   53MOL   H28717031   0.620   3.849   3.917 -0.3145 -0.2063 -0.5433
   53MOL   H28817032   0.663   3.834   3.742  0.6378 -0.4551  0.1779
   53MOL   H28917033   0.568   3.719   3.808  0.0553 -0.0289 -0.8597
   53MOL   C29017034   0.170   3.847   3.637 -0.2961 -0.3194  0.6560
   53MOL   C29117035   0.140   3.965   3.537 -0.2928 -0.0764  0.2393
   53MOL   O29217036   0.108   3.912   3.414 -0.7611  0.0355 -0.1552
   53MOL   C29317037   0.109   4.007   3.306 -0.1022  0.3022  0.2592
   53MOL   C29417038   7.785   3.997   3.245  0.2058 -0.4294  0.2892
   53MOL   C29517039   0.207   3.934   3.217 -0.0307 -0.1514  0.1404
   53MOL   H29617040   0.147   3.868   3.741  2.7174  0.6686  1.1494
   53MOL   H29717041   0.098   3.769   3.610  0.4472 -0.2580 -1.6640
   53MOL   H29817042   0.228   4.028   3.538 -0.6776  0.4702  1.9325
   53MOL   H29917043   0.135   4.107   3.340  1.4807 -0.4319  1.3185
   53MOL   H30017044   7.783   4.033   3.142  0.6395 -1.1047  0.0437
   53MOL   H30117045   7.751   3.894   3.247  1.8457 -0.9896  0.4277
   53MOL   H30217046   7.711   4.045   3.309  0.6706 -1.2762  1.4797
   53MOL   H30317047   0.212   3.825   3.228  0.1810 -0.1232  0.3277
   53MOL   H30417048   0.189   3.962   3.113  1.0894 -0.3510 -0.1154
   53MOL   H30517049   0.311   3.956   3.243 -0.7478 -1.3035  4.4522
   53MOL   C30617050   0.011   4.042   3.590 -0.0593  0.1144 -0.6437
   53MOL   C30717051   0.041   4.140   3.701  0.0606  0.5226 -0.9039
   53MOL   O30817052   7.744   4.194   3.749  0.4448 -0.1506  0.0718
   53MOL   C30917053   7.769   4.298   3.855  0.3993 -0.4279 -0.6517
   53MOL   C31017054   7.650   4.391   3.852  0.2204 -0.8370 -0.3020
   53MOL   C31117055   7.780   4.234   3.994  0.0044 -0.7606 -0.0564
   53MOL   H31217056   7.755   3.978   3.632 -0.0248  1.5056  1.5893
   53MOL   H31317057   7.779   4.096   3.511 -0.8244 -1.1639 -1.0284
   53MOL   H31417058   0.102   4.100   3.782 -0.9518  1.2151  0.2110
   53MOL   H31517059   0.038   4.354   3.828  1.3899 -1.4336  0.4529
   53MOL   H31617060   7.671   4.475   3.918 -0.0721  0.1947 -1.5038
   53MOL   H31717061   7.562   4.339   3.889 -0.4078 -0.0814 -0.7142
   53MOL   H31817062   7.630   4.433   3.753  0.8526  0.9883  0.3212
   53MOL   H31917063   7.804   4.307   4.072  1.1762  0.3256 -1.4085
   53MOL   H32017064   0.042   4.163   3.992 -0.1242 -0.8743 -3.0834
   53MOL   H32117065   7.694   4.175   4.025 -0.1752 -0.3899  0.1579
   53MOL   H32217066   0.103   4.219   3.658  1.6251 -0.6885 -0.9187
   54MOL     C117067   1.317   7.558   4.545 -0.0827  0.7874  0.3403
   54MOL     C217068   1.190   7.609   4.614 -0.3152 -0.5994 -0.4140
   54MOL     O317069   1.215   7.705   4.706 -0.5261 -0.4598  0.2811
   54MOL     C417070   1.233   7.677   4.842  0.0324  0.2445  0.5241
   54MOL     C517071   1.110   7.723   4.914  0.4292  0.9026  0.6384
   54MOL     C617072   1.356   7.753   4.876 -0.0084  0.1873 -0.0117
   54MOL     H717073   1.289   7.468   4.490 -0.6061 -0.0569  1.9652
   54MOL     H817074   1.358   7.630   4.474  0.5091 -1.2675 -1.4968
   54MOL     H917075   1.142   7.524   4.662  0.7455 -0.5774  0.7041
   54MOL    H1017076   1.249   7.569   4.853 -1.7240 -0.2691 -1.6129
   54MOL    H1117077   1.024   7.686   4.859  1.2840  0.5400 -0.4673
   54MOL    H1217078   1.102   7.691   5.018 -2.4710 -3.7079 -0.8441
   54MOL    H1317079   1.089   0.009   4.920 -2.1317  0.5064 -0.7169
   54MOL    H1417080   1.437   7.718   4.811 -2.7106 -0.5792 -3.0892
   54MOL    H1517081   1.358   0.042   4.878 -1.0346  0.1942  0.6049
   54MOL    H1617082   1.401   7.725   4.971  1.2141 -1.4489 -1.0471
   54MOL    H1717083   1.389   7.533   4.623  1.0876 -0.1349 -1.0066
   54MOL    C1817084   1.091   7.674   4.513 -0.2495 -0.1257  0.1461
   54MOL    C1917085   1.039   7.587   4.404  0.3298  0.9287  0.1495
   54MOL    O2017086   0.963   7.668   4.318 -0.6189 -0.0260 -0.0437
   54MOL    C2117087   1.034   7.709   4.204 -0.1123 -0.7361 -0.2151
   54MOL    C2217088   1.011   0.043   4.191  0.2156 -0.1171 -0.0245
   54MOL    C2317089   0.998   7.641   4.070 -0.1194 -0.1250  0.1534
   54MOL    H2417090   1.007   7.715   4.569  0.2673  0.8622  0.2192
   54MOL    H2517091   1.144   7.758   4.467  2.0361 -1.3541  0.4433
   54MOL    H2617092   1.120   7.543   4.344 -1.0059 -0.4468 -0.6825
   54MOL    H2717093   1.142   7.695   4.203  0.2544  1.6899 -1.5442
   54MOL    H2817094   0.907   0.075   4.189  0.6768  1.5774  1.3711
   54MOL    H2917095   1.041   0.108   4.273  0.2011 -0.5605  0.3339
   54MOL    H3017096   1.069   0.091   4.112  0.9334  2.8511  2.1930
   54MOL    H3117097   1.034   7.691   3.980  0.8588  1.8961  1.6397
   54MOL    H3217098   0.890   7.629   4.079 -0.3075  0.7252 -0.8628
   54MOL    H3317099   1.041   7.542   4.058 -0.8795 -0.4027 -0.3367
   54MOL    C3417100   0.940   7.480   4.458 -0.2118  0.3209  0.5567
   54MOL    C3517101   0.898   7.382   4.347 -0.0699 -0.5000  0.3181
   54MOL    O3617102   0.974   7.254   4.365 -0.2612 -0.2640  0.2376
   54MOL    C3717103   1.111   7.249   4.331 -0.4937 -0.4743 -0.4300
   54MOL    C3817104   1.172   7.117   4.373 -0.4349  0.0830 -0.7115
   54MOL    C3917105   1.145   7.273   4.186 -0.2804 -0.4033  0.0500
   54MOL    H4017106   0.858   7.519   4.517 -0.6784  0.8936 -0.4750
   54MOL    H4117107   1.003   7.429   4.531  0.2728  2.9195  2.0157
   54MOL    H4217108   0.901   7.421   4.245 -2.8436  0.4878  0.5795
   54MOL    H4317109   1.170   7.319   4.391  0.4052 -0.9389 -0.7629
   54MOL    H4417110   1.165   7.116   4.482  1.6499 -1.1457 -0.5543
   54MOL    H4517111   1.278   7.117   4.348 -0.5924 -2.1145 -1.4238
   54MOL    H4617112   1.118   7.033   4.330 -1.1764  1.0755 -1.7373
   54MOL    H4717113   1.250   7.262   4.162 -0.3563 -0.8868 -0.0627
   54MOL    H4817114   1.090   7.200   4.127 -0.9300  0.3459 -0.2865
   54MOL    H4917115   1.113   7.372   4.154  0.1232  0.1613  1.3623
   54MOL    C5017116   0.748   7.340   4.358 -1.0517 -0.4761  0.2961
   54MOL    C5117117   0.643   7.455   4.337 -0.4549 -1.1779 -0.1314
   54MOL    O5217118   0.526   7.416   4.412 -0.5419 -0.0893  0.4498
   54MOL    C5317119   0.523   7.467   4.546 -0.0067 -0.0967  0.2957
   54MOL    C5417120   0.421   7.372   4.624 -0.8072  0.3608 -0.0086
   54MOL    C5517121   0.477   7.613   4.547  0.5193  0.1632 -0.3635
   54MOL    H5617122   0.731   7.260   4.286 -1.1750 -0.9546  0.8554
   54MOL    H5717123   0.733   7.305   4.461  0.3020 -0.9103  0.3578
   54MOL    H5817124   0.671   7.555   4.368 -2.7612  0.5712 -3.3533
   54MOL    H5917125   0.620   7.450   4.592  1.7031  0.3127 -3.0263
   54MOL    H6017126   0.413   7.404   4.728 -3.6852 -1.5310  0.3997
   54MOL    H6117127   0.463   7.273   4.608  0.0799  0.8300 -0.6607
   54MOL    H6217128   0.319   7.370   4.586 -0.6417  0.9807 -0.5138
   54MOL    H6317129   0.553   7.690   4.530  1.9752 -0.9725  0.8744
   54MOL    H6417130   0.430   7.643   4.641  0.8367 -2.3173  0.6256
   54MOL    H6517131   0.406   7.618   4.465  0.7395 -0.0030 -0.5673
   54MOL    C6617132   0.591   7.459   4.189  0.2906 -0.1682 -0.3387
   54MOL    C6717133   0.512   7.582   4.157  0.0419 -0.6548  0.3874
   54MOL    O6817134   0.425   7.559   4.042 -0.3133  0.7121  0.2777
   54MOL    C6917135   0.299   7.493   4.070  0.1716 -0.4032 -0.7869
   54MOL    C7017136   0.191   7.568   4.163 -0.4338  0.3561 -0.5536
   54MOL    C7117137   0.231   7.444   3.941  0.2164  0.0627  0.1066
   54MOL    H7217138   0.676   7.441   4.122  1.5547  0.6739  1.0119
   54MOL    H7317139   0.535   7.367   4.175 -0.0655 -0.0511  0.3053
   54MOL    H7417140   0.463   7.639   4.236 -0.2443 -1.0433  0.4879
   54MOL    H7517141   0.322   7.395   4.112  0.9285 -0.1167 -0.5118
   54MOL    H7617142   0.160   7.664   4.121 -1.4107  1.4926  2.6119
   54MOL    H7717143   0.106   7.502   4.181 -0.6534  0.1680 -2.2113
   54MOL    H7817144   0.242   7.586   4.258 -0.2111 -2.1045 -0.1772
   54MOL    H7917145   0.294   7.375   3.885 -0.4002 -1.0185  0.7280
   54MOL    H8017146   0.200   7.528   3.878 -0.0066  0.7850  1.1677
   54MOL    H8117147   0.139   7.390   3.962  0.9482 -2.1018 -2.0075
   54MOL    C8217148   0.608   7.689   4.096 -0.1221  0.4356  0.4095
   54MOL    C8317149   0.552   0.014   4.082 -0.2274  0.1188 -0.3746
   54MOL    O8417150   0.568   0.065   4.212  0.1171  0.6522  0.0840
   54MOL    C8517151   0.484   0.173   4.246 -0.3845 -0.4251  0.2334
   54MOL    C8617152   0.563   0.265   4.338  0.1770 -0.3997  0.5466
   54MOL    C8717153   0.349   0.114   4.301  0.3323  0.6025  0.1235
   54MOL    H8817154   0.688   7.697   4.170  0.4002  0.4615 -0.1520
   54MOL    H8917155   0.646   7.648   4.002 -0.0249 -0.0975  0.6792
   54MOL    H9017156   0.447   0.009   4.053  0.2302 -3.5435 -1.7002
   54MOL    H9117157   0.456   0.226   4.155  2.0153  1.3607  0.4783
   54MOL    H9217158   0.534   0.369   4.328  1.7101 -0.1929 -2.4798
   54MOL    H9317159   0.570   0.232   4.442 -3.0502 -0.0758  0.9151
   54MOL    H9417160   0.666   0.275   4.302  0.5732 -2.0349  1.1596
   54MOL    H9517161   0.287   0.067   4.225  1.1212 -0.0397 -0.1210
   54MOL    H9617162   0.355   0.049   4.388 -1.4164  0.8997  0.4944
   54MOL    H9717163   0.291   0.198   4.340 -0.4848 -0.8972  2.2276
   54MOL    C9817164   0.642   0.112   3.997  0.1087  0.8689  0.2086
   54MOL    C9917165   0.663   0.093   3.845 -0.0195  0.2312  0.4696
   54MOL   O10017166   0.742   0.194   3.779  0.2753 -0.2540 -0.2741
   54MOL   C10117167   0.880   0.206   3.821 -0.1352 -0.5053 -0.2451
   54MOL   C10217168   0.888   0.314   3.923 -0.1469 -0.5746 -0.4185
   54MOL   C10317169   0.966   0.233   3.697 -0.0001 -0.5941  0.5092
   54MOL   H10417170   0.627   0.220   4.004  0.1721  0.7672  2.0209
   54MOL   H10517171   0.736   0.090   4.048 -1.0651  0.8370  2.4030
   54MOL   H10617172   0.709   7.815   3.833 -1.3423 -0.3140 -0.1876
   54MOL   H10717173   0.905   0.106   3.855  2.0325 -0.5668 -1.9196
   54MOL   H10817174   0.989   0.345   3.952 -0.8058  1.8109 -0.5448
   54MOL   H10917175   0.842   0.295   4.019  0.5502  0.4323  0.1308
   54MOL   H11017176   0.836   0.400   3.879 -0.6969 -0.1569  1.0142
   54MOL   H11117177   0.939   0.332   3.659  0.9997 -0.8679 -0.9677
   54MOL   H11217178   0.951   0.174   3.606 -0.8139  1.2920 -0.6306
   54MOL   H11317179   1.072   0.237   3.723 -0.5078  0.7876  2.4406
   54MOL   C11417180   0.534   0.096   3.763  0.7873 -0.2969  0.8881
   54MOL   C11517181   0.556   0.066   3.612  0.4537  0.0963 -0.1689
   54MOL   O11617182   0.597   7.752   3.615  0.2969  0.0907  0.3998
   54MOL   C11717183   0.676   7.698   3.509 -0.0418  1.1857 -0.1095
   54MOL   C11817184   0.632   7.553   3.484  0.3191  0.8346 -0.0649
   54MOL   C11917185   0.819   7.699   3.546 -0.0624  0.0990 -0.6773
   54MOL   H12017186   0.510   0.201   3.782 -0.4481 -0.2842 -0.6287
   54MOL   H12117187   0.463   0.026   3.807  0.4736  0.4393  1.5658
   54MOL   H12217188   0.624   0.140   3.570  1.8382 -1.1591 -0.1963
   54MOL   H12317189   0.671   7.756   3.417  2.7264  0.0133 -1.0863
   54MOL   H12417190   0.526   7.529   3.489  0.1072  1.7055 -0.4223
   54MOL   H12517191   0.684   7.484   3.551 -0.8180  0.2710  0.2618
   54MOL   H12617192   0.672   7.523   3.387 -2.0319 -3.7841  0.2436
   54MOL   H12717193   0.841   7.800   3.581 -0.3046 -0.2756  0.5709
   54MOL   H12817194   0.883   7.695   3.457 -1.4939 -0.4469 -1.6986
   54MOL   H12917195   0.854   7.633   3.625 -1.7648 -0.2161 -0.1631
   54MOL   C13017196   0.423   0.080   3.537 -0.2056 -0.2507  0.8238
   54MOL   C13117197   0.405   0.220   3.475 -0.3653  0.0190  0.1685
   54MOL   O13217198   0.402   0.317   3.582 -0.5418  0.7493 -0.0005
   54MOL   C13317199   0.457   0.445   3.559  0.7345  0.5425 -0.1361
   54MOL   C13417200   0.352   0.532   3.622  0.2922 -0.5972 -0.2563
   54MOL   C13517201   0.597   0.451   3.625 -0.1816  0.1744 -0.1111
   54MOL   H13617202   0.340   0.057   3.604 -0.4499 -2.4244 -0.1909
   54MOL   H13717203   0.413   0.010   3.454  0.6400 -0.4997  0.9270
   54MOL   H13817204   0.483   0.250   3.406  0.1786 -0.2204  0.6819
   54MOL   H13917205   0.453   0.468   3.452  2.9788 -1.7603 -0.7527
   54MOL   H14017206   0.340   0.509   3.728  1.1772  1.4449  0.3080
   54MOL   H14117207   0.251   0.530   3.582  0.5625  2.0677 -1.1621
   54MOL   H14217208   0.388   0.635   3.622  0.7958 -0.7657  0.5334
   54MOL   H14317209   0.600   0.437   3.733 -2.4535 -2.2038 -0.2967
   54MOL   H14417210   0.655   0.371   3.578  0.9881  0.3531  0.9805
   54MOL   H14517211   0.651   0.544   3.608  2.0338 -0.8662  0.8896
   54MOL   C14617212   0.270   0.231   3.398 -0.7068  0.0736  0.7843
   54MOL   C14717213   0.244   0.118   3.295 -0.4150 -0.2065 -0.3372
   54MOL   O14817214   0.124   0.146   3.218  0.4786 -0.0588 -0.0653
   54MOL   C14917215   7.814   0.168   3.273  0.5413  0.6848  0.2306
   54MOL   C15017216   7.757   0.039   3.341  0.6963  0.0704  0.2620
   54MOL   C15117217   7.714   0.197   3.156  0.1138 -0.2903  0.5700
   54MOL   H15217218   0.266   0.322   3.338 -0.7267 -1.4660 -1.6191
   54MOL   H15317219   0.186   0.230   3.467  0.5733  1.4130  2.4260
   54MOL   H15417220   0.232   0.024   3.349 -0.6457  1.6823  3.0366
   54MOL   H15517221   7.803   0.249   3.346 -1.5870  0.3864  0.2793
   54MOL   H15617222   7.804   0.010   3.435 -1.0170  3.1087  2.1425
   54MOL   H15717223   7.757   7.771   3.277 -1.2216  1.8114 -2.2166
   54MOL   H15817224   7.650   0.056   3.353  0.9890  0.9979  1.7135
   54MOL   H15917225   7.721   0.131   3.070 -2.1884  1.4018 -0.9908
   54MOL   H16017226   7.721   0.297   3.112  0.5499 -0.3053  0.6040
   54MOL   H16117227   7.611   0.195   3.192 -0.1547  1.7555 -0.0145
   54MOL   C16217228   0.364   0.105   3.190  0.3934 -0.1277  0.3211
   54MOL   C16317229   0.343   7.806   3.099  0.5386 -0.3628 -0.0067
   54MOL   O16417230   0.431   7.804   2.984 -0.2548 -0.1730 -0.0511
   54MOL   C16517231   0.402   0.058   2.870  0.2597  0.1983 -0.4267
   54MOL   C16617232   0.283   7.814   2.788 -0.7785  0.2774  0.3744
   54MOL   C16717233   0.523   0.054   2.770  0.2761  0.3225  0.4045
   54MOL   H16817234   0.368   0.199   3.135  0.5450  1.3409  2.7550
   54MOL   H16917235   0.461   0.096   3.240 -0.0559  1.8828  1.5985
   54MOL   H17017236   0.242   7.808   3.057 -0.0008  1.6799  1.3091
   54MOL   H17117237   0.383   0.162   2.894  2.9988  0.7637 -0.6108
   54MOL   H17217238   0.188   7.807   2.841 -0.6078 -0.0316  0.6403
   54MOL   H17317239   0.302   7.717   2.743 -1.8994  0.1521  0.1651
   54MOL   H17417240   0.258   0.058   2.704 -1.4546 -0.1930  0.2169
   54MOL   H17517241   0.494   0.107   2.680 -2.2540  0.8971  1.5134
   54MOL   H17617242   0.564   7.776   2.747 -0.5084 -0.0654  0.6510
   54MOL   H17717243   0.612   0.101   2.809  1.1228 -0.1774 -0.8909
   54MOL   C17817244   0.378   7.679   3.169  0.3646  0.2797 -0.5115
   54MOL   C17917245   0.287   7.567   3.106 -0.3350 -0.2787 -0.1270
   54MOL   O18017246   0.357   7.447   3.120  0.0090 -0.3775 -0.1267
   54MOL   C18117247   0.417   7.398   2.996  0.4013 -0.5348  0.4954
   54MOL   C18217248   0.491   7.272   3.033 -0.0615 -0.0643 -0.5088
   54MOL   C18317249   0.515   7.496   2.926  1.1359  0.1330 -0.4686
   54MOL   H18417250   0.366   7.678   3.277 -0.9659  1.6826 -0.6183
   54MOL   H18517251   0.483   7.655   3.153  0.7669  0.4102  1.7450
   54MOL   H18617252   0.264   7.596   3.003 -2.3628 -2.4225 -0.3111
   54MOL   H18717253   0.337   7.370   2.926  0.8765 -1.5308  0.3530
   54MOL   H18817254   0.556   7.305   3.115  0.7750  2.7616 -2.2699
   54MOL   H18917255   0.553   7.242   2.948  0.9087 -3.2332  1.2113
   54MOL   H19017256   0.424   7.193   3.068  1.9956 -3.3579 -3.5855
   54MOL   H19117257   0.466   7.584   2.883  0.6479 -0.6207 -1.4763
   54MOL   H19217258   0.560   7.455   2.836  1.4562  0.5412 -0.4946
   54MOL   H19317259   0.587   7.524   3.003  0.8665 -1.0702  0.2298
   54MOL   C19417260   0.154   7.549   3.183 -0.1088 -0.4128 -0.3430
   54MOL   C19517261   0.031   7.493   3.103  0.1402  0.3389 -0.1998
   54MOL   O19617262   7.814   7.590   3.004 -0.5847  0.3176 -0.3823
   54MOL   C19717263   7.751   7.536   2.888  0.4228 -0.1013  0.4918
   54MOL   C19817264   7.651   7.639   2.834 -0.0026 -0.4256  0.5222
   54MOL   C19917265   0.036   7.515   2.781 -0.1232 -0.1248  0.2792
   54MOL   H20017266   0.175   7.499   3.278 -1.1192 -1.8606 -0.8626
   54MOL   H20117267   0.119   7.644   3.224  1.6762  0.4565 -0.8071
   54MOL   H20217268   0.055   7.400   3.053 -1.8213  0.1754 -0.8928
   54MOL   H20317269   7.695   7.444   2.908  2.1279 -1.1155  0.7700
   54MOL   H20417270   7.581   7.668   2.912 -0.6372  0.2824 -0.2963
   54MOL   H20517271   7.707   7.731   2.819 -0.8131  0.2833  1.7594
   54MOL   H20617272   7.600   7.617   2.739 -1.0936  3.3859  0.1482
   54MOL   H20717273   0.001   7.464   2.692  1.9338 -0.0119 -0.6316
   54MOL   H20817274   0.102   7.596   2.752 -1.6290  0.9193 -0.2706
   54MOL   H20917275   0.109   7.442   2.819  0.0658  0.6010  1.3339
   54MOL   C21017276   7.724   7.470   3.193  0.5476  0.7028  0.2027
   54MOL   C21117277   7.743   7.400   3.328 -0.2343  0.1234 -0.3829
   54MOL   O21217278   7.625   7.376   3.412 -0.2300  0.5230  0.3802
   54MOL   C21317279   7.554   7.487   3.466 -0.3183  0.4233 -0.6173
   54MOL   C21417280   7.423   7.444   3.527  0.1645 -0.0499 -0.7485
   54MOL   C21517281   7.635   7.542   3.583 -0.2188 -0.0714 -0.5010
   54MOL   H21617282   7.650   7.421   3.129  1.1329  1.2886 -0.9465
   54MOL   H21717283   7.668   7.562   3.207  0.4193  0.6814 -0.1499
   54MOL   H21817284   0.001   7.444   3.390  0.9390 -2.1725 -0.1446
   54MOL   H21917285   7.538   7.569   3.396 -0.5620  0.5271 -0.4406
   54MOL   H22017286   7.354   7.412   3.449 -0.8854 -0.7423  0.4359
   54MOL   H22117287   7.377   7.525   3.583  0.5230 -0.4901  0.1937
   54MOL   H22217288   7.445   7.370   3.605 -1.4932 -0.3760 -0.5683
   54MOL   H22317289   7.649   7.463   3.657  0.5498  0.4827 -0.0506
   54MOL   H22417290   7.578   7.622   3.630  0.6350 -0.6842  1.6572
   54MOL   H22517291   7.736   7.575   3.560  0.3193 -1.2043  0.1831
   54MOL   C22617292   7.803   7.265   3.293 -0.5924  0.3349 -0.4857
   54MOL   C22717293   0.021   7.171   3.416  0.4091  0.3593 -0.4969
   54MOL   O22817294   0.148   7.206   3.460  0.1311 -0.5117  0.3676
   54MOL   C22917295   0.156   7.278   3.581 -0.3180 -0.6962  0.1539
   54MOL   C23017296   0.294   7.352   3.564  0.9185 -0.1866  0.3697
   54MOL   C23117297   0.159   7.171   3.694 -0.5273 -0.1625 -0.5487
   54MOL   H23217298   0.065   7.267   3.221  0.5680 -2.6781  0.6814
   54MOL   H23317299   7.728   7.202   3.244  0.2360 -0.3519 -0.8944
   54MOL   H23417300   7.769   7.192   3.495  1.6318 -1.2611  1.1066
   54MOL   H23517301   0.070   7.345   3.590  0.2852  0.1437 -0.2953
   54MOL   H23617302   0.281   7.402   3.469 -0.0264 -1.1408 -0.0106
   54MOL   H23717303   0.314   7.423   3.644 -1.0518  2.6338 -1.5505
   54MOL   H23817304   0.377   7.283   3.546  2.6012  1.3914  1.7798
   54MOL   H23917305   0.159   7.207   3.797 -3.9270  0.1575 -0.6253
   54MOL   H24017306   0.245   7.105   3.687 -0.5500 -0.3487  0.8171
   54MOL   H24117307   0.070   7.109   3.694 -1.0895  0.5591 -3.6022
   54MOL   C24217308   0.031   7.019   3.393  0.1435  0.4668 -0.5716
   54MOL   C24317309   0.126   6.964   3.286 -0.5118 -0.5283  0.4324
   54MOL   O24417310   0.053   6.957   3.167 -0.4536  0.2344  0.6432
   54MOL   C24517311   0.091   7.032   3.053  0.2260 -0.6349  0.6747
   54MOL   C24617312   0.187   6.953   2.965  0.4680 -0.1392 -0.7080
   54MOL   C24717313   7.784   7.080   2.980 -0.3646  0.3493 -0.1334
   54MOL   H24817314   0.031   6.955   3.481  2.6567 -0.3712 -1.1403
   54MOL   H24917315   7.750   6.995   3.360  0.6520 -1.6641 -0.6507
   54MOL   H25017316   0.216   7.023   3.269  0.6539 -1.8787  1.7379
   54MOL   H25117317   0.137   7.125   3.087 -0.2553 -0.1686  0.0472
   54MOL   H25217318   0.269   6.911   3.023 -0.6080 -1.3197 -0.0045
   54MOL   H25317319   0.142   6.861   2.927  1.5691 -0.6203 -0.8686
   54MOL   H25417320   0.252   7.012   2.901 -1.0679  0.6583 -1.5531
   54MOL   H25517321   7.765   7.033   2.883  2.0416 -0.2085 -0.3730
   54MOL   H25617322   7.696   7.056   3.039  0.3360 -0.1342  0.7195
   54MOL   H25717323   7.780   7.189   2.977 -1.0384  0.3002 -1.9486
   54MOL   C25817324   0.178   6.824   3.325 -0.8586 -0.1684 -0.1932
   54MOL   C25917325   0.263   6.805   3.449  0.0362 -0.4141  0.3723
   54MOL   O26017326   0.395   6.849   3.425  0.4022 -0.0185 -0.1681
   54MOL   C26117327   0.430   6.974   3.485  0.7114 -0.5535  0.5061
   54MOL   C26217328   0.467   6.944   3.632 -0.2085 -0.4608 -0.0043
   54MOL   C26317329   0.555   7.026   3.412  0.7391  0.0494  0.1322
   54MOL   H26417330   0.089   6.764   3.342 -0.2121 -1.4938 -1.3650
   54MOL   H26517331   0.220   6.777   3.236  1.7701  1.6313  0.0474
   54MOL   H26617332   0.234   6.855   3.542  2.2366 -1.3449  1.5884
   54MOL   H26717333   0.347   7.044   3.475  1.3383  0.3375  1.4822
   54MOL   H26817334   0.515   7.034   3.672 -1.5593  1.5171 -2.6690
   54MOL   H26917335   0.538   6.862   3.641 -0.7445 -1.1193 -1.5875
   54MOL   H27017336   0.371   6.930   3.681 -0.6665  2.5098  0.0250
   54MOL   H27117337   0.587   7.112   3.470 -0.9231  0.8002 -0.0530
   54MOL   H27217338   0.635   6.951   3.414 -0.7281 -1.5488 -0.1415
   54MOL   H27317339   0.541   7.059   3.309  0.4125 -0.3645  0.0417
   54MOL   C27417340   0.294   6.654   3.499 -0.2227 -0.1074 -0.0798
   54MOL   C27517341   0.171   6.577   3.558 -0.3414  0.3727 -0.6439
   54MOL   O27617342   0.077   6.536   3.463  0.4063  0.3456  0.0602
   54MOL   C27717343   7.753   6.538   3.506  0.7034 -0.7843 -0.1407
   54MOL   C27817344   7.682   6.447   3.407 -0.5421 -0.8754  0.0381
   54MOL   C27917345   7.696   6.682   3.505  0.1129  0.7549  0.3938
   54MOL   H28017346   0.340   6.600   3.416 -0.6055  0.6915 -0.8135
   54MOL   H28117347   0.370   6.672   3.574 -1.4725  2.8335  0.5432
   54MOL   H28217348   0.118   6.644   3.626 -0.7016 -1.7502  1.2409
   54MOL   H28317349   7.743   6.494   3.605  2.7444  2.5183  1.6386
   54MOL   H28417350   7.697   6.345   3.441 -0.8520 -0.6011  1.0255
   54MOL   H28517351   7.573   6.458   3.413 -0.3996 -0.0691  1.5213
   54MOL   H28617352   7.716   6.465   3.305 -0.0746  0.8100  0.4706
   54MOL   H28717353   7.670   6.733   3.412 -0.0698  2.4921  1.3760
   54MOL   H28817354   7.756   6.752   3.564  1.7279  1.3105 -1.8119
   54MOL   H28917355   7.598   6.686   3.551  0.1868  0.5647  0.5676
   54MOL   C29017356   0.206   6.454   3.646  0.0498  0.3598  0.0024
   54MOL   C29117357   0.305   6.349   3.578 -0.1940 -0.1202  0.1913
   54MOL   O29217358   0.338   6.237   3.670 -0.4810  0.2884  0.5263
   54MOL   C29317359   0.430   6.267   3.774  0.1188  0.6550  0.2256
   54MOL   C29417360   0.574   6.256   3.724  0.3219 -0.5590 -0.5719
   54MOL   C29517361   0.398   6.165   3.895 -0.8223 -0.1023 -0.3554
   54MOL   H29617362   0.119   6.399   3.683  1.6493 -1.6708  0.8162
   54MOL   H29717363   0.255   6.487   3.737 -1.1836  0.0052  0.8219
   54MOL   H29817364   0.393   6.408   3.552 -0.4536  0.4126  0.4938
   54MOL   H29917365   0.411   6.363   3.822  2.0610  0.2369  1.8728
   54MOL   H30017366   0.641   6.277   3.806 -0.2772 -1.2926  0.1161
   54MOL   H30117367   0.593   6.151   3.699  0.0515 -0.1429 -2.6354
   54MOL   H30217368   0.584   6.320   3.636  0.9133  1.1938  0.7596
   54MOL   H30317369   0.294   6.141   3.920  0.0687 -1.3762  2.2487
   54MOL   H30417370   0.452   6.071   3.892  1.0328  0.9566 -1.2101
   54MOL   H30517371   0.433   6.212   3.987  0.0536 -0.0352 -0.7287
   54MOL   C30617372   0.244   6.287   3.455  0.2630 -0.3266 -0.5957
   54MOL   C30717373   0.341   6.190   3.379 -0.4330  0.7350 -0.0801
   54MOL   O30817374   0.302   6.162   3.245 -0.3752 -0.1838  0.0172
   54MOL   C30917375   0.392   6.076   3.182 -0.0281  0.6035 -0.5236
   54MOL   C31017376   0.314   5.965   3.117 -0.2105  0.1920  0.5503
   54MOL   C31117377   0.482   6.154   3.088 -0.1992  0.0608 -0.2157
   54MOL   H31217378   0.241   6.369   3.384  0.8517 -1.9849 -2.6108
   54MOL   H31317379   0.148   6.244   3.485 -0.0724  0.7155 -0.1729
   54MOL   H31417380   0.439   6.238   3.380  0.3116 -0.7098 -1.7155
   54MOL   H31517381   0.459   6.028   3.253  0.6577  1.4624 -0.5870
   54MOL   H31617382   0.228   5.925   3.171 -0.0149  0.2107  0.8743
   54MOL   H31717383   0.382   5.887   3.083 -0.0123  0.6722 -0.1870
   54MOL   H31817384   0.262   6.000   3.027 -1.7666  0.0872  1.3994
   54MOL   H31917385   0.425   6.209   3.013 -3.0004 -2.2191  0.1138
   54MOL   H32017386   0.548   6.083   3.039  1.1879 -0.4800  2.3653
   54MOL   H32117387   0.543   6.222   3.147  1.6687 -2.1553  0.4789
   54MOL   H32217388   0.348   6.096   3.432  2.7065  1.3576  0.7141
   55MOL     C117389   4.261   3.636   6.637  0.4390 -0.0671 -0.1486
   55MOL     C217390   4.395   3.661   6.574 -0.0438 -0.2394 -0.5094
   55MOL     O317391   4.478   3.613   6.681 -0.2638  0.1003 -0.0762
   55MOL     C417392   4.600   3.680   6.692 -0.7492  0.5860  0.0664
   55MOL     C517393   4.723   3.593   6.679  0.1206 -0.7229 -0.1305
   55MOL     C617394   4.591   3.758   6.825 -0.0937  0.2662  0.1984
   55MOL     H717395   4.182   3.634   6.562  0.0979  1.7487  0.1373
   55MOL     H817396   4.258   3.537   6.683  0.2365 -0.5668 -1.2308
   55MOL     H917397   4.388   3.769   6.568 -1.6109 -0.2072  1.4939
   55MOL    H1017398   4.617   3.751   6.611 -0.6790 -0.4677 -0.8478
   55MOL    H1117399   4.749   3.562   6.578 -0.7913  0.7349 -0.8387
   55MOL    H1217400   4.808   3.643   6.727  0.4906  0.4239 -1.9607
   55MOL    H1317401   4.713   3.501   6.737  0.1941 -2.4337 -2.7745
   55MOL    H1417402   4.666   3.835   6.842  0.2517  0.0353 -0.2730
   55MOL    H1517403   4.494   3.808   6.828  0.0175  0.4429  0.9237
   55MOL    H1617404   4.594   3.688   6.909 -1.9998  0.3576  0.3862
   55MOL    H1717405   4.234   3.711   6.711  1.0785  0.8973 -0.8819
   55MOL    C1817406   4.434   3.595   6.442 -0.7163  0.2612 -0.2495
   55MOL    C1917407   4.316   3.547   6.346 -0.2416 -0.0454  0.5366
   55MOL    O2017408   4.377   3.505   6.224  0.0569 -0.4576  0.2645
   55MOL    C2117409   4.407   3.369   6.211 -0.0838 -0.6463  0.6488
   55MOL    C2217410   4.549   3.358   6.172 -0.3263  0.7942  0.6372
   55MOL    C2317411   4.316   3.287   6.117 -0.2068 -0.8283 -0.3628
   55MOL    H2417412   4.506   3.653   6.385 -1.3821  0.7911 -0.5696
   55MOL    H2517413   4.499   3.509   6.459  1.0730  1.4702 -0.8334
   55MOL    H2617414   4.263   3.466   6.396  0.4239 -2.5164 -2.5914
   55MOL    H2717415   4.406   3.326   6.311 -1.5464 -1.4485  0.3108
   55MOL    H2817416   4.585   3.255   6.165  0.1136  0.9615  0.3725
   55MOL    H2917417   4.579   3.391   6.072 -1.2641 -0.9367 -0.2187
   55MOL    H3017418   4.612   3.417   6.239 -1.3734 -0.1461  2.4839
   55MOL    H3117419   4.297   3.337   6.022 -1.7342 -0.7317 -0.0143
   55MOL    H3217420   4.218   3.271   6.161  0.2501  0.8084  1.2725
   55MOL    H3317421   4.359   3.187   6.105 -0.9588 -1.0822 -0.9912
   55MOL    C3417422   4.218   3.657   6.295 -1.1527 -0.4812 -0.1942
   55MOL    C3517423   4.087   3.605   6.233 -1.0254 -0.1759  0.0120
   55MOL    O3617424   4.012   3.577   6.346  0.1229  0.1034 -0.4250
   55MOL    C3717425   3.982   3.440   6.356  0.6263  0.2614  0.2445
   55MOL    C3817426   3.976   3.398   6.504  0.1646  0.0277 -0.6859
   55MOL    C3917427   3.858   3.388   6.289  0.5070  0.3801 -0.1631
   55MOL    H4017428   4.271   3.726   6.230 -1.2414 -1.2534 -1.0900
   55MOL    H4117429   4.185   3.726   6.373  1.6941  2.4746 -1.5101
   55MOL    H4217430   4.102   3.518   6.169  1.5231  1.1570 -1.2915
   55MOL    H4317431   4.055   3.379   6.303 -0.3387 -0.5240 -0.2038
   55MOL    H4417432   4.073   3.415   6.552 -0.7086  1.5141  0.5915
   55MOL    H4517433   3.934   3.302   6.534  0.0936  0.2917  0.0712
   55MOL    H4617434   3.910   3.472   6.550  0.3485 -0.3008  0.1163
   55MOL    H4717435   3.858   3.420   6.185  2.6193  0.4466 -0.1513
   55MOL    H4817436   3.846   3.279   6.290 -3.4811  0.7234  0.0158
   55MOL    H4917437   3.766   3.432   6.327 -0.9326 -2.4787 -0.1859
   55MOL    C5017438   4.002   3.712   6.155  0.1670 -0.1855 -0.4769
   55MOL    C5117439   4.047   3.747   6.014  0.9953  0.2832  0.2227
   55MOL    O5217440   4.007   3.886   5.981 -0.3183 -0.4081  0.6386
   55MOL    C5317441   4.111   3.983   6.016  0.2775  0.0884 -0.2895
   55MOL    C5417442   4.057   4.125   6.007 -0.4878 -0.4091 -0.3037
   55MOL    C5517443   4.218   3.980   5.905 -0.0711  0.5497 -0.0475
   55MOL    H5617444   3.901   3.676   6.140  0.2478 -0.6450  0.0318
   55MOL    H5717445   3.985   3.795   6.224  0.0680  2.0224 -3.0601
   55MOL    H5817446   4.155   3.741   6.016  0.9446 -0.5762  0.5790
   55MOL    H5917447   4.140   3.955   6.118  0.3214 -3.6897 -1.2577
   55MOL    H6017448   3.998   4.155   6.093 -0.8658 -0.5969 -0.4982
   55MOL    H6117449   3.989   4.124   5.922  1.1119  1.0131 -1.6411
   55MOL    H6217450   4.136   4.199   5.993  0.1955 -1.3554 -1.6310
   55MOL    H6317451   4.239   3.881   5.864  2.8540  1.3144 -0.5147
   55MOL    H6417452   4.313   4.024   5.935  0.2163 -0.7843  1.0216
   55MOL    H6517453   4.176   4.039   5.823 -1.4546  1.7145  1.4597
   55MOL    C6617454   3.995   3.650   5.906 -0.0500 -0.2939  0.2925
   55MOL    C6717455   4.069   3.653   5.764  0.1771 -0.7324  0.1646
   55MOL    O6817456   3.995   3.560   5.683 -0.1142  0.2409 -0.8295
   55MOL    C6917457   3.915   3.623   5.582  0.0649  0.0493 -0.6719
   55MOL    C7017458   3.868   3.515   5.478 -0.4879  0.0316  0.0161
   55MOL    C7117459   3.800   3.705   5.650  0.0021  0.2183  0.8712
   55MOL    H7217460   4.015   3.555   5.953 -1.4755 -0.2550  1.0229
   55MOL    H7317461   3.892   3.688   5.904  0.6894  1.7547  0.1339
   55MOL    H7417462   4.070   3.758   5.733  1.0377 -0.2989  1.6082
   55MOL    H7517463   3.983   3.689   5.528 -0.9126  3.4248  2.0406
   55MOL    H7617464   3.956   3.461   5.443 -0.6517 -0.9029  1.0448
   55MOL    H7717465   3.795   3.454   5.529  0.1086  0.4078  1.3496
   55MOL    H7817466   3.819   3.564   5.394  1.9125 -1.3000 -2.2310
   55MOL    H7917467   3.720   3.648   5.696  2.5312 -2.0641  2.6480
   55MOL    H8017468   3.751   3.765   5.574 -0.4104 -1.8563 -0.5345
   55MOL    H8117469   3.843   3.781   5.716 -1.5845  1.5644  0.3755
   55MOL    C8217470   4.214   3.603   5.758  0.6990 -0.0045 -0.1229
   55MOL    C8317471   4.295   3.652   5.639 -0.3907  0.1324  0.3776
   55MOL    O8417472   4.314   3.787   5.647  0.1411 -0.0297  0.0533
   55MOL    C8517473   4.341   3.862   5.519 -0.2933  0.3057  0.5987
   55MOL    C8617474   4.404   3.988   5.571  0.0823 -0.6432 -0.1324
   55MOL    C8717475   4.206   3.889   5.447  0.4195 -0.1270  0.6819
   55MOL    H8817476   4.268   3.630   5.849 -0.7572  2.3502  0.0773
   55MOL    H8917477   4.212   3.495   5.765 -1.4930  0.0341  0.1049
   55MOL    H9017478   4.243   3.630   5.546 -2.2835 -0.4257  1.5323
   55MOL    H9117479   4.412   3.802   5.462  0.5592 -1.2172  3.1873
   55MOL    H9217480   4.481   3.972   5.646 -0.3641 -1.6038  0.1306
   55MOL    H9317481   4.444   4.058   5.497  0.3306  0.3407  0.9267
   55MOL    H9417482   4.333   4.050   5.625 -0.7128 -1.1975 -0.5174
   55MOL    H9517483   4.198   3.976   5.381  0.7280 -0.7608 -0.1993
   55MOL    H9617484   4.179   3.815   5.372 -1.3168  0.5874  0.5696
   55MOL    H9717485   4.123   3.899   5.517 -1.4354 -0.2437 -1.4421
   55MOL    C9817486   4.427   3.578   5.626 -0.2243  0.2007 -0.0796
   55MOL    C9917487   4.412   3.432   5.579 -0.4328  0.0819  0.4921
   55MOL   O10017488   4.537   3.360   5.598  0.0479  0.1295 -0.1545
   55MOL   C10117489   4.560   3.303   5.728  0.3109  0.0829  0.3235
   55MOL   C10217490   4.710   3.269   5.707 -0.2524 -0.5578  0.9031
   55MOL   C10317491   4.476   3.178   5.759  0.0765  0.3723 -0.0798
   55MOL   H10417492   4.502   3.619   5.558  1.7063 -2.2025  0.5375
   55MOL   H10517493   4.463   3.577   5.728 -0.2545 -0.1168 -0.0729
   55MOL   H10617494   4.325   3.378   5.615  0.0117 -1.0118 -0.0442
   55MOL   H10717495   4.557   3.370   5.813  0.3481  0.5806 -0.0663
   55MOL   H10817496   4.767   3.361   5.695 -3.1514  1.0977 -0.9719
   55MOL   H10917497   4.724   3.217   5.612  1.8665  0.7151  0.4864
   55MOL   H11017498   4.762   3.210   5.782 -0.0108 -0.0947  1.0986
   55MOL   H11117499   4.369   3.200   5.762  0.0524  0.1323  1.1262
   55MOL   H11217500   4.498   3.144   5.860  3.7396  2.9727  0.1048
   55MOL   H11317501   4.482   3.103   5.681  2.5034 -0.3681  0.7671
   55MOL   C11417502   4.381   3.417   5.423  0.1506  0.6112  0.2329
   55MOL   C11517503   4.345   3.277   5.360 -0.3104 -0.4682  0.2819
   55MOL   O11617504   4.204   3.264   5.357  0.5486 -0.0830  0.5833
   55MOL   C11717505   4.156   3.126   5.337 -0.2333  0.2062  0.2920
   55MOL   C11817506   4.027   3.129   5.254  0.3376  0.6715  0.2807
   55MOL   C11917507   4.132   3.052   5.469 -0.0771  0.6648 -0.1843
   55MOL   H12017508   4.475   3.451   5.379 -1.6564  2.3450 -2.4004
   55MOL   H12117509   4.328   3.499   5.375  0.1995  0.3805 -0.2187
   55MOL   H12217510   4.378   3.204   5.433  2.5828  2.1299  1.7037
   55MOL   H12317511   4.219   3.074   5.265  0.1651  0.3524  0.5345
   55MOL   H12417512   3.948   3.182   5.308  1.9621  3.0626  0.3872
   55MOL   H12517513   3.996   3.028   5.228  0.3488  0.2913  1.7147
   55MOL   H12617514   4.053   3.176   5.159  1.2120 -2.7955 -1.2867
   55MOL   H12717515   4.097   2.949   5.457  0.2830  0.3760  1.1345
   55MOL   H12817516   4.046   3.094   5.522  0.3408  1.5321 -0.1900
   55MOL   H12917517   4.221   3.053   5.532 -0.3707 -1.3817  0.3330
   55MOL   C13017518   4.427   3.258   5.227 -0.8802 -0.7109  0.6864
   55MOL   C13117519   4.355   3.301   5.095 -0.5253  0.0257 -0.0025
   55MOL   O13217520   4.414   3.229   4.990  0.3510 -0.3156 -0.1435
   55MOL   C13317521   4.357   3.096   4.969 -0.4294  0.0982 -1.1046
   55MOL   C13417522   4.247   3.104   4.869 -0.0581 -0.0215 -0.3020
   55MOL   C13517523   4.472   3.010   4.914 -0.5039  0.5381 -0.0533
   55MOL   H13617524   4.438   3.150   5.224 -0.1760 -0.6267 -0.0449
   55MOL   H13717525   4.529   3.295   5.237 -0.8515 -0.4138 -0.6506
   55MOL   H13817526   4.249   3.280   5.104 -0.5446  0.3221  0.4941
   55MOL   H13917527   4.317   3.056   5.062  0.9005  0.7978 -0.2177
   55MOL   H14017528   4.202   3.005   4.876 -0.4146  0.1988  0.4959
   55MOL   H14117529   4.280   3.108   4.765  0.1248  1.2524 -0.2010
   55MOL   H14217530   4.168   3.178   4.881 -0.5172 -0.6551  0.6665
   55MOL   H14317531   4.436   2.909   4.894  0.4167  0.4994 -1.5535
   55MOL   H14417532   4.514   3.053   4.823 -2.7341  0.7228 -1.0188
   55MOL   H14517533   4.547   2.994   4.991 -1.1509 -2.1021  0.0633
   55MOL   C14617534   4.376   3.452   5.069  0.1426 -0.1093  0.1338
   55MOL   C14717535   4.278   3.508   4.961  0.2792  0.4222  0.0318
   55MOL   O14817536   4.149   3.507   5.027  0.4873  0.5763 -0.4449
   55MOL   C14917537   4.034   3.541   4.949 -0.3724  0.0037 -0.2862
   55MOL   C15017538   3.966   3.644   5.041  1.0629  0.5665 -1.2249
   55MOL   C15117539   3.942   3.415   4.922 -0.4183 -0.4414 -0.0127
   55MOL   H15217540   4.481   3.469   5.047 -0.2409  3.0713  0.6362
   55MOL   H15317541   4.358   3.508   5.160  1.8486  1.3141 -0.3717
   55MOL   H15417542   4.280   3.438   4.877  1.0469  0.6554 -0.1442
   55MOL   H15517543   4.066   3.593   4.859  1.1743 -1.0087 -0.3211
   55MOL   H15617544   4.023   3.735   5.062  3.3267 -1.0509 -0.0679
   55MOL   H15717545   3.943   3.599   5.138 -0.5004 -1.4565 -2.4801
   55MOL   H15817546   3.884   3.686   4.983  0.2344  0.4976 -0.1211
   55MOL   H15917547   3.850   3.448   4.875 -0.7451 -1.5971 -0.1968
   55MOL   H16017548   3.906   3.378   5.018  1.7127 -0.3359  0.8717
   55MOL   H16117549   3.992   3.339   4.863 -0.0793 -0.3015  0.0885
   55MOL   C16217550   4.321   3.652   4.918 -0.6542 -0.5660  0.0985
   55MOL   C16317551   4.423   3.647   4.805 -0.4292 -0.9550 -0.4934
   55MOL   O16417552   4.341   3.647   4.690 -0.4903  0.3765 -0.8563
   55MOL   C16517553   4.375   3.555   4.592  0.2909  0.6869  0.0685
   55MOL   C16617554   4.314   3.614   4.462 -0.3376  0.3683 -0.7706
   55MOL   C16717555   4.322   3.417   4.625 -0.5695  0.5615  0.3124
   55MOL   H16817556   4.252   3.726   4.880  2.5776  1.8952 -1.2096
   55MOL   H16917557   4.360   3.701   5.007 -1.3337 -0.0270  0.1013
   55MOL   H17017558   4.492   3.563   4.815 -1.7916 -1.7669  3.1295
   55MOL   H17117559   4.482   3.538   4.575  0.2673  1.0456 -0.4623
   55MOL   H17217560   4.328   3.546   4.378  1.1061 -0.5151  0.1591
   55MOL   H17317561   4.361   3.708   4.435 -3.4726  1.5724 -2.2372
   55MOL   H17417562   4.206   3.626   4.476 -0.2044  1.3904 -0.5880
   55MOL   H17517563   4.346   3.345   4.548 -2.0995 -0.1916  0.5212
   55MOL   H17617564   4.215   3.409   4.646 -0.3915 -2.1181  0.4131
   55MOL   H17717565   4.374   3.375   4.711 -1.5337 -0.2601  0.5131
   55MOL   C17817566   4.496   3.785   4.797  0.4342  0.2922 -0.7544
   55MOL   C17917567   4.641   3.791   4.852 -0.1375  0.1194 -0.0044
   55MOL   O18017568   4.628   3.735   4.984  0.5674  0.1284  0.0729
   55MOL   C18117569   4.678   3.817   5.087  0.4268  1.1509 -0.3163
   55MOL   C18217570   4.830   3.820   5.097  0.5637 -0.3126  0.6366
   55MOL   C18317571   4.596   3.772   5.214 -0.6424  0.6603  0.5592
   55MOL   H18417572   4.440   3.853   4.861 -0.4559 -1.3749  0.2961
   55MOL   H18517573   4.492   3.820   4.694 -3.6263 -0.8966 -1.0896
   55MOL   H18617574   4.664   3.897   4.858 -1.6784  0.5074 -0.5394
   55MOL   H18717575   4.649   3.921   5.075 -0.0173  0.9247 -1.2208
   55MOL   H18817576   4.853   3.894   5.174  1.0533 -0.1656  0.3518
   55MOL   H18917577   4.878   3.855   5.005  1.5037 -1.5427  0.6393
   55MOL   H19017578   4.870   3.725   5.133  0.9266  0.0312  1.1477
   55MOL   H19117579   4.614   3.669   5.246  0.0834  0.9338  1.0673
   55MOL   H19217580   4.490   3.768   5.189 -0.7324  2.1496  0.6762
   55MOL   H19317581   4.609   3.847   5.292  4.9029  1.8979 -1.2735
   55MOL   C19417582   4.750   3.714   4.775 -0.4021 -0.4578  0.7205
   55MOL   C19517583   4.799   3.778   4.638 -0.1374  0.6164 -0.4618
   55MOL   O19617584   4.879   3.672   4.585  0.1910 -0.6503 -0.3512
   55MOL   C19717585   4.904   3.679   4.442  0.4136  0.6246  0.1975
   55MOL   C19817586   5.020   3.582   4.415  0.3786  0.4995 -0.1532
   55MOL   C19917587   4.774   3.625   4.364 -0.3121  0.1106 -0.3842
   55MOL   H20017588   4.829   3.704   4.850 -1.1590 -0.2830  1.5594
   55MOL   H20117589   4.706   3.615   4.767 -1.6381  0.1296  0.0054
   55MOL   H20217590   4.715   3.802   4.574 -0.7555  0.5225  0.3130
   55MOL   H20317591   4.933   3.777   4.403  0.4395 -0.0639 -1.5685
   55MOL   H20417592   5.000   3.478   4.440  0.5684 -0.1305 -2.5093
   55MOL   H20517593   5.044   3.598   4.310 -2.3356  0.8038 -0.7764
   55MOL   H20617594   5.107   3.613   4.472 -0.3477 -0.5744  1.5630
   55MOL   H20717595   4.681   3.675   4.390 -0.8266 -1.5197  1.0441
   55MOL   H20817596   4.790   3.635   4.257  1.7122 -0.6822 -0.1854
   55MOL   H20917597   4.759   3.522   4.399 -2.6744  0.7275  0.4798
   55MOL   C21017598   4.878   3.908   4.657 -0.2335 -0.5081  0.3082
   55MOL   C21117599   4.807   4.043   4.655  0.4568 -0.6896 -0.8593
   55MOL   O21217600   4.879   4.152   4.720 -0.1903 -0.1124  0.2179
   55MOL   C21317601   4.870   4.170   4.863 -0.4597  0.2916  0.3754
   55MOL   C21417602   4.989   4.248   4.933  0.3090  0.0039  0.5041
   55MOL   C21517603   4.731   4.251   4.889 -0.2328 -0.1133 -0.2018
   55MOL   H21617604   4.954   3.904   4.580  1.2305 -0.3562  1.7080
   55MOL   H21717605   4.942   3.905   4.745  0.5960 -0.9313 -0.3017
   55MOL   H21817606   4.706   4.029   4.692 -0.5289 -0.1563 -3.2566
   55MOL   H21917607   4.872   4.070   4.905  0.7261 -0.3358 -1.1744
   55MOL   H22017608   4.959   4.352   4.934 -0.6891 -0.2774 -0.2270
   55MOL   H22117609   5.087   4.234   4.886  0.4855 -1.1225  1.1885
   55MOL   H22217610   5.000   4.212   5.036 -0.3784 -0.4567  0.4167
   55MOL   H22317611   4.645   4.187   4.866  0.5450 -1.5524  0.7493
   55MOL   H22417612   4.726   4.346   4.836 -0.4271 -0.0920 -0.1432
   55MOL   H22517613   4.723   4.274   4.995  1.3634 -0.8905  0.1113
   55MOL   C22617614   4.774   4.097   4.512 -0.1750  0.3513 -0.3791
   55MOL   C22717615   4.622   4.102   4.472  0.2038 -0.2528  0.1734
   55MOL   O22817616   4.604   4.118   4.335 -0.0091  0.2527  0.5837
   55MOL   C22917617   4.586   3.997   4.263 -0.1347  0.5015 -0.0946
   55MOL   C23017618   4.635   4.031   4.114  0.8878  0.0351 -0.2604
   55MOL   C23117619   4.438   3.959   4.268  0.0439  0.5018 -0.0066
   55MOL   H23217620   4.813   4.023   4.442 -0.5507  2.2242 -2.6370
   55MOL   H23317621   4.833   4.187   4.491 -0.4636  0.4050 -0.9699
   55MOL   H23417622   4.577   4.010   4.508 -0.6917 -0.7721 -2.2094
   55MOL   H23517623   4.655   3.918   4.294 -1.2010 -0.6435 -0.5982
   55MOL   H23617624   4.574   4.113   4.078  1.9775  0.6030 -0.8469
   55MOL   H23717625   4.734   4.074   4.127  0.9117  0.0531 -0.5068
   55MOL   H23817626   4.636   3.942   4.051  0.7448 -0.3279  0.2450
   55MOL   H23917627   4.403   3.954   4.371  2.3009 -1.9649  0.6832
   55MOL   H24017628   4.408   3.873   4.207 -0.2789  0.3413  0.3793
   55MOL   H24117629   4.377   4.040   4.227 -0.4657  0.6385  1.0071
   55MOL   C24217630   4.564   4.231   4.537 -0.0127 -0.2054 -0.3037
   55MOL   C24317631   4.411   4.227   4.551  0.5786 -0.1059 -0.4354
   55MOL   O24417632   4.355   4.355   4.587 -0.8923 -0.0649  0.1346
   55MOL   C24517633   4.365   4.453   4.489  0.5629 -0.1156 -0.0431
   55MOL   C24617634   4.282   4.411   4.368 -0.2618 -0.5188 -0.4092
   55MOL   C24717635   4.327   4.587   4.564  0.5547  0.0829 -0.7170
   55MOL   H24817636   4.617   4.246   4.631 -0.9234 -0.2672  0.2218
   55MOL   H24917637   4.605   4.307   4.471  1.2961  0.1499  0.8818
   55MOL   H25017638   4.359   4.194   4.461 -0.7906 -0.2854  0.4097
   55MOL   H25117639   4.468   4.464   4.454  0.2751  1.9114 -0.3404
   55MOL   H25217640   4.181   4.381   4.397 -0.6142  0.9769 -0.0200
   55MOL   H25317641   4.269   4.504   4.312  2.9724  0.3342  0.1508
   55MOL   H25417642   4.336   4.339   4.308  3.4460  2.2819 -0.6134
   55MOL   H25517643   4.388   4.603   4.653 -0.2277  1.0166 -0.3291
   55MOL   H25617644   4.333   4.672   4.496  1.1762  0.4889 -0.1556
   55MOL   H25717645   4.222   4.593   4.594  0.0314  0.9148 -2.5864
   55MOL   C25817646   4.372   4.135   4.660 -0.0596 -0.3070 -0.0894
   55MOL   C25917647   4.218   4.109   4.676 -0.8882  0.2407 -0.1558
   55MOL   O26017648   4.201   4.050   4.805 -0.1340  0.2591 -0.2325
   55MOL   C26117649   4.206   4.134   4.924  0.0607  0.1944 -0.6084
   55MOL   C26217650   4.087   4.137   5.012 -0.1166 -0.9941  0.2493
   55MOL   C26317651   4.319   4.087   5.021  0.8447 -0.1951 -0.3745
   55MOL   H26417652   4.429   4.042   4.654  0.7969  0.1786  0.3764
   55MOL   H26517653   4.415   4.169   4.755 -0.1129  1.3359 -0.6513
   55MOL   H26617654   4.167   4.205   4.673 -0.0898  0.6912  0.6807
   55MOL   H26717655   4.229   4.238   4.898  0.6402  0.5163  1.0663
   55MOL   H26817656   3.996   4.159   4.955 -0.6852  0.2464  1.5984
   55MOL   H26917657   4.086   4.206   5.096  1.3601 -0.4639 -0.1557
   55MOL   H27017658   4.066   4.043   5.062 -0.4783 -0.7646  0.5306
   55MOL   H27117659   4.402   4.055   4.958  0.0497 -1.1879 -0.9305
   55MOL   H27217660   4.345   4.159   5.099  0.1081  0.5956 -0.8527
   55MOL   H27317661   4.283   3.996   5.069 -0.0443  0.3500 -0.0021
   55MOL   C27417662   4.150   4.002   4.578 -0.0489 -0.4265  0.7187
   55MOL   C27517663   4.001   3.997   4.567  0.0983 -0.7063 -0.1691
   55MOL   O27617664   3.963   3.931   4.455 -0.0571 -0.6267  0.6214
   55MOL   C27717665   3.942   4.003   4.334  0.3049 -0.1384 -0.1421
   55MOL   C27817666   3.800   4.076   4.340  0.3557  0.2268  0.7066
   55MOL   C27917667   3.964   3.906   4.217  0.4862  0.4343  0.3976
   55MOL   H28017668   4.188   4.025   4.478 -0.0442 -0.4215  0.7220
   55MOL   H28117669   4.183   3.899   4.595 -2.2528 -1.3589 -0.4056
   55MOL   H28217670   3.953   4.095   4.565 -1.3310 -1.3463  1.8229
   55MOL   H28317671   4.018   4.079   4.318  0.3875 -0.0112  0.7977
   55MOL   H28417672   3.715   4.007   4.333  1.4942 -1.2048  0.7560
   55MOL   H28517673   3.790   4.132   4.433 -0.0995 -0.5794  1.1539
   55MOL   H28617674   3.774   4.140   4.255 -1.2498  0.1051  1.0970
   55MOL   H28717675   3.954   3.968   4.128  3.7516  0.9515  0.3041
   55MOL   H28817676   3.883   3.834   4.215  0.1705  0.8216 -1.7061
   55MOL   H28917677   4.059   3.852   4.217 -0.4217 -1.1691  0.8950
   55MOL   C29017678   3.940   3.906   4.678  0.1567 -0.3518 -0.2387
   55MOL   C29117679   3.788   3.939   4.709 -0.2774  0.6799 -0.5272
   55MOL   O29217680   3.711   3.834   4.778  0.2841 -0.1150 -0.4147
   55MOL   C29317681   3.619   3.753   4.701  0.2653 -0.4104 -0.1180
   55MOL   C29417682   3.580   3.656   4.813  0.7958  0.4295  0.4998
   55MOL   C29517683   3.703   3.688   4.587  0.0217 -0.1191  0.0053
   55MOL   H29617684   3.996   3.895   4.771 -0.8088 -0.6472  0.3141
   55MOL   H29717685   3.953   3.801   4.650  0.1134 -0.2144 -0.7813
   55MOL   H29817686   3.737   3.969   4.617 -0.8667  1.2795 -0.0081
   55MOL   H29917687   3.530   3.808   4.671 -1.1117 -1.8550  1.2537
   55MOL   H30017688   3.544   3.719   4.894  0.2131  0.9922 -0.1980
   55MOL   H30117689   3.506   3.581   4.785 -0.1065  1.6434 -0.3906
   55MOL   H30217690   3.675   3.609   4.841  0.1645 -1.7578 -0.8941
   55MOL   H30317691   3.785   3.635   4.635  0.0682 -0.9262 -0.9252
   55MOL   H30417692   3.645   3.608   4.540 -0.4523  0.4978 -0.4697
   55MOL   H30517693   3.743   3.753   4.509 -0.1276  0.3733  0.3402
   55MOL   C30617694   3.788   4.059   4.810  1.0397  0.2933 -0.2453
   55MOL   C30717695   3.653   4.140   4.836  0.4209 -0.0039 -0.4269
   55MOL   O30817696   3.685   4.234   4.935  0.6069 -0.0723 -0.4505
   55MOL   C30917697   3.570   4.300   4.981  1.2091  0.6920  0.5326
   55MOL   C31017698   3.610   4.387   5.105 -0.2661  0.0079 -0.2254
   55MOL   C31117699   3.511   4.396   4.881 -0.2500 -0.5209  0.2169
   55MOL   H31217700   3.868   4.131   4.791  0.7114  1.6172  3.0558
   55MOL   H31317701   3.795   4.022   4.912 -0.2892 -0.4157 -0.4061
   55MOL   H31417702   3.624   4.184   4.740 -1.1554  1.8954  0.8716
   55MOL   H31517703   3.487   4.240   5.018  1.0753  2.0619  2.5066
   55MOL   H31617704   3.527   4.442   5.150 -0.6764 -1.4594  0.8645
   55MOL   H31717705   3.685   4.458   5.070  0.0567 -0.0891  0.2581
   55MOL   H31817706   3.657   4.331   5.187 -1.5501  0.6672  0.9843
   55MOL   H31917707   3.464   4.336   4.804 -2.0637  0.4965  0.4904
   55MOL   H32017708   3.587   4.460   4.836 -1.4234  0.4981 -0.3478
   55MOL   H32117709   3.437   4.453   4.938  1.2823 -0.8763  2.6741
   55MOL   H32217710   3.571   4.074   4.864  0.7187 -0.6865 -1.1631
   56MOL     C117711   6.199   2.503   0.175 -0.1462  0.7408 -0.5384
   56MOL     C217712   6.172   2.527   0.020 -0.2918  0.1525  0.6231
   56MOL     O317713   6.275   2.452   7.787 -0.2263 -0.3975  0.3914
   56MOL     C417714   6.349   2.509   7.680 -0.8586 -0.0109 -0.4436
   56MOL     C517715   6.415   2.388   7.608  0.1304 -0.0137 -0.1994
   56MOL     C617716   6.452   2.611   7.726 -0.5396 -0.5216  0.1167
   56MOL     H717717   6.293   2.533   0.220 -1.3472  1.9057  1.2258
   56MOL     H817718   6.121   2.551   0.234  0.3282  0.5220  0.2745
   56MOL     H917719   6.184   2.632   7.815  0.2729 -0.1243 -0.2743
   56MOL    H1017720   6.278   2.559   7.614 -0.7792  2.2186  1.1097
   56MOL    H1117721   6.456   2.424   7.514  0.7321 -0.4940 -0.1176
   56MOL    H1217722   6.502   2.358   7.667 -0.7660 -1.6336  0.3215
   56MOL    H1317723   6.352   2.300   7.600 -0.6756  0.5766 -0.4206
   56MOL    H1417724   6.535   2.574   7.786 -1.8047 -1.8048  1.1082
   56MOL    H1517725   6.495   2.652   7.634  2.1403 -0.1432  1.4985
   56MOL    H1617726   6.415   2.698   7.779  0.9995  0.4911 -0.4345
   56MOL    H1717727   6.190   2.394   0.184 -0.2441  0.5657 -2.4451
   56MOL    C1817728   6.035   2.464   7.787 -0.3204 -0.3741  0.2469
   56MOL    C1917729   5.913   2.564   7.789  0.1282 -0.6510  0.5853
   56MOL    O2017730   5.938   2.674   7.697 -0.4926  0.8722  0.0304
   56MOL    C2117731   5.901   2.646   7.564  0.0683  0.0001 -0.4691
   56MOL    C2217732   5.964   2.759   7.488  0.2003 -0.4111  0.2496
   56MOL    C2317733   5.746   2.646   7.551 -0.2635  0.0332  0.5036
   56MOL    H2417734   6.053   2.433   7.684  2.1570  1.1984  0.1544
   56MOL    H2517735   6.010   2.374   0.023  2.7417 -1.3638  0.1053
   56MOL    H2617736   5.826   2.511   7.751 -0.3261  0.0574  0.6215
   56MOL    H2717737   5.938   2.550   7.528  0.0736 -0.0949 -0.2117
   56MOL    H2817738   6.073   2.765   7.500  0.1671 -0.7860  0.7448
   56MOL    H2917739   5.950   2.746   7.381 -0.2629  1.5711  0.0448
   56MOL    H3017740   5.913   2.850   7.518 -0.8020  0.1180 -2.9047
   56MOL    H3117741   5.712   2.546   7.577 -0.6547  0.3919  1.3991
   56MOL    H3217742   5.721   2.666   7.447 -0.0995 -4.5445 -0.4916
   56MOL    H3317743   5.695   2.726   7.606  0.2875  2.6744 -2.6464
   56MOL    C3417744   5.876   2.622   0.103  0.2131 -0.4534  0.5954
   56MOL    C3517745   5.740   2.691   0.095  0.4525 -0.3969 -0.1399
   56MOL    O3617746   5.684   2.666   0.225 -0.0767 -0.1107 -0.1709
   56MOL    C3717747   5.621   2.546   0.254 -0.1365 -0.3340 -0.0356
   56MOL    C3817748   5.666   2.487   0.386 -0.3120 -0.3461  0.0693
   56MOL    C3917749   5.475   2.573   0.251  0.3875 -0.0014 -0.1359
   56MOL    H4017750   5.946   2.703   0.125 -0.5002  0.2624  0.2584
   56MOL    H4117751   5.896   2.550   0.182  1.9661 -2.9033 -2.0051
   56MOL    H4217752   5.681   2.639   0.020  1.2892 -2.6234  0.6913
   56MOL    H4317753   5.647   2.466   0.183  2.1126 -0.4420  0.8521
   56MOL    H4417754   5.770   2.455   0.389 -0.5199 -1.1192 -0.6745
   56MOL    H4517755   5.609   2.397   0.410 -2.4325  0.6876 -0.9019
   56MOL    H4617756   5.641   2.551   0.471 -0.4921  1.5591 -1.3809
   56MOL    H4717757   5.444   2.648   0.324  1.4741  0.8131 -0.4994
   56MOL    H4817758   5.437   2.598   0.152 -0.3386  0.0559  0.1537
   56MOL    H4917759   5.417   2.485   0.278  1.6557 -0.2532  1.8912
   56MOL    C5017760   5.746   2.839   0.063 -0.7663  0.1829 -0.3601
   56MOL    C5117761   5.621   2.918   0.053  0.3482 -0.1445 -0.1081
   56MOL    O5217762   5.552   2.883   7.744  0.3835  0.4680 -0.2877
   56MOL    C5317763   5.419   2.848   7.756 -0.3889  0.2843 -0.5641
   56MOL    C5417764   5.384   2.787   7.622  0.0053  0.2070  0.4911
   56MOL    C5517765   5.324   2.961   7.803  0.4280 -0.3293 -0.5140
   56MOL    H5617766   5.786   2.870   0.160 -0.4409  0.7937 -0.6848
   56MOL    H5717767   5.822   2.864   7.809 -0.1278 -1.8834 -0.4085
   56MOL    H5817768   5.565   2.890   0.142 -1.2424  1.4727 -0.5556
   56MOL    H5917769   5.418   2.765   0.006 -1.8502  1.9775  1.4473
   56MOL    H6017770   5.370   2.866   7.548 -1.2751 -1.2392 -0.8422
   56MOL    H6117771   5.307   2.709   7.625 -0.6952  0.9387  1.5866
   56MOL    H6217772   5.467   2.731   7.579 -0.4098 -1.8578  2.2604
   56MOL    H6317773   5.353   3.009   0.076  1.3813  2.0103 -1.9754
   56MOL    H6417774   5.221   2.927   7.787  0.4342 -0.1189 -1.0043
   56MOL    H6517775   5.333   3.041   7.729  3.2995  1.5400  1.7595
   56MOL    C6617776   5.631   3.074   0.047  0.0931  0.1620 -0.0758
   56MOL    C6717777   5.719   3.134   0.155 -0.1870  0.2251 -1.2118
   56MOL    O6817778   5.660   3.264   0.191 -0.0532  0.7671 -0.2363
   56MOL    C6917779   5.570   3.252   0.293  0.5323  0.1176  0.2398
   56MOL    C7017780   5.649   3.256   0.422  0.2883  1.0504  0.3855
   56MOL    C7117781   5.474   3.367   0.283 -0.5193 -0.3664  0.5060
   56MOL    H7217782   5.668   3.081   7.765 -2.5406  0.3390 -1.0731
   56MOL    H7317783   5.539   3.132   0.035 -1.8452 -2.6532  0.4095
   56MOL    H7417784   5.710   3.070   0.242  0.8471 -0.7871 -1.8446
   56MOL    H7517785   5.521   3.155   0.282  0.7825  0.3049 -2.9729
   56MOL    H7617786   5.728   3.182   0.433 -0.6417 -0.1298 -0.8305
   56MOL    H7717787   5.704   3.349   0.441 -1.3436  2.1589 -0.1726
   56MOL    H7817788   5.586   3.242   0.509 -1.3499  0.6224 -0.8586
   56MOL    H7917789   5.517   3.467   0.281 -1.9364  0.2448 -2.1860
   56MOL    H8017790   5.396   3.366   0.359  0.0073  0.3683  1.0663
   56MOL    H8117791   5.434   3.358   0.182 -1.5546 -0.7027  0.9338
   56MOL    C8217792   5.864   3.152   0.107 -0.1682 -0.4334 -0.1899
   56MOL    C8317793   5.968   3.174   0.221  0.5002  0.0432 -0.4141
   56MOL    O8417794   6.090   3.111   0.176 -0.6267 -0.7483 -0.1486
   56MOL    C8517795   6.111   2.983   0.231  0.0604  0.6633  0.1834
   56MOL    C8617796   6.207   3.003   0.344  0.2858  0.4439 -0.1552
   56MOL    C8717797   6.175   2.907   0.108 -0.4604 -0.6864 -0.8114
   56MOL    H8817798   5.900   3.060   0.063  0.4246 -0.3348  0.0811
   56MOL    H8917799   5.868   3.228   0.029 -1.6360  0.0897  0.2204
   56MOL    H9017800   5.928   3.137   0.315  2.1303  0.8241  0.6166
   56MOL    H9117801   6.024   2.924   0.257  1.5067 -1.5565  0.0851
   56MOL    H9217802   6.171   3.063   0.427 -0.1804  2.2230 -1.5966
   56MOL    H9317803   6.254   2.914   0.386 -2.1197 -1.6146 -1.6367
   56MOL    H9417804   6.293   3.054   0.300  1.3701 -0.1436  1.2532
   56MOL    H9517805   6.272   2.952   0.085  0.3278 -2.4716 -1.0392
   56MOL    H9617806   6.183   2.805   0.143 -0.2231  0.0853  1.4612
   56MOL    H9717807   6.104   2.912   0.025 -0.9283 -0.2637 -0.3902
   56MOL    C9817808   5.988   3.328   0.234  0.4289 -0.2254  0.1232
   56MOL    C9917809   6.059   3.365   0.367  0.9632 -0.4942  0.7778
   56MOL   O10017810   5.971   3.319   0.472 -0.5429 -0.0129 -0.1172
   56MOL   C10117811   6.021   3.283   0.602 -0.0894  0.0070 -0.6991
   56MOL   C10217812   5.912   3.190   0.665 -0.1818 -0.3712  0.1638
   56MOL   C10317813   6.042   3.398   0.704 -0.3439 -0.1455 -0.2039
   56MOL   H10417814   6.050   3.358   0.150 -0.6704 -1.1550 -1.0497
   56MOL   H10517815   5.898   3.390   0.235 -0.4902 -1.4228 -2.3928
   56MOL   H10617816   6.151   3.306   0.371  0.1191 -1.7226  2.4071
   56MOL   H10717817   6.111   3.224   0.592  0.0199  0.0742 -0.1015
   56MOL   H10817818   5.896   3.094   0.616 -1.8576  0.8536 -1.7870
   56MOL   H10917819   5.815   3.233   0.690 -0.6095  0.7450 -3.0740
   56MOL   H11017820   5.956   3.161   0.760  0.9987  1.8871  0.3594
   56MOL   H11117821   6.136   3.451   0.694 -0.6838  0.5639  0.2990
   56MOL   H11217822   6.039   3.360   0.806 -2.4936  0.9786  0.1926
   56MOL   H11317823   5.960   3.468   0.690 -0.0234  0.2109 -0.3098
   56MOL   C11417824   6.084   3.521   0.378 -0.8224 -0.3452 -0.2695
   56MOL   C11517825   6.189   3.576   0.281  0.1087 -0.0867  0.8192
   56MOL   O11617826   6.184   3.712   0.292 -0.0075  0.0318 -0.6223
   56MOL   C11717827   6.123   3.785   0.180  0.3789 -0.5532 -0.2360
   56MOL   C11817828   6.188   3.921   0.173 -0.2445  0.4637 -0.0875
   56MOL   C11917829   5.968   3.801   0.198  0.1963  0.3272 -0.1337
   56MOL   H12017830   6.112   3.543   0.481 -0.4489 -0.1374 -0.4158
   56MOL   H12117831   5.993   3.580   0.376 -0.3143  0.5123  0.9375
   56MOL   H12217832   6.170   3.533   0.183  0.7930 -0.0065  0.6514
   56MOL   H12317833   6.137   3.727   0.088 -2.0907 -1.8695  0.1891
   56MOL   H12417834   6.133   3.980   0.100  0.1379  0.9824  0.0360
   56MOL   H12517835   6.291   3.903   0.141 -0.7225 -0.1871 -1.2925
   56MOL   H12617836   6.178   3.969   0.270  1.0692  0.4733  0.0540
   56MOL   H12717837   5.937   3.830   0.299  2.0483 -0.8658  0.7892
   56MOL   H12817838   5.919   3.704   0.193 -2.2264  1.3390  2.4590
   56MOL   H12917839   5.929   3.858   0.113  1.4172  0.6417 -0.4854
   56MOL   C13017840   6.330   3.545   0.340 -0.6597 -0.1554  0.1697
   56MOL   C13117841   6.439   3.584   0.247  0.2888  0.2918 -0.3091
   56MOL   O13217842   6.496   3.460   0.189  0.0124 -0.2957 -0.1205
   56MOL   C13317843   6.421   3.410   0.076  0.1770 -0.5249  0.5578
   56MOL   C13417844   6.512   3.393   7.771  0.4432  0.3983 -0.4518
   56MOL   C13517845   6.391   3.264   0.113  0.2976  0.9015 -0.1818
   56MOL   H13617846   6.338   3.438   0.356 -0.9652  0.1997  2.8205
   56MOL   H13717847   6.351   3.580   0.441 -1.0585 -1.3192  0.6647
   56MOL   H13817848   6.386   3.650   0.179 -2.0915 -2.7283 -1.4755
   56MOL   H13917849   6.336   3.472   0.050 -0.0888 -1.1548 -0.0957
   56MOL   H14017850   6.548   3.487   7.730  1.0367 -0.4477 -1.9305
   56MOL   H14117851   6.471   3.340   7.684  0.9881 -0.6125 -0.1054
   56MOL   H14217852   6.596   3.328   7.794 -0.3085 -0.5932 -0.4369
   56MOL   H14317853   6.488   3.218   0.136 -0.8938 -1.5754  0.0519
   56MOL   H14417854   6.316   3.247   0.190 -0.3137 -0.5515 -1.0805
   56MOL   H14517855   6.349   3.206   0.031  2.7813  0.6108 -1.2897
   56MOL   C14617856   6.553   3.661   0.320  0.4036 -0.6583 -0.2877
   56MOL   C14717857   6.655   3.726   0.228 -0.9021  0.2545  0.1345
   56MOL   O14817858   6.587   3.832   0.153 -0.5410 -0.1425  0.6037
   56MOL   C14917859   6.639   3.851   0.023  0.9315 -0.0001  0.1508
   56MOL   C15017860   6.674   4.005   0.028 -0.6993  0.5750  0.8760
   56MOL   C15117861   6.537   3.814   7.742 -0.6417 -0.2215  0.3539
   56MOL   H15217862   6.592   3.590   0.394 -0.5842 -0.9496 -0.0440
   56MOL   H15317863   6.495   3.732   0.379  0.7484 -0.3172 -0.3515
   56MOL   H15417864   6.696   3.646   0.166  0.7853  0.4800  0.9145
   56MOL   H15517865   6.731   3.799   7.816  0.3181 -0.5650 -0.8502
   56MOL   H15617866   6.762   4.024   0.090  0.3926 -0.8670 -0.1847
   56MOL   H15717867   6.593   4.073   0.054 -0.4523  0.9817  0.6048
   56MOL   H15817868   6.710   4.043   7.752  1.5591 -2.0967  0.6008
   56MOL   H15917869   6.567   3.847   7.643 -0.2785 -0.1160  0.4971
   56MOL   H16017870   6.443   3.860   7.771 -0.1214 -0.3798  2.4178
   56MOL   H16117871   6.532   3.705   7.751  1.1336 -0.1505  2.8153
   56MOL   C16217872   6.786   3.779   0.293  0.7922 -0.0372 -0.0158
   56MOL   C16317873   6.887   3.677   0.348 -0.0393 -0.2790  0.0600
   56MOL   O16417874   7.017   3.702   0.292  0.0830  0.5987 -0.3583
   56MOL   C16517875   7.072   3.597   0.207  0.2606  0.4987 -0.2524
   56MOL   C16617876   7.219   3.633   0.194 -0.3051  0.0383  0.4328
   56MOL   C16717877   6.999   3.598   0.070 -0.5681  0.2608 -0.6541
   56MOL   H16817878   6.828   3.838   0.212 -0.2576 -1.8202 -1.8935
   56MOL   H16917879   6.754   3.846   0.373 -1.3068  0.8791 -1.5789
   56MOL   H17017880   6.848   3.582   0.312  0.4443 -0.7958  0.8662
   56MOL   H17117881   7.062   3.503   0.262  1.8888  1.8038  2.3948
   56MOL   H17217882   7.226   3.733   0.150 -0.8627 -0.7327 -1.4235
   56MOL   H17317883   7.284   3.565   0.139 -0.5993  0.1317 -0.0265
   56MOL   H17417884   7.269   3.664   0.287  0.0361  1.4029 -0.1834
   56MOL   H17517885   6.897   3.561   0.072 -0.3969 -0.1863  0.0731
   56MOL   H17617886   7.055   3.533   0.003 -0.2536 -1.7692  1.5025
   56MOL   H17717887   6.992   3.693   0.017 -1.5924  0.0721 -0.8502
   56MOL   C17817888   6.905   3.668   0.499 -0.1188 -0.3750 -0.0063
   56MOL   C17917889   6.999   3.562   0.548  0.3735  0.3383  0.0989
   56MOL   O18017890   7.041   3.587   0.683 -0.1182  0.2489  0.3152
   56MOL   C18117891   6.950   3.581   0.793  0.3227  0.3862  0.5975
   56MOL   C18217892   6.979   3.705   0.888 -0.1069  0.6999  0.8074
   56MOL   C18317893   6.951   3.449   0.860  0.2482 -0.8376 -0.3555
   56MOL   H18417894   6.808   3.641   0.540 -0.3642 -1.8295 -1.5078
   56MOL   H18517895   6.936   3.765   0.539 -0.9410  0.1641 -0.6515
   56MOL   H18617896   7.094   3.585   0.499 -0.4243  1.2505 -1.0557
   56MOL   H18717897   6.850   3.596   0.753  1.0134  1.1607 -0.9238
   56MOL   H18817898   6.919   3.706   0.979  0.0337 -0.2964  0.9136
   56MOL   H18917899   6.962   3.798   0.833 -0.4302 -1.1218 -2.2516
   56MOL   H19017900   7.080   3.693   0.929 -0.1239 -2.0070  0.1563
   56MOL   H19117901   6.879   3.437   0.940 -0.4789  1.3194 -0.6427
   56MOL   H19217902   7.046   3.437   0.912 -0.4962 -0.8533  1.0148
   56MOL   H19317903   6.928   3.370   0.789 -0.1964 -2.0789  1.1519
   56MOL   C19417904   6.951   3.417   0.527 -0.4719  0.6475  0.1181
   56MOL   C19517905   7.068   3.317   0.546 -0.2486 -0.3052  0.0647
   56MOL   O19617906   7.146   3.323   0.424  0.2104  0.4747 -0.8604
   56MOL   C19717907   7.279   3.277   0.440  0.4629 -0.1911 -0.4415
   56MOL   C19817908   7.334   3.278   0.293  0.2002  0.2206 -0.2355
   56MOL   C19917909   7.357   3.378   0.525  0.0869  0.8836 -0.4291
   56MOL   H20017910   6.856   3.410   0.581 -0.0808  1.5014  0.9267
   56MOL   H20117911   6.919   3.394   0.425  1.4054 -0.5079 -0.2241
   56MOL   H20217912   7.118   3.350   0.637 -0.1869  2.2669 -0.8662
   56MOL   H20317913   7.280   3.177   0.483 -2.7417 -0.0024  0.2328
   56MOL   H20417914   7.298   3.205   0.221 -0.5200  1.0563 -0.7272
   56MOL   H20517915   7.311   3.377   0.255 -0.7557  0.5747  1.2158
   56MOL   H20617916   7.442   3.271   0.304  0.3864  1.6876 -0.9902
   56MOL   H20717917   7.335   3.368   0.631  1.3161 -1.4750 -0.3607
   56MOL   H20817918   7.460   3.346   0.512 -0.5065 -0.7325 -1.2108
   56MOL   H20917919   7.332   3.479   0.493 -0.9481  0.1767 -1.9352
   56MOL   C21017920   7.010   3.174   0.546  0.0335 -0.1764 -0.6988
   56MOL   C21117921   7.037   3.101   0.685 -0.0369  0.6712 -0.2807
   56MOL   O21217922   6.978   2.970   0.688 -0.4609  0.0128  0.0946
   56MOL   C21317923   6.850   2.959   0.747 -0.3141 -0.5822  0.0421
   56MOL   C21417924   6.736   2.983   0.645 -1.0229 -0.1722  0.3739
   56MOL   C21517925   6.831   2.813   0.797  0.1058  0.0478  0.1944
   56MOL   H21617926   7.059   3.105   0.478  1.1903  0.4522 -0.5204
   56MOL   H21717927   6.904   3.170   0.518 -0.0279  0.4641 -0.5765
   56MOL   H21817928   6.983   3.160   0.760  2.1786  0.9005  1.1946
   56MOL   H21917929   6.844   3.019   0.838  0.0063 -0.0961 -0.2550
   56MOL   H22017930   6.766   2.942   0.548  1.1576  0.4698  0.7433
   56MOL   H22117931   6.717   3.089   0.628  0.3432 -0.0153 -0.2474
   56MOL   H22217932   6.645   2.937   0.681 -1.1455 -0.2747 -0.0641
   56MOL   H22317933   6.899   2.788   0.878 -3.0931 -0.7576  2.7262
   56MOL   H22417934   6.842   2.739   0.717 -0.2086  1.6035 -1.3077
   56MOL   H22517935   6.728   2.797   0.831  0.2056 -2.1291 -0.4380
   56MOL   C22617936   7.183   3.091   0.736  0.1344  0.2391  0.0824
   56MOL   C22717937   7.207   3.035   0.876 -0.7413 -0.3020 -0.3145
   56MOL   O22817938   7.169   3.146   0.957  0.0570  0.2848 -0.0414
   56MOL   C22917939   7.137   3.131   1.097 -0.1747  0.2246 -0.5032
   56MOL   C23017940   6.990   3.081   1.109 -1.3181 -0.1216 -0.0090
   56MOL   C23117941   7.156   3.269   1.165 -0.5278  0.2207 -0.2397
   56MOL   H23217942   7.245   3.179   0.716 -0.6617  0.4436 -1.5727
   56MOL   H23317943   7.225   3.017   0.668  2.2801  2.4601 -1.1152
   56MOL   H23417944   7.153   2.946   0.908  1.3280 -1.6908 -0.5520
   56MOL   H23517945   7.200   3.062   1.153  0.6498  1.4108  0.0432
   56MOL   H23617946   6.961   3.083   1.214 -0.6649  2.9664  0.1556
   56MOL   H23717947   6.913   3.149   1.071 -1.0782 -0.0751 -0.4072
   56MOL   H23817948   6.982   2.982   1.065 -2.6032 -0.6302  1.3067
   56MOL   H23917949   7.141   3.266   1.273  2.7082  0.1569  0.2514
   56MOL   H24017950   7.095   3.352   1.128 -1.5225 -0.1702  0.5284
   56MOL   H24117951   7.259   3.304   1.158 -0.0582 -1.0089  0.4793
   56MOL   C24217952   7.360   3.025   0.896  0.4433 -0.8548 -0.8405
   56MOL   C24317953   7.426   2.905   0.819 -0.3530 -0.2323  0.1548
   56MOL   O24417954   7.391   2.778   0.888 -0.0973  0.3409  0.0399
   56MOL   C24517955   7.262   2.723   0.864  0.1876  1.4714  0.9612
   56MOL   C24617956   7.281   2.597   0.773 -0.1921  1.0076  0.1430
   56MOL   C24717957   7.195   2.692   0.994 -0.7318 -0.1006 -0.0994
   56MOL   H24817958   7.403   3.112   0.846  1.1383 -0.2618  0.7725
   56MOL   H24917959   7.388   3.034   1.000  2.2590  0.9767 -1.4613
   56MOL   H25017960   7.388   2.899   0.717 -2.6976  0.6840  0.9363
   56MOL   H25117961   7.198   2.784   0.801 -0.0635  3.0703  2.7357
   56MOL   H25217962   7.301   2.517   0.844  0.7096 -0.0781 -1.3163
   56MOL   H25317963   7.186   2.569   0.728 -0.1858  0.1772  0.6341
   56MOL   H25417964   7.365   2.584   0.705  0.8486 -3.7487  2.1357
   56MOL   H25517965   7.249   2.617   1.051 -1.3234  0.6007  1.4275
   56MOL   H25617966   7.188   2.782   1.055 -0.9947  1.4615 -2.3517
   56MOL   H25717967   7.094   2.659   0.974 -0.5706 -0.6100 -0.0688
   56MOL   C25817968   7.583   2.908   0.824 -0.0979 -0.1878 -0.4593
   56MOL   C25917969   7.665   3.000   0.743 -0.2689  0.3111 -0.1575
   56MOL   O26017970   7.684   2.963   0.614 -0.0169  0.8903  0.2098
   56MOL   C26117971   7.578   2.957   0.520  0.2397 -0.0686 -1.7679
   56MOL   C26217972   7.606   3.029   0.390 -0.1043 -0.3672 -0.1455
   56MOL   C26317973   7.549   2.814   0.487 -0.4188 -0.2226 -0.0894
   56MOL   H26417974   7.599   2.927   0.930  0.9511  1.1994 -0.8560
   56MOL   H26517975   7.621   2.806   0.815  0.1031 -0.3189  1.6807
   56MOL   H26617976   7.617   3.098   0.745  3.1305  2.0595 -0.5737
   56MOL   H26717977   7.483   2.994   0.558  0.9228 -0.2895  0.1862
   56MOL   H26817978   7.520   3.025   0.323 -0.1403  0.1166 -0.1302
   56MOL   H26917979   7.688   2.985   0.332  0.5731 -0.8005  1.1210
   56MOL   H27017980   7.642   3.130   0.408 -0.2684  0.3563 -3.4864
   56MOL   H27117981   7.470   2.822   0.411  0.6751  0.4051 -1.1756
   56MOL   H27217982   7.622   2.752   0.436  0.2648 -1.8281  2.7352
   56MOL   H27317983   7.505   2.748   0.562 -0.1190  0.3426  0.5872
   56MOL   C27417984   7.806   2.999   0.793 -0.7671 -0.0937  0.2994
   56MOL   C27517985   0.077   3.118   0.751  0.3042 -0.3256  0.2641
   56MOL   O27617986   0.017   3.232   0.807  0.9276  0.2894  0.0922
   56MOL   C27717987   0.045   3.348   0.734 -0.3484 -0.4174  0.1805
   56MOL   C27817988   0.135   3.435   0.822  0.1329 -0.1607  0.2394
   56MOL   C27917989   7.724   3.425   0.711  0.0869  0.6369  0.1013
   56MOL   H28017990   7.804   3.014   0.901 -0.4281  2.7334 -0.0462
   56MOL   H28117991   0.020   2.898   0.771  0.5370  0.7618 -1.6685
   56MOL   H28217992   0.081   3.120   0.642 -0.4527 -1.3413  0.2075
   56MOL   H28317993   0.096   3.334   0.639  4.1859 -1.3952  2.6189
   56MOL   H28417994   0.241   3.412   0.814  0.5615  1.4425  1.1400
   56MOL   H28517995   0.129   3.540   0.793 -0.6127 -0.6776 -1.4964
   56MOL   H28617996   0.120   3.438   0.930  0.0396 -2.7485  0.3268
   56MOL   H28717997   7.747   3.527   0.682  1.4748  1.1619  2.9716
   56MOL   H28817998   7.657   3.416   0.797 -0.4262  3.3262  0.0295
   56MOL   H28917999   7.678   3.371   0.627  0.2548  0.3290  0.2046
   56MOL   C29018000   0.220   3.099   0.807  0.7436 -0.3697  0.5832
   56MOL   C29118001   0.304   2.986   0.741 -0.0173  0.5016  0.8558
   56MOL   O29218002   0.327   3.003   0.601  0.2191  0.3058  0.0638
   56MOL   C29318003   0.338   2.875   0.526  0.0692 -0.1260  0.1770
   56MOL   C29418004   0.415   2.916   0.396 -0.4810  0.5159 -0.1928
   56MOL   C29518005   0.203   2.812   0.484 -0.1434  0.6442  0.2915
   56MOL   H29618006   0.217   3.088   0.915  0.9756  1.0453  0.7476
   56MOL   H29718007   0.277   3.191   0.790  2.2404 -1.8224 -2.7805
   56MOL   H29818008   0.245   2.895   0.752  1.4562 -0.6513 -0.4656
   56MOL   H29918009   0.395   2.800   0.580  1.2220 -0.9200 -2.1030
   56MOL   H30018010   0.358   2.980   0.330  0.2001  0.3791 -0.9147
   56MOL   H30118011   0.506   2.970   0.423  0.5077 -1.1513 -0.1086
   56MOL   H30218012   0.441   2.829   0.337 -1.8174 -0.4489  0.6161
   56MOL   H30318013   0.166   2.886   0.413  0.3027  0.7228  0.1399
   56MOL   H30418014   0.230   2.713   0.448 -0.1317  1.0338 -0.7900
   56MOL   H30518015   0.128   2.801   0.562 -1.2992  1.8185 -0.6341
   56MOL   C30618016   0.437   2.942   0.815 -0.4054 -0.0052  0.7877
   56MOL   C30718017   0.544   3.057   0.793  0.0772  0.0309  1.0099
   56MOL   O30818018   0.652   3.024   0.875 -0.0792 -0.5639  0.5343
   56MOL   C30918019   0.778   3.092   0.856  0.3525 -0.5376  0.2972
   56MOL   C31018020   0.766   3.234   0.913  0.5866 -0.0441  0.0852
   56MOL   C31118021   0.884   3.021   0.934 -0.4622 -0.6399 -0.1160
   56MOL   H31218022   0.474   2.853   0.765  2.3796  1.8860 -0.6511
   56MOL   H31318023   0.412   2.930   0.920 -1.8320 -1.1346  0.3522
   56MOL   H31418024   0.583   3.056   0.692  1.0348  1.5103  1.3574
   56MOL   H31518025   0.800   3.089   0.749 -1.8661  0.6408 -0.2114
   56MOL   H31618026   0.729   3.240   1.015 -1.5333 -1.1542 -0.5906
   56MOL   H31718027   0.678   3.273   0.862  0.6670 -0.5464 -0.4473
   56MOL   H31818028   0.858   3.292   0.902  0.7960 -0.6580 -1.4752
   56MOL   H31918029   0.986   3.059   0.926 -0.6297 -0.4134 -1.2999
   56MOL   H32018030   0.889   2.916   0.905 -0.4380 -0.6322 -0.1400
   56MOL   H32118031   0.860   3.023   1.040  0.9434  1.3042  0.1971
   56MOL   H32218032   0.499   3.152   0.821  2.7116  0.9608  2.2732
   57MOL     C118033   4.354   3.874   3.844 -0.0533  0.2997  0.2618
   57MOL     C218034   4.425   3.926   3.708  0.0664  0.4346 -1.2377
   57MOL     O318035   4.562   3.946   3.748  0.4483 -0.2555  0.5284
   57MOL     C418036   4.631   4.035   3.660  0.4465 -0.2821  0.4662
   57MOL     C518037   4.734   3.957   3.577 -0.5507 -0.0061 -0.0248
   57MOL     C618038   4.708   4.142   3.735 -0.3008  0.3455 -0.0109
   57MOL     H718039   4.246   3.876   3.838  0.1129  2.1790 -3.5203
   57MOL     H818040   4.397   3.794   3.904  1.9037  1.1785  0.1006
   57MOL     H918041   4.385   4.026   3.689 -1.6270  0.2328  1.0429
   57MOL    H1018042   4.569   4.084   3.585  2.3511 -0.2937 -1.1940
   57MOL    H1118043   4.780   4.019   3.500 -2.4468 -0.2904 -1.4229
   57MOL    H1218044   4.820   3.931   3.639  1.3719  0.1094 -2.5651
   57MOL    H1318045   4.702   3.870   3.519 -2.3300  0.6159 -0.0034
   57MOL    H1418046   4.641   4.219   3.773  0.7555  0.9234  0.7292
   57MOL    H1518047   4.765   4.100   3.818  0.6495  0.3266 -0.6579
   57MOL    H1618048   4.781   4.190   3.669  0.2108 -1.5220 -0.8234
   57MOL    H1718049   4.362   3.958   3.914  1.5354  0.5613 -0.2060
   57MOL    C1818050   4.401   3.829   3.592  0.3451 -0.6007  0.3925
   57MOL    C1918051   4.264   3.760   3.572  0.6034  0.0266  0.2620
   57MOL    O2018052   4.272   3.658   3.474  0.0445  0.1321  0.1143
   57MOL    C2118053   4.237   3.523   3.520  0.1993 -0.1226 -0.0386
   57MOL    C2218054   4.371   3.445   3.539  0.1036 -0.4457 -0.0067
   57MOL    C2318055   4.149   3.464   3.410  0.0983 -0.4885 -0.5323
   57MOL    H2418056   4.439   3.870   3.498 -1.3639 -3.0432 -1.4333
   57MOL    H2518057   4.457   3.738   3.608  0.7211 -0.8918 -2.3449
   57MOL    H2618058   4.233   3.729   3.672 -1.1275  1.8474  0.3182
   57MOL    H2718059   4.173   3.528   3.608 -2.8924  0.0990 -2.2275
   57MOL    H2818060   4.428   3.487   3.622  0.4352 -1.4940  0.3089
   57MOL    H2918061   4.364   3.337   3.553 -0.0427 -0.3843  0.4045
   57MOL    H3018062   4.435   3.458   3.452 -0.0642 -2.9268 -0.5502
   57MOL    H3118063   4.219   3.465   3.326 -0.2069  1.2415 -0.7762
   57MOL    H3218064   4.080   3.545   3.387  2.7629  1.4574 -1.9738
   57MOL    H3318065   4.111   3.371   3.451  0.8424 -0.2986  0.6136
   57MOL    C3418066   4.170   3.864   3.501 -0.6919 -0.4661  0.0635
   57MOL    C3518067   4.023   3.823   3.483  0.1815 -0.2265 -0.0005
   57MOL    O3618068   3.962   3.849   3.612  0.4517  0.1528 -0.0356
   57MOL    C3718069   3.839   3.782   3.641 -0.5382 -0.0398  0.3024
   57MOL    C3818070   3.865   3.639   3.695 -0.0079 -0.2435  0.1582
   57MOL    C3918071   3.776   3.864   3.752 -1.0032  0.0226  0.1391
   57MOL    H4018072   4.214   3.893   3.406  0.0168 -0.5634  0.3643
   57MOL    H4118073   4.177   3.959   3.553 -0.5237 -0.3375 -0.1935
   57MOL    H4218074   4.021   3.717   3.458 -0.1749 -1.4394  4.5604
   57MOL    H4318075   3.769   3.779   3.557 -0.5660  1.5337  0.2484
   57MOL    H4418076   3.915   3.582   3.616  1.6035 -0.8609  1.6079
   57MOL    H4518077   3.775   3.584   3.722  0.1222 -0.0118  1.0856
   57MOL    H4618078   3.928   3.627   3.782 -1.1269 -2.1349  0.7495
   57MOL    H4718079   3.840   3.868   3.840 -1.4716 -2.0427  0.5841
   57MOL    H4818080   3.773   3.965   3.711  2.0551 -0.6739 -1.9453
   57MOL    H4918081   3.682   3.822   3.787  0.6959 -2.0162  2.3841
   57MOL    C5018082   3.944   3.901   3.375  0.0191 -0.0167  0.5483
   57MOL    C5118083   3.928   3.827   3.243  0.2820 -0.0934  0.7028
   57MOL    O5218084   3.869   3.696   3.247  0.0379 -0.5075 -0.0372
   57MOL    C5318085   3.731   3.681   3.269 -0.3048 -0.2839 -0.1708
   57MOL    C5418086   3.723   3.535   3.298  0.0854 -0.3449  0.7680
   57MOL    C5518087   3.674   3.711   3.132  0.1508  0.2828  0.2060
   57MOL    H5618088   3.842   3.917   3.410  0.2639 -0.5012  1.4955
   57MOL    H5718089   3.986   4.001   3.363 -2.3228  1.0587  0.9326
   57MOL    H5818090   3.868   3.884   3.172  0.1418 -2.6796 -1.3598
   57MOL    H5918091   3.700   3.744   3.352 -2.2873 -1.3121 -0.0939
   57MOL    H6018092   3.763   3.482   3.212 -0.2660  1.8661 -0.7967
   57MOL    H6118093   3.621   3.498   3.312  0.5731 -2.3735 -0.8817
   57MOL    H6218094   3.784   3.501   3.382  1.0876 -1.3028 -0.3380
   57MOL    H6318095   3.722   3.649   3.056 -0.5505 -0.0201  0.0097
   57MOL    H6418096   3.698   3.810   3.095 -0.0215  1.2353  2.5627
   57MOL    H6518097   3.570   3.685   3.113 -0.1496 -1.0750  3.3970
   57MOL    C6618098   4.072   3.794   3.181  0.4323 -0.1033 -1.1345
   57MOL    C6718099   4.072   3.727   3.045  0.3404 -0.0327 -0.1276
   57MOL    O6818100   4.201   3.700   2.994 -0.6765 -0.2147  0.6772
   57MOL    C6918101   4.256   3.581   3.053 -0.2522 -0.5076  0.3456
   57MOL    C7018102   4.269   3.473   2.939 -0.1571 -0.3681 -0.0559
   57MOL    C7118103   4.391   3.622   3.112 -0.0798 -0.0729 -0.1710
   57MOL    H7218104   4.137   3.881   3.178  1.1172 -0.5650 -0.0941
   57MOL    H7318105   4.120   3.722   3.247  0.8525 -0.2756 -1.6256
   57MOL    H7418106   4.014   3.638   3.070 -0.8654  0.8823  0.3849
   57MOL    H7518107   4.191   3.544   3.132 -1.3746  1.0607  0.1970
   57MOL    H7618108   4.172   3.437   2.906 -0.4604  1.3122 -1.0011
   57MOL    H7718109   4.312   3.512   2.847  0.7270  1.2130  1.0068
   57MOL    H7818110   4.329   3.385   2.963 -0.2991 -0.4253  0.0924
   57MOL    H7918111   4.427   3.546   3.181 -0.1890 -0.6416 -0.7365
   57MOL    H8018112   4.381   3.709   3.177  3.2273  2.3967 -2.7893
   57MOL    H8118113   4.470   3.637   3.038  2.8512 -1.7360  2.5008
   57MOL    C8218114   4.011   3.822   2.934  0.3205 -0.1380  0.0770
   57MOL    C8318115   3.979   3.748   2.803  0.1086 -0.2397 -0.2621
   57MOL    O8418116   3.871   3.656   2.821  0.1042 -0.0617  0.1457
   57MOL    C8518117   3.868   3.552   2.734 -0.4335 -0.0386 -0.3339
   57MOL    C8618118   3.728   3.578   2.666 -0.1552  0.0837  0.2486
   57MOL    C8718119   3.872   3.421   2.809  0.3406  0.0212 -0.1015
   57MOL    H8818120   3.920   3.876   2.963  0.1072 -0.9199  0.8629
   57MOL    H8918121   4.088   3.896   2.913 -1.2815  1.5494 -0.0288
   57MOL    H9018122   4.069   3.689   2.782 -0.5681 -1.8203  1.1914
   57MOL    H9118123   3.940   3.561   2.653 -1.1961  1.9323 -0.8179
   57MOL    H9218124   3.708   3.682   2.641 -2.4666 -0.2459  0.5700
   57MOL    H9318125   3.731   3.522   2.572  1.4147  0.9408 -0.2248
   57MOL    H9418126   3.644   3.555   2.732 -0.9753  1.0014 -0.4423
   57MOL    H9518127   3.772   3.376   2.814 -0.1019  1.0566  0.7278
   57MOL    H9618128   3.929   3.343   2.758 -2.6434 -0.8134 -2.3690
   57MOL    H9718129   3.919   3.434   2.906  1.5933  1.3169 -0.8651
   57MOL    C9818130   3.959   3.840   2.678 -0.1214  0.5463  0.2552
   57MOL    C9918131   4.095   3.888   2.616 -0.4498 -0.4092 -0.3997
   57MOL   O10018132   4.160   3.971   2.717 -0.4156 -0.1516 -0.7790
   57MOL   C10118133   4.305   3.996   2.706  0.2328  0.2235  0.2441
   57MOL   C10218134   4.379   3.925   2.814 -0.2773  0.8571 -0.6918
   57MOL   C10318135   4.320   4.140   2.731  0.0944 -0.1955 -0.0521
   57MOL   H10418136   3.921   3.780   2.596  1.4322 -0.9302  0.5786
   57MOL   H10518137   3.895   3.926   2.698  1.0091  1.4993 -0.1529
   57MOL   H10618138   4.162   3.804   2.601 -0.0076  0.2838 -2.4898
   57MOL   H10718139   4.346   3.970   2.609 -2.6077  1.1056 -1.2696
   57MOL   H10818140   4.361   3.818   2.813  0.6038  0.6747  0.7541
   57MOL   H10918141   4.347   3.957   2.914  2.5885  2.1774 -0.1448
   57MOL   H11018142   4.487   3.925   2.803 -0.1693 -2.8272 -0.2875
   57MOL   H11118143   4.425   4.163   2.751 -0.3727  0.3911  1.8796
   57MOL   H11218144   4.267   4.185   2.815  0.9257 -0.1248  0.4432
   57MOL   H11318145   4.286   4.190   2.640 -0.9662 -0.5367  0.1502
   57MOL   C11418146   4.081   3.954   2.477 -0.0992 -0.4797 -0.3126
   57MOL   C11518147   4.187   3.921   2.371  0.6360 -0.5840  0.2163
   57MOL   O11618148   4.170   3.779   2.335 -0.4299 -0.0317 -0.5314
   57MOL   C11718149   4.287   3.710   2.286  0.5231  0.0288 -0.3114
   57MOL   C11818150   4.262   3.653   2.148 -0.0216  0.0516 -0.4253
   57MOL   C11918151   4.308   3.606   2.393 -0.3775  0.7760 -0.2994
   57MOL   H12018152   4.085   4.061   2.493  0.9272 -0.4664 -0.6367
   57MOL   H12118153   3.986   3.922   2.433  0.6258 -2.5779 -0.4267
   57MOL   H12218154   4.286   3.947   2.408  1.4789 -0.9952 -1.6912
   57MOL   H12318155   4.375   3.775   2.286 -0.7238  1.7490  0.4239
   57MOL   H12418156   4.174   3.588   2.149  1.3553 -1.9049 -1.9347
   57MOL   H12518157   4.354   3.610   2.109 -0.0885  0.1694 -0.7162
   57MOL   H12618158   4.248   3.743   2.089  0.8383  0.9973  0.7949
   57MOL   H12718159   4.384   3.532   2.369 -0.1411  1.7001 -2.5329
   57MOL   H12818160   4.222   3.540   2.399 -0.7078  1.0761 -1.6253
   57MOL   H12918161   4.322   3.643   2.495 -0.3510  2.9940 -1.0840
   57MOL   C13018162   4.160   3.997   2.240 -0.1832  0.3032 -0.0627
   57MOL   C13118163   4.168   4.150   2.239  0.3635  0.3927 -0.3580
   57MOL   O13218164   4.054   4.194   2.159  0.5059 -0.0676  0.2920
   57MOL   C13318165   3.936   4.222   2.231 -1.1796 -0.5083 -0.3680
   57MOL   C13418166   3.922   4.367   2.260  0.0108 -0.3319 -0.4862
   57MOL   C13518167   3.826   4.176   2.134  0.2530 -0.9684  0.1187
   57MOL   H13618168   4.064   3.962   2.200 -0.3434  0.7077 -0.0306
   57MOL   H13718169   4.232   3.962   2.166 -2.0021 -2.9826 -0.3897
   57MOL   H13818170   4.160   4.195   2.337 -1.3047  0.9284 -0.7301
   57MOL   H13918171   3.926   4.157   2.318  2.7747 -0.2291  0.4082
   57MOL   H14018172   3.935   4.431   2.173 -0.2902 -0.1957 -0.4316
   57MOL   H14118173   3.999   4.404   2.327 -0.4351  0.4897 -0.4167
   57MOL   H14218174   3.832   4.402   2.312  0.7754 -1.2962  1.5232
   57MOL   H14318175   3.812   4.068   2.121 -0.3337 -0.6418 -2.3661
   57MOL   H14418176   3.733   4.225   2.163 -0.3431 -0.3307 -2.6653
   57MOL   H14518177   3.852   4.216   2.036 -0.5238 -2.1745 -0.6082
   57MOL   C14618178   4.294   4.209   2.180 -0.2847  0.2955 -0.3504
   57MOL   C14718179   4.432   4.154   2.226 -0.1126 -0.2169  0.0154
   57MOL   O14818180   4.521   4.203   2.133 -0.3548  0.6664 -0.1393
   57MOL   C14918181   4.573   4.111   2.042  0.1154 -0.1752  0.1339
   57MOL   C15018182   4.701   4.177   1.998 -0.2391 -0.3188  0.3339
   57MOL   C15118183   4.473   4.086   1.935  1.1031  0.2671  0.6961
   57MOL   H15218184   4.290   4.318   2.189 -1.4727  0.2943 -0.7273
   57MOL   H15318185   4.272   4.182   2.076 -0.3825  0.5965 -0.4104
   57MOL   H15418186   4.421   4.046   2.222 -1.6375 -0.0268 -1.2722
   57MOL   H15518187   4.599   4.022   2.099  1.0959  0.6710  1.0218
   57MOL   H15618188   4.686   4.273   1.950 -3.1059 -0.9278 -0.0852
   57MOL   H15718189   4.754   4.106   1.934 -1.5877 -2.2335  1.2831
   57MOL   H15818190   4.771   4.182   2.082 -0.3510 -1.9565  0.5585
   57MOL   H15918191   4.518   4.023   1.858 -0.8825 -1.8160  1.1944
   57MOL   H16018192   4.427   4.177   1.896  1.1769 -0.2620 -0.6673
   57MOL   H16118193   4.394   4.026   1.979  0.6199  1.4857  1.5106
   57MOL   C16218194   4.466   4.190   2.369 -0.5652 -0.2105 -0.3133
   57MOL   C16318195   4.607   4.150   2.412  0.9551  0.1805  0.3527
   57MOL   O16418196   4.645   4.225   2.530  0.2855  0.0837 -0.3281
   57MOL   C16518197   4.713   4.352   2.512  0.0313  0.0861 -0.7172
   57MOL   C16618198   4.862   4.341   2.509 -0.3934  0.7181  0.0130
   57MOL   C16718199   4.662   4.440   2.629  0.3507 -0.0552 -0.0704
   57MOL   H16818200   4.465   4.299   2.369 -1.0340 -0.2014  1.6164
   57MOL   H16918201   4.393   4.160   2.443 -1.8331  0.8065 -1.1328
   57MOL   H17018202   4.665   4.166   2.322  0.5198  2.1323  0.3806
   57MOL   H17118203   4.683   4.396   2.416 -1.2882 -2.8605 -1.7290
   57MOL   H17218204   4.924   4.430   2.523 -0.0921  0.4845  0.1868
   57MOL   H17318205   4.900   4.287   2.422  2.4414  0.1060  1.5604
   57MOL   H17418206   4.891   4.281   2.595 -1.5100  2.0429  1.3408
   57MOL   H17518207   4.553   4.440   2.615  0.2454 -0.3186  0.7236
   57MOL   H17618208   4.703   4.540   2.623 -0.2249  0.2474  0.8838
   57MOL   H17718209   4.682   4.386   2.722 -0.8320  1.1863  0.9175
   57MOL   C17818210   4.621   4.000   2.452  0.5701  0.0264 -0.5711
   57MOL   C17918211   4.763   3.947   2.442  0.0481  0.6172  0.3592
   57MOL   O18018212   4.754   3.810   2.472 -0.8409 -0.0150  0.4565
   57MOL   C18118213   4.739   3.793   2.613 -0.1912  0.7330 -0.7574
   57MOL   C18218214   4.885   3.774   2.667  0.0456 -0.4175  0.1491
   57MOL   C18318215   4.654   3.668   2.640 -0.3403  0.4091  0.0792
   57MOL   H18418216   4.546   3.947   2.393  0.7565 -0.4092 -0.4164
   57MOL   H18518217   4.581   3.993   2.553  2.4334 -1.3497  0.1041
   57MOL   H18618218   4.833   3.992   2.512  1.5918  0.2808 -0.9548
   57MOL   H18718219   4.697   3.873   2.674 -1.7807 -0.2061 -0.5923
   57MOL   H18818220   4.943   3.693   2.622  2.1040  0.1537  1.6723
   57MOL   H18918221   4.890   3.743   2.771  1.0888 -0.0016  0.2324
   57MOL   H19018222   4.938   3.869   2.674 -2.4643  1.0312  0.0969
   57MOL   H19118223   4.685   3.572   2.598  1.8830  1.2223 -0.2160
   57MOL   H19218224   4.557   3.686   2.594 -0.5098  0.1471  0.3403
   57MOL   H19318225   4.640   3.646   2.745  0.3376  0.1531  0.1182
   57MOL   C19418226   4.824   3.947   2.296 -0.3696 -0.0194 -0.2577
   57MOL   C19518227   4.967   3.883   2.282  0.1767 -0.1197  0.1539
   57MOL   O19618228   5.058   3.978   2.331  0.1964 -0.4970 -0.1474
   57MOL   C19718229   5.153   3.941   2.431  0.1913 -0.3748 -0.7009
   57MOL   C19818230   5.255   3.847   2.365  0.1935  0.4250 -0.0273
   57MOL   C19918231   5.208   4.061   2.509 -0.4418  0.0217 -0.6105
   57MOL   H20018232   4.754   3.888   2.237  1.1080 -1.6647 -0.4110
   57MOL   H20118233   4.831   4.049   2.258 -1.9197 -0.3423 -1.4319
   57MOL   H20218234   4.967   3.786   2.331  0.1550  0.3643  1.1338
   57MOL   H20318235   5.097   3.894   2.511  3.0310  1.1238  2.3117
   57MOL   H20418236   5.272   3.888   2.265  0.5114 -0.0725 -0.1808
   57MOL   H20518237   5.352   3.846   2.413 -0.7350  0.9499  1.8947
   57MOL   H20618238   5.216   3.747   2.345  0.2806  0.2916  0.4784
   57MOL   H20718239   5.242   4.029   2.607 -1.6465  0.8908  0.1018
   57MOL   H20818240   5.297   4.101   2.460  1.4091  0.6300  3.0369
   57MOL   H20918241   5.130   4.133   2.530 -0.7745 -1.0144  1.8876
   57MOL   C21018242   4.996   3.862   2.130  0.2054 -0.4976 -0.1692
   57MOL   C21118243   4.943   3.723   2.074 -0.3881 -0.0972  0.1677
   57MOL   O21218244   4.800   3.730   2.062 -0.2834 -0.1520 -0.5514
   57MOL   C21318245   4.730   3.606   2.089 -0.1031  0.4166  0.2763
   57MOL   C21418246   4.694   3.600   2.236  0.3957 -0.0007 -0.5527
   57MOL   C21518247   4.615   3.592   1.990 -0.3380 -0.2829 -0.0397
   57MOL   H21618248   5.102   3.869   2.107 -0.0974 -0.3583 -1.5147
   57MOL   H21718249   4.952   3.943   2.072  0.4482  1.7581  2.6534
   57MOL   H21818250   4.970   3.650   2.150 -3.1172 -2.0415 -0.6249
   57MOL   H21918251   4.791   3.517   2.072 -1.0879 -0.4418  1.1341
   57MOL   H22018252   4.660   3.499   2.260 -1.0811  0.5999 -0.1067
   57MOL   H22118253   4.612   3.670   2.251 -0.7230 -0.5199 -3.8679
   57MOL   H22218254   4.773   3.631   2.305 -0.3859  1.1695 -0.1862
   57MOL   H22318255   4.561   3.682   1.961 -1.0731  0.2049  2.6891
   57MOL   H22418256   4.542   3.518   2.026  0.8824 -0.5242  2.0583
   57MOL   H22518257   4.652   3.534   1.906  1.1772 -0.3831  0.6925
   57MOL   C22618258   5.005   3.684   1.939  0.0622  0.2585 -0.3009
   57MOL   C22718259   5.161   3.667   1.924 -0.1974 -0.3598  0.4477
   57MOL   O22818260   5.206   3.669   1.786  0.0573 -0.5212 -0.4594
   57MOL   C22918261   5.224   3.793   1.715 -0.1704 -0.3752  0.6366
   57MOL   C23018262   5.172   3.768   1.567  0.5068 -0.2534  0.1934
   57MOL   C23118263   5.373   3.826   1.719 -0.1470 -0.2656 -0.8184
   57MOL   H23218264   4.981   3.765   1.871 -0.4316  1.1447  0.9151
   57MOL   H23318265   4.973   3.585   1.904  1.6998 -0.5959  0.5605
   57MOL   H23418266   5.215   3.747   1.974 -1.1850  1.1207 -0.8096
   57MOL   H23518267   5.166   3.874   1.760  0.8923  1.7490 -1.6680
   57MOL   H23618268   5.178   3.862   1.512  0.5165 -0.2497  0.2011
   57MOL   H23718269   5.236   3.695   1.518  0.8326 -0.0785  0.3570
   57MOL   H23818270   5.070   3.730   1.570  0.0879  0.9859  2.6780
   57MOL   H23918271   5.408   3.836   1.821 -0.3539  1.5924 -0.9071
   57MOL   H24018272   5.376   3.919   1.662 -0.0143 -0.1904 -0.6882
   57MOL   H24118273   5.433   3.744   1.681  1.1163  0.1868  0.1810
   57MOL   C24218274   5.212   3.533   1.983 -0.3266  0.6018  0.9688
   57MOL   C24318275   5.364   3.511   1.986  0.2097 -0.0448 -0.2826
   57MOL   O24418276   5.384   3.364   2.000 -0.1368 -0.2939  0.2270
   57MOL   C24518277   5.398   3.303   1.869 -0.5592  0.1701 -0.4076
   57MOL   C24618278   5.543   3.334   1.820  0.3746 -0.4391  0.3677
   57MOL   C24718279   5.361   3.159   1.884 -0.4056 -0.0314 -0.1753
   57MOL   H24818280   5.168   3.525   2.083 -0.9980  1.3266  0.7369
   57MOL   H24918281   5.172   3.453   1.921 -0.8713  1.8422 -0.3174
   57MOL   H25018282   5.419   3.553   1.902 -0.3328  1.8846  0.2910
   57MOL   H25118283   5.320   3.352   1.811  0.3582  1.2407 -0.7630
   57MOL   H25218284   5.584   3.433   1.838 -0.1750  0.0088 -0.8102
   57MOL   H25318285   5.612   3.279   1.884 -1.4260 -1.1466  1.7573
   57MOL   H25418286   5.566   3.297   1.721  1.0656 -1.7550  1.0120
   57MOL   H25518287   5.263   3.149   1.931  0.1359  1.7735  1.3807
   57MOL   H25618288   5.344   3.106   1.790  1.6988 -0.2472 -0.4587
   57MOL   H25718289   5.430   3.101   1.946 -1.1648 -2.0942 -1.2216
   57MOL   C25818290   5.419   3.582   2.114  0.3586 -0.1829  1.1079
   57MOL   C25918291   5.567   3.597   2.137 -0.1741 -0.1443  1.5284
   57MOL   O26018292   5.622   3.643   2.014  0.2855  0.5193 -0.0318
   57MOL   C26118293   5.749   3.712   2.010 -0.5677  0.3088  0.5235
   57MOL   C26218294   5.793   3.730   1.868 -0.0535 -0.3671 -0.0498
   57MOL   C26318295   5.770   3.831   2.098 -0.0695  0.2516  0.4293
   57MOL   H26418296   5.387   3.686   2.122  1.4594  0.1879  0.8043
   57MOL   H26518297   5.371   3.531   2.197 -2.3318  1.9167  0.9253
   57MOL   H26618298   5.580   3.676   2.211  2.4469 -0.1646  1.1214
   57MOL   H26718299   5.819   3.638   2.049  0.2189  0.9199  0.2752
   57MOL   H26818300   5.776   3.635   1.818 -1.9816 -0.3993  0.5875
   57MOL   H26918301   5.895   3.766   1.862 -0.8375  1.8304 -0.7087
   57MOL   H27018302   5.729   3.802   1.817 -2.1144 -2.6702 -0.8538
   57MOL   H27118303   5.868   3.878   2.089  0.6149 -0.8079  2.1962
   57MOL   H27218304   5.698   3.906   2.064 -1.6208 -0.9765  0.9730
   57MOL   H27318305   5.746   3.822   2.204  1.3319 -2.4254  0.5405
   57MOL   C27418306   5.636   3.473   2.185 -0.4375  0.0736  0.1965
   57MOL   C27518307   5.580   3.399   2.311  0.5651  0.7141  0.9230
   57MOL   O27618308   5.652   3.277   2.348 -0.2264 -0.5722 -0.0458
   57MOL   C27718309   5.641   3.168   2.263 -0.5016  0.6605  0.4415
   57MOL   C27818310   5.610   3.058   2.364  0.8004 -0.5456  0.0514
   57MOL   C27918311   5.766   3.151   2.173  0.3405 -0.0117 -0.0600
   57MOL   H28018312   5.643   3.400   2.104  1.6732  1.1416 -0.6389
   57MOL   H28118313   5.736   3.507   2.212  0.5168 -3.0905  0.7511
   57MOL   H28218314   5.477   3.372   2.288  0.1876  2.9250 -0.0683
   57MOL   H28318315   5.546   3.172   2.210 -0.1012  1.6966 -0.2075
   57MOL   H28418316   5.701   3.039   2.420  0.8492 -3.2030 -0.8674
   57MOL   H28518317   5.536   3.104   2.430 -0.9225 -3.2535  0.1020
   57MOL   H28618318   5.573   2.961   2.332 -0.7390 -0.1272  0.4812
   57MOL   H28718319   5.831   3.237   2.189 -0.7625  0.8925 -0.3685
   57MOL   H28818320   5.727   3.170   2.073 -0.4825  1.7510  0.5844
   57MOL   H28918321   5.824   3.059   2.179 -1.5797 -1.2977 -0.7468
   57MOL   C29018322   5.568   3.493   2.436  0.0355 -0.4707 -0.5968
   57MOL   C29118323   5.528   3.421   2.564  0.0237  0.1712  0.6116
   57MOL   O29218324   5.522   3.508   2.682 -0.2572  1.0159  0.1083
   57MOL   C29318325   5.522   3.450   2.808 -0.2785 -0.3087  0.4857
   57MOL   C29418326   5.388   3.473   2.882  0.5112 -0.0428  0.0655
   57MOL   C29518327   5.637   3.514   2.878 -0.3498  0.1914 -0.5601
   57MOL   H29618328   5.499   3.575   2.414 -1.3660 -1.5515 -0.2938
   57MOL   H29718329   5.663   3.539   2.464 -0.9413  0.6758  0.9861
   57MOL   H29818330   5.587   3.333   2.589 -1.7728 -0.2674  3.6061
   57MOL   H29918331   5.539   3.343   2.802  1.9717  0.0128  0.5068
   57MOL   H30018332   5.298   3.448   2.826 -0.1223 -2.0029  1.9112
   57MOL   H30118333   5.390   3.412   2.972 -2.1866 -0.7321 -0.3023
   57MOL   H30218334   5.368   3.579   2.900  1.8913  0.5961 -1.8771
   57MOL   H30318335   5.639   3.469   2.977  0.3198 -1.0073 -1.1186
   57MOL   H30418336   5.724   3.497   2.815 -0.2511  0.5356 -0.5177
   57MOL   H30518337   5.611   3.620   2.883 -0.7416  0.0079  2.2099
   57MOL   C30618338   5.380   3.367   2.552  0.5577  0.4547 -0.4947
   57MOL   C30718339   5.263   3.464   2.523  0.4155 -0.3154  0.5277
   57MOL   O30818340   5.135   3.398   2.534 -0.6427  0.0417  0.0164
   57MOL   C30918341   5.039   3.444   2.437  0.4138  0.4598  0.5098
   57MOL   C31018342   5.057   3.349   2.312  0.5650 -0.3388 -0.0585
   57MOL   C31118343   4.914   3.413   2.512  0.4285  0.0838 -0.2759
   57MOL   H31218344   5.343   3.315   2.640 -0.2193  2.3758  0.3393
   57MOL   H31318345   5.377   3.288   2.478  1.3003 -0.2163  0.1868
   57MOL   H31418346   5.259   3.550   2.590 -3.3745  0.1763 -0.2097
   57MOL   H31518347   5.049   3.549   2.411  1.9809 -0.0249 -0.9002
   57MOL   H31618348   5.155   3.325   2.269  0.2645 -1.1516 -0.3000
   57MOL   H31718349   5.018   3.397   2.222  1.7869  2.4060  0.8204
   57MOL   H31818350   5.003   3.255   2.320  1.1732 -0.9860 -3.0474
   57MOL   H31918351   4.903   3.485   2.593  4.7934 -0.8710  1.3128
   57MOL   H32018352   4.904   3.311   2.550 -1.4199  0.7698  1.1728
   57MOL   H32118353   4.832   3.439   2.446  0.3394  1.0490  0.1986
   57MOL   H32218354   5.276   3.507   2.424 -0.9003  3.7206  2.0010
   58MOL     C118355   4.953   4.015   7.154 -0.3246 -0.1448  0.1623
   58MOL     C218356   4.855   4.078   7.054  0.2379  0.6883  0.0877
   58MOL     O318357   4.859   4.003   6.933  0.0205  0.7103 -0.6399
   58MOL     C418358   4.986   3.991   6.861 -0.1625  0.2860 -0.3189
   58MOL     C518359   5.037   4.119   6.798  0.1562 -0.1540 -0.6303
   58MOL     C618360   4.979   3.875   6.765 -0.2221  0.1128 -0.2480
   58MOL     H718361   4.941   3.907   7.162  1.6415 -0.4200 -0.4422
   58MOL     H818362   5.061   4.025   7.142 -0.2319 -2.2232 -0.9362
   58MOL     H918363   4.879   4.181   7.026  1.6482  0.6140  0.9525
   58MOL    H1018364   5.054   3.950   6.936 -0.5732  1.1084  0.5158
   58MOL    H1118365   4.969   4.159   6.724 -0.3895  1.2877  0.6320
   58MOL    H1218366   5.048   4.195   6.876 -0.8446 -0.5779 -0.0598
   58MOL    H1318367   5.140   4.115   6.762 -0.4794  0.0400 -2.4924
   58MOL    H1418368   4.949   3.781   6.812  1.7346 -0.5327 -0.2542
   58MOL    H1518369   4.918   3.896   6.677 -2.1436 -0.6830  0.8548
   58MOL    H1618370   5.081   3.861   6.730 -1.1419  0.2430 -3.1068
   58MOL    H1718371   4.922   4.050   7.253  3.4536 -0.7559  1.6432
   58MOL    C1818372   4.695   4.066   7.083 -0.8018  0.0033  0.1438
   58MOL    C1918373   4.625   4.169   7.166 -0.5687  0.0436 -0.4939
   58MOL    O2018374   4.709   4.186   7.285  0.3475 -0.2536  0.1389
   58MOL    C2118375   4.686   4.309   7.364 -0.6842 -0.3469 -0.2513
   58MOL    C2218376   4.764   4.440   7.313 -0.1776 -0.8931 -0.2033
   58MOL    C2318377   4.749   4.265   7.500  0.2514 -0.0520  0.6148
   58MOL    H2418378   4.649   4.065   6.985 -0.2863  0.6170 -0.1138
   58MOL    H2518379   4.687   3.971   7.135  3.0406  1.3591  3.5507
   58MOL    H2618380   4.626   4.263   7.111  2.9480  2.2792  3.1266
   58MOL    H2718381   4.580   4.333   7.372  0.1823  3.8312 -0.0761
   58MOL    H2818382   4.744   4.517   7.389  1.3475 -1.7018  1.0374
   58MOL    H2918383   4.871   4.428   7.299 -0.0374 -0.2361  0.2635
   58MOL    H3018384   4.727   4.468   7.214  0.8664 -1.0250 -0.6331
   58MOL    H3118385   4.689   4.197   7.561  0.5865  0.4158  1.4631
   58MOL    H3218386   4.793   4.349   7.555 -1.0409  1.6218 -0.8551
   58MOL    H3318387   4.841   4.219   7.464  0.2879  1.8889 -1.9389
   58MOL    C3418388   4.487   4.117   7.210 -0.1015 -1.1406 -0.8893
   58MOL    C3518389   4.385   4.112   7.095 -0.1096  0.0776  0.4984
   58MOL    O3618390   4.266   4.043   7.141  0.0301 -0.2284  0.4582
   58MOL    C3718391   4.167   4.013   7.036  0.4089 -0.1025 -0.8347
   58MOL    C3818392   4.222   3.898   6.942  0.3688 -0.0364 -0.0511
   58MOL    C3918393   4.045   3.954   7.108 -0.0551  0.8026  0.1366
   58MOL    H4018394   4.438   4.188   7.276  0.3159 -1.0672 -0.6565
   58MOL    H4118395   4.497   4.029   7.273  1.5573  0.9800  1.8862
   58MOL    H4218396   4.430   4.056   7.013  0.0724 -0.6732  1.1000
   58MOL    H4318397   4.130   4.104   6.989 -0.0681 -0.0903 -0.4414
   58MOL    H4418398   4.151   3.874   6.863 -0.9620 -1.1382  1.4619
   58MOL    H4518399   4.268   3.817   6.999  0.3777  1.0574  1.5188
   58MOL    H4618400   4.312   3.932   6.889 -0.2439  3.1265  0.8294
   58MOL    H4718401   4.055   3.861   7.166  1.6735  2.1885  2.1490
   58MOL    H4818402   4.008   4.033   7.173 -0.8667  1.0452 -0.6286
   58MOL    H4918403   3.966   3.939   7.036 -0.3185 -1.7302  0.8969
   58MOL    C5018404   4.344   4.258   7.049 -0.2551 -0.5344  0.4670
   58MOL    C5118405   4.335   4.286   6.887  0.2414  0.0183  0.3055
   58MOL    O5218406   4.471   4.258   6.859 -0.2102  0.6470 -0.5999
   58MOL    C5318407   4.498   4.244   6.721 -0.1905 -0.6729  0.3643
   58MOL    C5418408   4.561   4.103   6.691 -0.5505 -0.4326 -0.2681
   58MOL    C5518409   4.587   4.359   6.675 -0.0581 -0.0679  0.3063
   58MOL    H5618410   4.246   4.274   7.093 -0.7873 -1.5104 -0.3224
   58MOL    H5718411   4.413   4.328   7.097  0.0623 -0.4321 -0.1341
   58MOL    H5818412   4.271   4.217   6.833  2.1968 -0.6997 -1.1774
   58MOL    H5918413   4.408   4.248   6.659  1.3306  0.4856 -1.8372
   58MOL    H6018414   4.483   4.030   6.713 -0.6849 -1.3258 -3.4504
   58MOL    H6118415   4.649   4.066   6.745 -2.3166  0.4902  3.4038
   58MOL    H6218416   4.598   4.110   6.589  3.0777  0.4397  1.0125
   58MOL    H6318417   4.686   4.345   6.721 -0.0028  4.0087  1.5840
   58MOL    H6418418   4.541   4.448   6.718 -2.8051 -2.0358  1.5816
   58MOL    H6518419   4.570   4.367   6.568 -1.0037 -1.9441  0.2946
   58MOL    C6618420   4.291   4.428   6.853  0.3949  0.3262  0.4986
   58MOL    C6718421   4.161   4.491   6.919  0.0753  0.1679 -0.0162
   58MOL    O6818422   4.060   4.451   6.827  0.4233  0.4194  0.1446
   58MOL    C6918423   3.920   4.447   6.871 -0.0020  0.5814 -0.6411
   58MOL    C7018424   3.830   4.482   6.753  0.1727 -0.7996  0.1098
   58MOL    C7118425   3.891   4.311   6.922 -0.5382  0.0118 -0.5358
   58MOL    H7218426   4.374   4.495   6.875  0.7162  0.6442 -1.5455
   58MOL    H7318427   4.301   4.440   6.745  2.5975  1.2342  0.7711
   58MOL    H7418428   4.156   4.453   7.021 -0.1850  2.4940  0.8708
   58MOL    H7518429   3.915   4.514   6.957 -1.6208 -1.5454  0.9694
   58MOL    H7618430   3.851   4.420   6.665 -1.6625 -0.3979 -0.6265
   58MOL    H7718431   3.733   4.454   6.793 -0.7339 -0.7634 -1.9888
   58MOL    H7818432   3.830   4.586   6.722 -0.2372 -0.9354 -0.3644
   58MOL    H7918433   3.899   4.242   6.838  0.4331  0.2600 -0.6451
   58MOL    H8018434   3.789   4.299   6.959 -1.3641  1.5220 -2.2498
   58MOL    H8118435   3.953   4.276   7.005 -1.4076  1.2030  0.6375
   58MOL    C8218436   4.161   4.644   6.925  0.6285 -0.8981 -0.4491
   58MOL    C8318437   4.218   4.711   7.054  0.3398 -0.3644  0.0488
   58MOL    O8418438   4.350   4.659   7.079 -0.2247 -0.5448 -0.1033
   58MOL    C8518439   4.403   4.687   7.212 -0.1517 -0.5937  0.6523
   58MOL    C8618440   4.545   4.735   7.190 -0.1963  0.1982  0.0006
   58MOL    C8718441   4.390   4.559   7.288 -0.0848 -0.9958 -0.3576
   58MOL    H8818442   4.220   4.680   6.840  0.2582 -1.9978 -1.1812
   58MOL    H8918443   4.062   4.690   6.919  0.8461 -0.2406  0.7639
   58MOL    H9018444   4.168   4.669   7.141  1.0950  0.2198  0.7793
   58MOL    H9118445   4.346   4.768   7.258 -0.8287 -0.2448 -0.7833
   58MOL    H9218446   4.575   4.766   7.291 -3.3369 -1.0121  1.3718
   58MOL    H9318447   4.613   4.660   7.149  1.6550  2.2807 -0.8299
   58MOL    H9418448   4.553   4.818   7.120 -0.1269 -1.1651 -1.6234
   58MOL    H9518449   4.444   4.569   7.382  0.1398 -0.7735 -0.5083
   58MOL    H9618450   4.284   4.553   7.314  0.1938  1.5163  1.5561
   58MOL    H9718451   4.439   4.479   7.232  2.2188  0.5382 -0.6136
   58MOL    C9818452   4.203   4.867   7.059 -1.0371 -0.1785  1.3229
   58MOL    C9918453   4.271   4.944   6.935  0.0865 -0.1727 -0.9772
   58MOL   O10018454   4.414   4.917   6.950  0.0292 -1.3556 -0.3671
   58MOL   C10118455   4.489   4.919   6.829  0.8512  0.1884  0.1986
   58MOL   C10218456   4.530   4.771   6.798  0.9587 -0.4086  0.2117
   58MOL   C10318457   4.607   5.017   6.838  0.3910  0.2489 -0.4627
   58MOL   H10418458   4.099   4.899   7.061 -1.9501 -2.9730  1.0169
   58MOL   H10518459   4.233   4.910   7.154  4.4517 -0.1855 -0.2127
   58MOL   H10618460   4.231   4.906   6.840 -1.4246  1.0437 -0.8473
   58MOL   H10718461   4.436   4.956   6.741  0.8082 -1.7288 -0.6135
   58MOL   H10818462   4.451   4.702   6.768  0.6415  0.2523 -0.4748
   58MOL   H10918463   4.583   4.732   6.885  0.9564 -1.0402 -0.0705
   58MOL   H11018464   4.605   4.789   6.720  0.0002  0.0159 -0.6248
   58MOL   H11118465   4.563   5.115   6.854 -0.8196  0.0195 -2.1813
   58MOL   H11218466   4.662   5.022   6.744 -0.5196  0.5781 -0.9940
   58MOL   H11318467   4.682   4.991   6.913  2.0837 -0.3673 -2.3158
   58MOL   C11418468   4.255   5.097   6.945 -0.4982 -0.2667 -0.6384
   58MOL   C11518469   4.115   5.156   6.906  0.2350 -0.4903 -0.2592
   58MOL   O11618470   4.097   5.283   6.976 -0.0738  0.4163  0.3688
   58MOL   C11718471   3.986   5.291   7.069  0.7124  0.0851 -0.3071
   58MOL   C11818472   3.961   5.439   7.094  0.2852  0.0193 -0.4350
   58MOL   C11918473   4.009   5.220   7.197 -0.1699  0.0233  0.1175
   58MOL   H12018474   4.326   5.150   6.882 -1.1104 -0.3906 -1.4452
   58MOL   H12118475   4.268   5.116   7.051 -1.3929  3.4830 -1.1455
   58MOL   H12218476   4.035   5.091   6.942 -1.4110  1.7575  0.3070
   58MOL   H12318477   3.900   5.243   7.022  0.6972  0.3389 -0.5365
   58MOL   H12418478   3.927   5.497   7.008  1.0427  2.7894  1.0767
   58MOL   H12518479   4.046   5.502   7.119  0.3307  0.6243 -2.0303
   58MOL   H12618480   3.895   5.462   7.178  2.4061 -0.9540  1.5371
   58MOL   H12718481   4.081   5.261   7.268  0.3988  1.1372 -1.0832
   58MOL   H12818482   4.054   5.125   7.171 -0.7772  0.0189 -0.9644
   58MOL   H12918483   3.916   5.197   7.248 -0.4805 -1.7616 -1.2307
   58MOL   C13018484   4.102   5.171   6.758  1.1519 -0.4409 -0.2388
   58MOL   C13118485   3.962   5.179   6.704  0.6417 -0.1417 -0.3228
   58MOL   O13218486   3.904   5.048   6.733 -0.1382  0.5865 -0.4491
   58MOL   C13318487   3.773   5.056   6.785  0.5309 -0.3467 -0.5311
   58MOL   C13418488   3.671   5.056   6.670  0.1640  0.4400  0.3441
   58MOL   C13518489   3.734   4.939   6.879 -0.3128 -0.1165  0.2882
   58MOL   H13618490   4.155   5.086   6.714  0.7793 -0.6880 -0.2058
   58MOL   H13718491   4.156   5.263   6.733  1.0898 -0.5823 -0.9040
   58MOL   H13818492   3.914   5.260   6.758  0.9139 -0.1765 -0.0277
   58MOL   H13918493   3.771   5.144   6.849  0.9143 -1.8602  1.6304
   58MOL   H14018494   3.694   4.975   6.602 -2.3827  0.0712 -0.1371
   58MOL   H14118495   3.674   5.150   6.615 -0.1870  0.0080 -0.4235
   58MOL   H14218496   3.568   5.053   6.707 -0.5159  1.0741 -1.4452
   58MOL   H14318497   3.647   4.972   6.936 -1.0870 -0.8735 -0.4596
   58MOL   H14418498   3.718   4.852   6.816  0.9140 -1.0925  1.2902
   58MOL   H14518499   3.816   4.906   6.943  0.0687 -0.4520 -0.3690
   58MOL   C14618500   3.950   5.201   6.552 -0.4728 -0.6836 -0.7602
   58MOL   C14718501   4.056   5.293   6.482 -0.0226  0.1672  0.2175
   58MOL   O14818502   4.178   5.214   6.470 -0.1150 -0.3420  0.1403
   58MOL   C14918503   4.294   5.298   6.439  0.3014  0.8209 -0.4716
   58MOL   C15018504   4.395   5.220   6.356  0.0701 -0.1752  0.3198
   58MOL   C15118505   4.363   5.348   6.565 -0.4746 -0.3252  0.2702
   58MOL   H15218506   3.857   5.256   6.540  0.6127  1.3015 -0.1298
   58MOL   H15318507   3.956   5.108   6.494 -3.3024 -0.0514 -2.1480
   58MOL   H15418508   4.071   5.376   6.551 -0.1436  0.9260 -0.6507
   58MOL   H15518509   4.260   5.382   6.378 -2.4069 -0.0943 -0.2845
   58MOL   H15618510   4.353   5.211   6.256  1.3039  3.5429 -0.6388
   58MOL   H15718511   4.404   5.120   6.399  3.3193  0.2783  0.8194
   58MOL   H15818512   4.493   5.269   6.360  0.1402 -0.4122  2.0723
   58MOL   H15918513   4.292   5.391   6.636  1.1110  2.1759  0.3890
   58MOL   H16018514   4.441   5.420   6.541 -0.9545  0.6758  1.6338
   58MOL   H16118515   4.407   5.262   6.616  0.6898 -1.9754 -3.3558
   58MOL   C16218516   4.005   5.353   6.348  0.5907  0.2182  0.2930
   58MOL   C16318517   3.940   5.254   6.245  0.0765 -0.6685  0.4816
   58MOL   O16418518   3.891   5.333   6.140  0.3623  0.0503  0.5108
   58MOL   C16518519   3.759   5.306   6.094 -0.7943 -0.0981  0.3957
   58MOL   C16618520   3.744   5.352   5.946 -0.3397  0.3876 -0.5307
   58MOL   C16718521   3.644   5.369   6.172 -0.1942 -0.2429 -0.1854
   58MOL   H16818522   3.924   5.421   6.374 -2.8200 -3.1502 -1.1676
   58MOL   H16918523   4.074   5.420   6.295  1.0857 -0.1931  0.4171
   58MOL   H17018524   3.852   5.204   6.286 -1.1401  0.1553 -1.0976
   58MOL   H17118525   3.740   5.198   6.097  2.4004 -0.7105  0.4528
   58MOL   H17218526   3.830   5.327   5.884 -0.2261 -3.0824  0.9215
   58MOL   H17318527   3.727   5.458   5.926 -1.2415  0.7266  1.9128
   58MOL   H17418528   3.661   5.294   5.906  0.5487 -0.5244 -1.0793
   58MOL   H17518529   3.544   5.331   6.148  0.3788 -1.5925 -0.5013
   58MOL   H17618530   3.651   5.477   6.169  0.9109 -0.2498  1.4056
   58MOL   H17718531   3.667   5.346   6.276  1.6660 -1.4071 -0.8244
   58MOL   C17818532   4.036   5.152   6.192  0.8161 -0.3766  0.9717
   58MOL   C17918533   3.973   5.046   6.097 -0.0299  0.8838 -1.0867
   58MOL   O18018534   4.076   4.969   6.050 -0.2343 -0.3200 -0.2273
   58MOL   C18118535   4.169   5.022   5.964 -0.3720  0.1636  0.0148
   58MOL   C18218536   4.164   4.940   5.836  0.4846 -0.6915  0.4278
   58MOL   C18318537   4.297   4.997   6.038 -0.1720  0.4400  0.0018
   58MOL   H18418538   4.074   5.092   6.274  2.5503  0.0193  0.4774
   58MOL   H18518539   4.116   5.204   6.139 -1.5071  2.5328  0.2209
   58MOL   H18618540   3.917   5.098   6.019 -1.6784 -0.9498 -1.1742
   58MOL   H18718541   4.144   5.127   5.947 -0.6465  0.0743 -0.1260
   58MOL   H18818542   4.230   4.980   5.759  1.0567  1.3801  1.9501
   58MOL   H18918543   4.071   4.945   5.778  1.0583 -1.5510 -0.5927
   58MOL   H19018544   4.185   4.835   5.858  0.0649 -0.9017 -0.1573
   58MOL   H19118545   4.301   4.989   6.146 -1.3941  2.5168  0.2189
   58MOL   H19218546   4.368   5.066   5.992  1.3744 -1.0879  0.0262
   58MOL   H19318547   4.335   4.899   6.010 -0.6079  0.8638 -2.1800
   58MOL   C19418548   3.882   4.945   6.170  0.7766  0.6907  0.0868
   58MOL   C19518549   3.826   4.839   6.070  0.0250 -0.0484 -0.2920
   58MOL   O19618550   3.746   4.908   5.968 -0.4399 -0.0017  0.7042
   58MOL   C19718551   3.688   4.846   5.850 -0.2396  0.4092 -0.0080
   58MOL   C19818552   3.541   4.836   5.858 -0.2353 -0.4961 -0.2295
   58MOL   C19918553   3.754   4.924   5.737 -0.1369  0.8303 -0.0155
   58MOL   H20018554   3.940   4.903   6.252 -0.3888 -2.2021 -0.4992
   58MOL   H20118555   3.801   4.999   6.218 -0.3852  1.0669 -2.2276
   58MOL   H20218556   3.910   4.793   6.019  0.4357 -2.1257  2.1772
   58MOL   H20318557   3.722   4.744   5.830 -1.6372  0.3295 -2.0656
   58MOL   H20418558   3.489   4.931   5.871 -0.1807 -0.7196  1.7941
   58MOL   H20518559   3.494   4.788   5.773  1.2861  0.0747 -1.4178
   58MOL   H20618560   3.529   4.780   5.951  1.0486  0.1299  0.3310
   58MOL   H20718561   3.862   4.938   5.744 -0.0584 -0.2377  1.0730
   58MOL   H20818562   3.721   4.879   5.643 -1.5433 -1.6523  1.6296
   58MOL   H20918563   3.700   5.019   5.737 -0.8909  0.4129 -0.8844
   58MOL   C21018564   3.730   4.731   6.124  0.4581  0.2361 -0.2752
   58MOL   C21118565   3.786   4.665   6.254  0.5387  0.3925 -0.9266
   58MOL   O21218566   3.671   4.602   6.297  0.0035 -0.4075 -0.3328
   58MOL   C21318567   3.662   4.580   6.435 -0.0283 -0.4199  0.3123
   58MOL   C21418568   3.603   4.706   6.505 -0.6930 -1.3334 -0.0585
   58MOL   C21518569   3.563   4.468   6.461 -0.7152  0.5274  0.2434
   58MOL   H21618570   3.714   4.651   6.052  0.7374 -0.2636  0.2196
   58MOL   H21718571   3.636   4.783   6.144  0.7040  0.3184  0.6879
   58MOL   H21818572   3.814   4.739   6.329  2.4911 -0.0589 -1.2002
   58MOL   H21918573   3.758   4.553   6.480  1.3505  0.6286 -1.9338
   58MOL   H22018574   3.644   4.799   6.466 -1.7578 -0.6828  0.3365
   58MOL   H22118575   3.638   4.699   6.608  2.8781  1.9926 -0.9351
   58MOL   H22218576   3.495   4.716   6.493 -0.4338 -1.1477 -2.4806
   58MOL   H22318577   3.464   4.510   6.442 -0.4225  0.6640 -0.9718
   58MOL   H22418578   3.556   4.440   6.567 -1.4305  1.0841  0.3501
   58MOL   H22518579   3.575   4.379   6.400  0.7551  0.6990  0.2787
   58MOL   C22618580   3.897   4.556   6.217 -0.3504 -0.0359 -0.2660
   58MOL   C22718581   3.990   4.529   6.335  0.5971  0.0721  0.0769
   58MOL   O22818582   4.068   4.644   6.344  0.1660  0.4587 -0.1585
   58MOL   C22918583   4.135   4.660   6.473  0.3155  0.5469 -0.7809
   58MOL   C23018584   4.057   4.760   6.563 -0.1798 -0.3663  0.1292
   58MOL   C23118585   4.265   4.716   6.436  0.9621  0.3558  1.1526
   58MOL   H23218586   3.959   4.579   6.131  0.7267 -2.5497 -0.1911
   58MOL   H23318587   3.853   4.459   6.194  3.3473 -1.8922  0.2268
   58MOL   H23418588   3.947   4.518   6.435 -2.1420 -0.7783 -1.1537
   58MOL   H23518589   4.151   4.562   6.518  0.0287  0.2775 -1.2608
   58MOL   H23618590   3.952   4.743   6.587 -0.2326  0.7760  0.7499
   58MOL   H23718591   4.101   4.773   6.662 -0.2906 -0.0234  0.1352
   58MOL   H23818592   4.054   4.859   6.517  1.4851 -0.8209 -1.0018
   58MOL   H23918593   4.259   4.801   6.369 -1.7217 -0.3949  0.3769
   58MOL   H24018594   4.338   4.649   6.389 -2.2092 -1.4209 -1.4590
   58MOL   H24118595   4.318   4.756   6.522 -0.8590 -0.1721  2.5384
   58MOL   C24218596   4.075   4.398   6.313  1.1998  0.1080 -0.1331
   58MOL   C24318597   4.010   4.273   6.375  0.0869 -1.2598  0.7361
   58MOL   O24418598   4.084   4.158   6.344 -0.3176 -0.4962 -0.3540
   58MOL   C24518599   4.201   4.126   6.427  0.3617  0.4230  0.0876
   58MOL   C24618600   4.150   4.033   6.530 -0.3527  0.3951  0.1522
   58MOL   C24718601   4.307   4.070   6.333  0.3744 -0.1777  0.4834
   58MOL   H24818602   4.094   4.391   6.206 -3.3374 -1.0057 -0.9707
   58MOL   H24918603   4.175   4.396   6.358  0.6656 -1.7919  1.0343
   58MOL   H25018604   4.002   4.292   6.482 -1.1887  2.3089  0.0815
   58MOL   H25118605   4.236   4.218   6.475  1.0849  0.1022  0.1765
   58MOL   H25218606   4.088   3.956   6.483  1.2616 -0.2049 -1.0614
   58MOL   H25318607   4.236   3.987   6.579  0.8204  1.5760 -0.7704
   58MOL   H25418608   4.090   4.086   6.604  0.6535  0.7603  0.7113
   58MOL   H25518609   4.345   4.144   6.263 -0.2451  0.1971  0.5433
   58MOL   H25618610   4.392   4.034   6.391 -0.0613 -2.3187 -0.1531
   58MOL   H25718611   4.258   3.985   6.287 -0.7538  0.7261 -0.0011
   58MOL   C25818612   3.858   4.255   6.341 -0.1610  0.1410  0.1285
   58MOL   C25918613   3.794   4.120   6.399 -0.0013 -0.5542  0.5126
   58MOL   O26018614   3.680   4.089   6.319 -0.5831 -0.3750 -0.3456
   58MOL   C26118615   3.702   4.057   6.184  0.7196  0.2496  0.6822
   58MOL   C26218616   3.669   3.904   6.177  0.3643 -0.6806  0.4477
   58MOL   C26318617   3.599   4.140   6.099 -0.5611  0.0982 -0.2909
   58MOL   H26418618   3.795   4.334   6.383 -0.8238 -0.8585  1.0355
   58MOL   H26518619   3.847   4.271   6.233 -2.1647  1.5873  0.5137
   58MOL   H26618620   3.864   4.038   6.381 -1.3810 -1.6780  0.1761
   58MOL   H26718621   3.802   4.081   6.148  0.9293  0.1097  1.1660
   58MOL   H26818622   3.578   3.879   6.231 -2.4603  0.2062 -3.6913
   58MOL   H26918623   3.756   3.849   6.213  1.4912  0.5007 -0.4421
   58MOL   H27018624   3.639   3.882   6.075  1.8790 -0.5910 -0.0292
   58MOL   H27118625   3.633   4.240   6.069 -3.5033  1.7412  1.6363
   58MOL   H27218626   3.559   4.091   6.010 -1.9875 -0.3857  0.6100
   58MOL   H27318627   3.519   4.177   6.163 -1.7723  0.0532 -1.7429
   58MOL   C27418628   3.762   4.143   6.546  0.6307 -0.4107 -0.1532
   58MOL   C27518629   3.689   4.024   6.612 -0.9117  0.1510  0.6420
   58MOL   O27618630   3.798   3.941   6.649  0.5243  0.1447 -0.2065
   58MOL   C27718631   3.775   3.795   6.654  0.5586  1.1323 -0.1196
   58MOL   C27818632   3.878   3.719   6.733 -0.1955 -0.1709 -0.6663
   58MOL   C27918633   3.768   3.751   6.513  0.2504 -0.3451  0.3012
   58MOL   H28018634   3.854   4.171   6.598 -0.2048  2.5737 -0.2057
   58MOL   H28118635   3.698   4.229   6.563  1.5997  0.1274  0.8099
   58MOL   H28218636   3.627   3.975   6.536 -0.3154  1.0103 -0.3997
   58MOL   H28318637   3.680   3.785   6.706  0.5115  0.8832 -0.2538
   58MOL   H28418638   3.849   3.614   6.740  1.8525 -0.6732  0.7703
   58MOL   H28518639   3.979   3.730   6.694  0.5646  1.3030  1.6462
   58MOL   H28618640   3.883   3.768   6.831  0.1495  1.0731 -1.3019
   58MOL   H28718641   3.759   3.643   6.521  1.0957 -0.5197 -0.9665
   58MOL   H28818642   3.850   3.778   6.446 -0.8847  0.1164 -0.9333
   58MOL   H28918643   3.674   3.775   6.461  0.7984 -1.5570 -1.3017
   58MOL   C29018644   3.596   4.059   6.733  0.2916  0.4311  0.0601
   58MOL   C29118645   3.463   4.133   6.712  0.3915 -0.4442 -0.2964
   58MOL   O29218646   3.385   4.064   6.613  0.2418 -0.3469 -0.1086
   58MOL   C29318647   3.373   4.136   6.495 -0.1174 -0.5293  0.2133
   58MOL   C29418648   3.286   4.264   6.512  0.2373 -0.1073  0.4965
   58MOL   C29518649   3.329   4.054   6.377  0.7167  0.1606 -0.6864
   58MOL   H29618650   3.654   4.114   6.808  1.2352 -0.4377 -0.0301
   58MOL   H29718651   3.568   3.967   6.783  0.9346  0.7523  1.0496
   58MOL   H29818652   3.503   4.228   6.678 -1.0986  0.7046  1.0798
   58MOL   H29918653   3.472   4.175   6.471  0.7716 -1.9217  1.5187
   58MOL   H30018654   3.281   4.329   6.424  0.4154  2.0656  2.0500
   58MOL   H30118655   3.180   4.246   6.530 -0.4168  1.5431 -1.5345
   58MOL   H30218656   3.321   4.338   6.584 -0.9725 -1.2319  2.2945
   58MOL   H30318657   3.326   4.112   6.284 -2.4364  1.3399  0.1040
   58MOL   H30418658   3.401   3.973   6.360  0.3948  0.0254 -1.4330
   58MOL   H30518659   3.225   4.022   6.381  0.5096  0.7757 -0.9766
   58MOL   C30618660   3.377   4.158   6.847 -0.5642  0.0010  0.2731
   58MOL   C30718661   3.277   4.270   6.837  0.0763  0.7407 -0.0089
   58MOL   O30818662   3.352   4.391   6.811 -0.6756  0.0998  0.1214
   58MOL   C30918663   3.270   4.507   6.820  0.2090 -1.2934 -0.3902
   58MOL   C31018664   3.236   4.540   6.962  0.0464 -0.2215  0.4787
   58MOL   C31118665   3.345   4.627   6.746  0.4667  0.0429  0.3818
   58MOL   H31218666   3.451   4.181   6.924  0.4090 -1.2681 -0.2678
   58MOL   H31318667   3.319   4.070   6.873  2.5833 -1.6215  2.1646
   58MOL   H31418668   3.199   4.264   6.761  1.1224  0.7905 -1.1076
   58MOL   H31518669   3.181   4.491   6.759 -0.2650  0.2207 -0.1206
   58MOL   H31618670   3.322   4.522   7.026  0.5256  2.2620  0.5981
   58MOL   H31718671   3.154   4.475   6.994 -1.1881  2.0056  1.9869
   58MOL   H31818672   3.204   4.644   6.975 -0.7214 -0.2590 -0.9640
   58MOL   H31918673   3.349   4.600   6.640  0.3283 -1.9409  0.8572
   58MOL   H32018674   3.444   4.641   6.788  0.5557  0.0069  0.1855
   58MOL   H32118675   3.288   4.718   6.766  0.1491  0.2021 -1.1655
   58MOL   H32218676   3.219   4.268   6.930  0.6603 -0.2330  0.3478
   59MOL     C118677   6.061   6.644   5.891 -0.4320 -0.2673  0.0162
   59MOL     C218678   6.000   6.552   5.782  0.4443 -0.2524 -0.5330
   59MOL     O318679   6.078   6.439   5.768  0.6474 -0.0098 -0.0237
   59MOL     C418680   6.122   6.411   5.633  0.6184 -0.1999  0.0683
   59MOL     C518681   6.122   6.261   5.621 -0.1594 -0.2590  0.3029
   59MOL     C618682   6.263   6.478   5.611  0.0867 -0.1944  1.0324
   59MOL     H718683   6.082   6.575   5.974  0.6813  1.8667  1.5615
   59MOL     H818684   6.158   6.688   5.867 -0.4403 -0.9656 -1.3318
   59MOL     H918685   5.997   6.605   5.686 -2.1105 -0.8926 -0.8358
   59MOL    H1018686   6.046   6.437   5.560  3.1190  1.3568 -2.0753
   59MOL    H1118687   6.199   6.211   5.679  0.7222  1.5986  0.7898
   59MOL    H1218688   6.026   6.212   5.640 -0.8374  1.7388  2.2388
   59MOL    H1318689   6.138   6.248   5.514  1.2611  1.7627  0.2276
   59MOL    H1418690   6.312   6.440   5.521 -0.9426 -1.5385  1.0294
   59MOL    H1518691   6.247   6.586   5.606  1.3121 -0.0693 -0.4936
   59MOL    H1618692   6.332   6.450   5.691  0.0523  1.6976  1.7421
   59MOL    H1718693   5.990   6.710   5.940  0.8777 -0.8768  2.8345
   59MOL    C1818694   5.852   6.525   5.823 -0.3023 -0.1072  0.1295
   59MOL    C1918695   5.771   6.473   5.698  0.5612  0.2696 -0.1575
   59MOL    O2018696   5.700   6.580   5.642 -0.9876 -0.8183  0.0609
   59MOL    C2118697   5.758   6.700   5.583 -0.2856  0.2662  0.2872
   59MOL    C2218698   5.653   6.818   5.590  0.4743  0.1029  0.3519
   59MOL    C2318699   5.808   6.687   5.443  0.3062 -0.5817 -0.0236
   59MOL    H2418700   5.854   6.451   5.903  2.0628  0.2963  0.4841
   59MOL    H2518701   5.807   6.614   5.868 -0.6028  1.1051 -2.4534
   59MOL    H2618702   5.834   6.433   5.618 -1.1398 -1.3346 -0.7435
   59MOL    H2718703   5.840   6.735   5.646  0.3179 -0.1425 -0.2696
   59MOL    H2818704   5.618   6.826   5.693  0.5912 -0.3812  0.4322
   59MOL    H2918705   5.710   6.910   5.574  3.2644 -1.2443  2.1138
   59MOL    H3018706   5.577   6.809   5.513  2.0248 -1.6256 -1.0505
   59MOL    H3118707   5.728   6.660   5.373  0.1757 -0.8002  0.2110
   59MOL    H3218708   5.879   6.606   5.423 -0.0894 -0.2071 -3.3177
   59MOL    H3318709   5.855   6.782   5.417 -0.2144 -0.4872 -0.6407
   59MOL    C3418710   5.666   6.373   5.736  0.4985 -0.0819 -0.2090
   59MOL    C3518711   5.622   6.294   5.610  1.0515  0.5312  0.0959
   59MOL    O3618712   5.734   6.226   5.555 -0.1522  0.4861 -0.0249
   59MOL    C3718713   5.748   6.202   5.417 -0.0137 -0.1608  0.1805
   59MOL    C3818714   5.787   6.324   5.335 -0.1412 -0.4909  0.0980
   59MOL    C3918715   5.856   6.096   5.384 -0.4528 -0.2953  0.5358
   59MOL    H4018716   5.589   6.426   5.792 -0.7572 -3.8257  1.8001
   59MOL    H4118717   5.701   6.296   5.805  1.6083 -0.5557 -1.2780
   59MOL    H4218718   5.572   6.362   5.541 -1.1048 -0.5113  0.5805
   59MOL    H4318719   5.655   6.172   5.368 -1.1159  0.4944  1.8143
   59MOL    H4418720   5.813   6.310   5.230  0.3178 -1.3857  0.3300
   59MOL    H4518721   5.875   6.377   5.371  0.2805  1.5304 -3.6808
   59MOL    H4618722   5.705   6.397   5.338  0.5622  0.2521  1.5249
   59MOL    H4718723   5.855   6.004   5.443 -1.4441  0.0957  1.1442
   59MOL    H4818724   5.857   6.065   5.280  0.5103  0.2635  0.3759
   59MOL    H4918725   5.954   6.143   5.390 -1.8020  2.8201 -0.8727
   59MOL    C5018726   5.523   6.179   5.660  0.4244  0.4115 -0.7065
   59MOL    C5118727   5.421   6.135   5.558  0.9916 -0.5732  0.2640
   59MOL    O5218728   5.364   6.257   5.502  0.3234  0.0873  0.5398
   59MOL    C5318729   5.275   6.255   5.388  0.2023 -0.2847  0.2519
   59MOL    C5418730   5.358   6.323   5.271  0.1461  0.5441 -0.4472
   59MOL    C5518731   5.159   6.340   5.433  0.1425  0.1831  0.1869
   59MOL    H5618732   5.593   6.104   5.695  0.0297  0.8789  1.1358
   59MOL    H5718733   5.454   6.217   5.736  1.0369  1.9326 -0.9006
   59MOL    H5818734   5.464   6.084   5.472  0.3940 -1.7646  0.6677
   59MOL    H5918735   5.246   6.151   5.371  1.2228 -0.7162  1.1004
   59MOL    H6018736   5.301   6.316   5.179 -0.6643 -0.1776  0.1023
   59MOL    H6118737   5.454   6.272   5.271 -1.6043 -2.8704 -1.7539
   59MOL    H6218738   5.374   6.429   5.293  1.1063  0.0734  1.2140
   59MOL    H6318739   5.110   6.302   5.522  0.8614 -1.0500  0.0787
   59MOL    H6418740   5.087   6.351   5.352 -1.9979 -0.7002  1.9119
   59MOL    H6518741   5.189   6.440   5.461  0.6447 -0.1421  0.8137
   59MOL    C6618742   5.308   6.044   5.619  0.0339 -0.0573  0.6102
   59MOL    C6718743   5.357   5.901   5.665  0.1599 -0.3720 -0.2791
   59MOL    O6818744   5.414   5.845   5.539 -0.4370 -0.2969 -0.7279
   59MOL    C6918745   5.552   5.815   5.552 -0.5801  0.0495  0.5993
   59MOL    C7018746   5.544   5.672   5.610  0.0664 -0.2976  0.4690
   59MOL    C7118747   5.610   5.815   5.410  0.6163 -0.0412  0.4952
   59MOL    H7218748   5.270   6.089   5.711  0.0366 -0.7933  0.9720
   59MOL    H7318749   5.216   6.035   5.561 -0.6833 -3.2115  2.1359
   59MOL    H7418750   5.430   5.908   5.745 -0.0270 -0.7872 -0.0742
   59MOL    H7518751   5.617   5.871   5.620  1.9226 -0.2240 -1.4838
   59MOL    H7618752   5.642   5.623   5.606 -0.2349 -0.7832 -1.1657
   59MOL    H7718753   5.517   5.667   5.716 -0.9009 -1.5259  0.1727
   59MOL    H7818754   5.480   5.607   5.551 -1.0826 -0.5171  1.9087
   59MOL    H7918755   5.574   5.906   5.362  0.7100 -0.9316 -1.3274
   59MOL    H8018756   5.575   5.741   5.339 -0.2521  0.3485  0.5093
   59MOL    H8118757   5.718   5.808   5.424  0.3319 -2.1100  1.9346
   59MOL    C8218758   5.233   5.810   5.706  0.4382  0.0575 -0.4601
   59MOL    C8318759   5.157   5.858   5.833  0.1656 -0.1994  0.2545
   59MOL    O8418760   5.032   5.788   5.834  0.0659  0.1470 -0.7810
   59MOL    C8518761   4.916   5.876   5.820 -1.2057 -0.2665 -0.2162
   59MOL    C8618762   4.796   5.812   5.879 -0.2731  0.4742 -0.0453
   59MOL    C8718763   4.902   5.909   5.669 -0.4325  0.4511 -0.6026
   59MOL    H8818764   5.170   5.790   5.619  2.7143  1.9201 -2.6212
   59MOL    H8918765   5.271   5.711   5.732 -0.5061  0.0443  0.8897
   59MOL    H9018766   5.126   5.960   5.813 -1.2691 -0.5074  0.8702
   59MOL    H9118767   4.929   5.969   5.874  0.0402 -1.6253  1.8856
   59MOL    H9218768   4.719   5.889   5.882 -0.2079  0.5047  1.3456
   59MOL    H9318769   4.778   5.718   5.827  0.5012  0.0710  0.4055
   59MOL    H9418770   4.809   5.778   5.982  0.6254 -0.7280 -0.5476
   59MOL    H9518771   4.998   5.927   5.622 -0.7400  1.8830 -0.7051
   59MOL    H9618772   4.875   5.819   5.613  1.0298  0.3900 -1.2228
   59MOL    H9718773   4.832   5.990   5.645 -0.8234 -0.0556 -1.2089
   59MOL    C9818774   5.232   5.829   5.964  0.2720  1.1215  0.5845
   59MOL    C9918775   5.308   5.956   6.019 -0.1133 -0.4588 -0.3446
   59MOL   O10018776   5.395   5.916   6.122  0.2161 -0.5879 -0.0595
   59MOL   C10118777   5.532   5.940   6.098 -0.7618  0.5742 -0.2982
   59MOL   C10218778   5.590   5.838   5.992  0.4839 -0.5711 -0.3219
   59MOL   C10318779   5.602   5.938   6.233 -0.2278 -0.2214 -0.2776
   59MOL   H10418780   5.169   5.802   6.049 -0.3541 -1.0526 -0.5399
   59MOL   H10518781   5.308   5.753   5.950 -0.4560  0.1641  1.7630
   59MOL   H10618782   5.365   5.999   5.937 -0.9587 -1.2991 -1.3905
   59MOL   H10718783   5.553   6.037   6.054  1.8538  0.8207  1.4224
   59MOL   H10818784   5.572   5.738   6.034 -1.8572 -0.4484 -0.9562
   59MOL   H10918785   5.696   5.862   6.002 -0.1682  2.0990  0.4492
   59MOL   H11018786   5.568   5.858   5.887 -0.4391 -1.1592 -0.2499
   59MOL   H11118787   5.557   6.009   6.302  0.7510 -1.5114  1.7634
   59MOL   H11218788   5.707   5.966   6.231 -0.1597 -0.2956  1.3815
   59MOL   H11318789   5.590   5.844   6.288 -3.0368  0.4985  0.4263
   59MOL   C11418790   5.205   6.053   6.076 -0.4987  0.2215  0.4030
   59MOL   C11518791   5.241   6.210   6.061  0.3830 -0.0987  0.2307
   59MOL   O11618792   5.118   6.286   6.055 -0.0104 -0.4508  0.0574
   59MOL   C11718793   5.079   6.311   5.920  0.2506 -0.0107  0.1588
   59MOL   C11818794   5.151   6.423   5.854 -0.8093 -0.1855 -0.1567
   59MOL   C11918795   4.927   6.337   5.936 -0.0247  0.4104  0.7883
   59MOL   H12018796   5.169   6.026   6.175  0.2458 -3.2506 -0.2329
   59MOL   H12118797   5.111   6.040   6.021  1.3125 -0.4903 -2.6045
   59MOL   H12218798   5.293   6.222   5.966 -0.9255 -0.7616 -0.5810
   59MOL   H12318799   5.083   6.217   5.864 -0.0811  0.4007 -0.5696
   59MOL   H12418800   5.238   6.375   5.809  1.0134  2.7425  0.1515
   59MOL   H12518801   5.184   6.501   5.923  0.9649 -0.9653 -0.0937
   59MOL   H12618802   5.091   6.458   5.771  0.4894 -1.7011 -1.7697
   59MOL   H12718803   4.887   6.312   5.838 -0.4936 -0.5076  1.2101
   59MOL   H12818804   4.900   6.441   5.953  0.8028  0.3648  2.4830
   59MOL   H12918805   4.883   6.274   6.013 -2.5948  2.0288  0.7007
   59MOL   C13018806   5.343   6.243   6.171 -0.1056 -0.5089  0.8027
   59MOL   C13118807   5.408   6.386   6.176 -0.2867  1.2223  0.0948
   59MOL   O13218808   5.519   6.400   6.261 -0.8802  0.6510 -0.1469
   59MOL   C13318809   5.637   6.330   6.244  0.0100 -0.6127 -0.0622
   59MOL   C13418810   5.722   6.397   6.131  0.3257 -0.0612 -0.0548
   59MOL   C13518811   5.710   6.334   6.377  0.4340  0.2223  0.1473
   59MOL   H13618812   5.427   6.173   6.171 -0.3241 -0.8087  2.4856
   59MOL   H13718813   5.305   6.207   6.267 -0.1596 -2.2288  0.1606
   59MOL   H13818814   5.425   6.412   6.071  1.6659  0.3429  0.1698
   59MOL   H13918815   5.626   6.222   6.236 -0.6577 -0.5729  0.2486
   59MOL   H14018816   5.816   6.343   6.122  0.4720 -0.5900  3.8159
   59MOL   H14118817   5.735   6.501   6.159  0.2123 -0.6602  2.2778
   59MOL   H14218818   5.675   6.387   6.032 -1.6104  1.6898  0.6499
   59MOL   H14318819   5.654   6.270   6.446 -3.8118  1.2315 -2.1690
   59MOL   H14418820   5.813   6.308   6.356  0.0918 -0.3785 -0.8065
   59MOL   H14518821   5.705   6.436   6.414 -0.2906  0.3170 -0.2020
   59MOL   C14618822   5.313   6.487   6.230  0.7694  0.6068  0.0905
   59MOL   C14718823   5.355   6.632   6.201  0.2648 -0.0116  0.1454
   59MOL   O14818824   5.337   6.644   6.063 -0.3942 -0.1405 -0.5712
   59MOL   C14918825   5.426   6.732   5.991 -0.5122  0.2163 -0.2045
   59MOL   C15018826   5.364   6.742   5.854 -0.0188  0.1530 -0.3746
   59MOL   C15118827   5.566   6.678   5.969  0.2931 -0.0957 -0.8263
   59MOL   H15218828   5.324   6.465   6.336  1.2275  0.9179  0.1058
   59MOL   H15318829   5.213   6.463   6.193  1.7360 -3.4442 -0.1678
   59MOL   H15418830   5.460   6.649   6.224 -0.3637  4.3481  0.1885
   59MOL   H15518831   5.428   6.828   6.042 -0.4777 -0.5380  1.2510
   59MOL   H15618832   5.364   6.650   5.794 -0.8451 -0.5805  0.7287
   59MOL   H15718833   5.395   6.831   5.800  1.3857  0.8062  1.4557
   59MOL   H15818834   5.263   6.778   5.873  0.3372  0.0351  1.9193
   59MOL   H15918835   5.624   6.683   6.062 -0.1087 -0.2018 -0.5671
   59MOL   H16018836   5.625   6.744   5.906  2.6190 -0.9883  0.3562
   59MOL   H16118837   5.554   6.576   5.935 -2.2559  0.2971 -1.1686
   59MOL   C16218838   5.283   6.743   6.274  0.3678 -0.4786  0.6182
   59MOL   C16318839   5.300   6.737   6.429  0.1268  0.0463 -0.0688
   59MOL   O16418840   5.432   6.727   6.465  0.2228  0.3857 -0.2027
   59MOL   C16518841   5.462   6.706   6.598  0.1463  0.1212 -0.8058
   59MOL   C16618842   5.590   6.777   6.629 -0.6745 -0.5960 -0.0815
   59MOL   C16718843   5.477   6.549   6.610  0.0292  0.5609  0.7758
   59MOL   H16818844   5.321   6.836   6.233 -1.3915 -1.0098 -2.4138
   59MOL   H16918845   5.177   6.742   6.250 -0.0054  1.3427  2.1182
   59MOL   H17018846   5.250   6.645   6.458  0.8605 -0.7234 -1.2054
   59MOL   H17118847   5.388   6.734   6.673 -0.8281 -1.9553 -0.9553
   59MOL   H17218848   5.621   6.765   6.733  0.5344 -1.7932 -0.5798
   59MOL   H17318849   5.564   6.883   6.622 -1.6677 -1.0620 -5.1873
   59MOL   H17418850   5.664   6.761   6.551  0.4109 -0.2858  0.8774
   59MOL   H17518851   5.555   6.520   6.539 -1.4089 -2.1358  0.2450
   59MOL   H17618852   5.385   6.492   6.600 -0.1292  0.7901  0.9112
   59MOL   H17718853   5.522   6.522   6.706  1.0413 -0.1451  0.1142
   59MOL   C17818854   5.211   6.849   6.495  0.8543 -0.0177 -0.1560
   59MOL   C17918855   5.067   6.804   6.529 -0.8707  0.5051  0.6312
   59MOL   O18018856   5.070   6.734   6.650 -0.1696  0.1944  0.2067
   59MOL   C18118857   4.979   6.628   6.673 -0.1108  0.6083 -0.2344
   59MOL   C18218858   4.867   6.661   6.773  1.0823 -0.0610  0.4463
   59MOL   C18318859   5.061   6.513   6.732 -0.4174  0.0596  0.2098
   59MOL   H18418860   5.207   6.935   6.429 -5.7847 -0.6466 -0.8879
   59MOL   H18518861   5.250   6.891   6.588  0.0711 -0.0414  0.1828
   59MOL   H18618862   5.040   6.736   6.448 -1.2407  1.9269 -0.4645
   59MOL   H18718863   4.927   6.591   6.585 -0.9085 -1.6924  1.1521
   59MOL   H18818864   4.810   6.574   6.805 -1.5060  2.5846  3.3806
   59MOL   H18918865   4.789   6.728   6.736 -1.7434 -3.1515  0.5501
   59MOL   H19018866   4.889   6.698   6.873  0.4597 -1.4911  1.1233
   59MOL   H19118867   5.153   6.485   6.681 -2.1486 -1.6834 -2.0449
   59MOL   H19218868   5.001   6.422   6.733 -0.1592 -0.1534 -1.5144
   59MOL   H19318869   5.099   6.543   6.830  1.9810 -1.4957 -0.2140
   59MOL   C19418870   4.966   6.922   6.527 -0.5022 -0.3696 -0.3324
   59MOL   C19518871   4.834   6.900   6.464  0.7905 -0.4341 -0.2703
   59MOL   O19618872   4.860   6.868   6.331  0.3599  0.0780 -0.0215
   59MOL   C19718873   4.785   6.775   6.265 -0.5648 -0.2028  0.2900
   59MOL   C19818874   4.642   6.821   6.223 -0.0433 -0.1969 -0.5930
   59MOL   C19918875   4.861   6.729   6.139  0.2318 -0.9910 -0.0463
   59MOL   H20018876   4.957   6.947   6.633  2.1053 -1.2265  0.1340
   59MOL   H20118877   5.021   7.006   6.485  0.1167 -0.2680  0.6504
   59MOL   H20218878   4.778   6.813   6.499 -1.7095  0.2032 -2.4843
   59MOL   H20318879   4.781   6.686   6.327 -0.2295  1.0298  2.1117
   59MOL   H20418880   4.579   6.757   6.162  0.2685 -0.8810 -0.2068
   59MOL   H20518881   4.578   6.867   6.298 -1.7762 -2.5589 -0.5508
   59MOL   H20618882   4.665   6.908   6.162 -1.2777  1.6610  1.4963
   59MOL   H20718883   4.961   6.692   6.164  1.0706  2.3486  1.8198
   59MOL   H20818884   4.809   6.649   6.085 -0.1577 -1.1480  0.5551
   59MOL   H20918885   4.867   6.812   6.069  0.7419  1.3884  2.7152
   59MOL   C21018886   4.745   7.027   6.468  0.7907 -0.0220  0.5324
   59MOL   C21118887   4.660   7.019   6.592 -0.3058 -0.2144  0.1009
   59MOL   O21218888   4.616   7.147   6.624  0.1893 -0.2871  0.5665
   59MOL   C21318889   4.698   7.236   6.703 -0.5403 -0.5016 -0.2889
   59MOL   C21418890   4.652   7.372   6.680 -0.3583 -0.2162  0.2746
   59MOL   C21518891   4.713   7.196   6.853 -0.1238 -0.2497 -0.5910
   59MOL   H21618892   4.692   7.044   6.374 -0.8049  0.9036  1.5811
   59MOL   H21718893   4.811   7.113   6.478 -0.0181  0.8006 -0.9845
   59MOL   H21818894   4.719   6.977   6.674  0.4080 -0.6049 -0.6028
   59MOL   H21918895   4.797   7.225   6.658  0.0047  2.2510  0.0997
   59MOL   H22018896   4.636   7.386   6.573 -1.0656  0.8633  0.5133
   59MOL   H22118897   4.727   7.442   6.714 -0.7708  0.4293 -0.1422
   59MOL   H22218898   4.552   7.388   6.720 -0.9603  0.6969 -1.5272
   59MOL   H22318899   4.613   7.216   6.891 -0.4421  0.3417 -1.6974
   59MOL   H22418900   4.793   7.254   6.898 -2.2090  2.5331 -0.2890
   59MOL   H22518901   4.729   7.090   6.871 -2.5250 -0.2320  1.9439
   59MOL   C22618902   4.527   6.944   6.565 -0.0387  0.3844  0.5970
   59MOL   C22718903   4.431   6.924   6.679  0.4073 -0.3697  0.0009
   59MOL   O22818904   4.495   6.826   6.759 -0.5772  0.5598 -0.3275
   59MOL   C22918905   4.446   6.815   6.889  0.0154  0.2645 -0.4799
   59MOL   C23018906   4.522   6.900   6.984 -0.4981 -0.3658 -0.2802
   59MOL   C23118907   4.460   6.664   6.924  0.3967 -0.3093  0.3033
   59MOL   H23218908   4.548   6.844   6.526 -0.7677 -0.6629  2.8060
   59MOL   H23318909   4.482   7.000   6.483 -0.7005  0.0624  0.7356
   59MOL   H23418910   4.418   7.016   6.738  1.6847 -0.4000  0.3437
   59MOL   H23518911   4.343   6.849   6.904 -0.6184 -0.9074 -2.0328
   59MOL   H23618912   4.512   7.008   6.972  2.8227 -0.2179 -2.3677
   59MOL   H23718913   4.494   6.875   7.086 -2.0210 -1.5263 -0.9726
   59MOL   H23818914   4.629   6.879   6.973 -0.0569  1.6873 -0.2354
   59MOL   H23918915   4.413   6.601   6.849  0.6983 -0.6069  0.3648
   59MOL   H24018916   4.410   6.645   7.019  0.8495  0.2680  0.6619
   59MOL   H24118917   4.565   6.636   6.924  0.3219 -0.6286  1.8577
   59MOL   C24218918   4.308   6.849   6.634 -0.1413 -0.4144 -0.6050
   59MOL   C24318919   4.211   6.934   6.552  1.0179  0.2573  0.5063
   59MOL   O24418920   4.174   7.037   6.642  0.5737 -0.3664  0.3491
   59MOL   C24518921   4.148   7.167   6.584  0.6924  0.4803  0.3353
   59MOL   C24618922   4.049   7.247   6.669 -0.8444 -0.0941 -0.9700
   59MOL   C24718923   4.285   7.237   6.572  0.8771 -0.0024  0.0141
   59MOL   H24818924   4.325   6.751   6.589  1.0661  0.1073 -1.3174
   59MOL   H24918925   4.248   6.834   6.723 -1.9438  1.2277 -1.5108
   59MOL   H25018926   4.256   6.979   6.464  0.6459 -2.1931 -0.9928
   59MOL   H25118927   4.105   7.157   6.485  1.9346 -2.5804  0.0190
   59MOL   H25218928   4.043   7.355   6.658 -1.3802  0.0404  0.5690
   59MOL   H25318929   3.947   7.210   6.673 -0.7153 -0.3952 -0.4740
   59MOL   H25418930   4.068   7.244   6.776 -1.8341 -1.2736 -0.8095
   59MOL   H25518931   4.274   7.343   6.547 -2.3236  0.3291  2.5507
   59MOL   H25618932   4.339   7.220   6.665  3.5493  1.4366 -1.2191
   59MOL   H25718933   4.346   7.196   6.492 -1.0294 -0.7094 -1.0865
   59MOL   C25818934   4.073   6.863   6.517  0.0686  0.0632 -0.0350
   59MOL   C25918935   3.993   6.901   6.391 -0.5720  0.1072  0.0556
   59MOL   O26018936   3.879   6.812   6.373 -0.3148 -0.2901  0.1489
   59MOL   C26118937   3.782   6.812   6.477 -0.7019 -0.6045 -0.4336
   59MOL   C26218938   3.711   6.947   6.515 -0.0953 -0.1144 -0.0877
   59MOL   C26318939   3.665   6.716   6.439  0.1366 -0.3864 -0.3499
   59MOL   H26418940   4.082   6.754   6.513 -0.3184  0.0572 -0.7692
   59MOL   H26518941   4.007   6.886   6.600  0.0740 -1.5451  0.4242
   59MOL   H26618942   3.960   7.004   6.397 -2.0759 -0.4011  0.6764
   59MOL   H26718943   3.829   6.776   6.569  1.7666 -0.2536 -1.5021
   59MOL   H26818944   3.780   7.028   6.537  0.7032 -0.7106 -0.3149
   59MOL   H26918945   3.653   6.946   6.607  2.7487 -0.1749  1.7675
   59MOL   H27018946   3.639   6.979   6.440  0.4266  1.0126 -0.1056
   59MOL   H27118947   3.586   6.762   6.379 -0.0780 -1.0990 -0.6186
   59MOL   H27218948   3.703   6.640   6.371  1.5345  2.2479 -2.5729
   59MOL   H27318949   3.616   6.663   6.521  1.2850  1.3591  1.5063
   59MOL   C27418950   4.075   6.875   6.264  0.0504  0.4320  0.2026
   59MOL   C27518951   4.019   6.939   6.137  1.1116  0.2067 -0.0774
   59MOL   O27618952   4.027   7.084   6.162  0.3231  0.2927  0.7433
   59MOL   C27718953   3.921   7.158   6.101  0.2619 -0.8210  0.2610
   59MOL   C27818954   3.982   7.259   6.006 -0.7267 -0.1694  0.0092
   59MOL   C27918955   3.825   7.210   6.197 -0.2762 -0.5507  0.1654
   59MOL   H28018956   4.172   6.921   6.278  0.7417 -1.3482  1.5005
   59MOL   H28118957   4.092   6.768   6.247  0.2549  0.2097  1.7202
   59MOL   H28218958   3.921   6.894   6.122  1.0421  0.5204 -0.5707
   59MOL   H28318959   3.865   7.093   6.034 -0.6660  0.1321  0.1008
   59MOL   H28418960   4.021   7.350   6.051 -2.7592  0.4175  0.6109
   59MOL   H28518961   4.061   7.201   5.957 -0.7404  0.2475 -0.5147
   59MOL   H28618962   3.915   7.282   5.923  0.4884 -0.4860 -1.0926
   59MOL   H28718963   3.782   7.127   6.254  0.4792 -1.6469 -0.8337
   59MOL   H28818964   3.749   7.270   6.146  1.5904  1.7677  0.0589
   59MOL   H28918965   3.868   7.275   6.272  1.8348 -2.1926  0.4396
   59MOL   C29018966   4.107   6.908   6.015  0.2861  0.1293  0.6045
   59MOL   C29118967   4.091   6.764   5.965 -0.9697 -0.1129 -0.0216
   59MOL   O29218968   3.968   6.763   5.892 -0.0315 -0.4992  0.1649
   59MOL   C29318969   3.924   6.626   5.873  0.0232  0.0035 -0.3816
   59MOL   C29418970   3.842   6.640   5.744 -0.2048 -0.2610  0.1571
   59MOL   C29518971   3.838   6.555   5.978 -0.7033  0.2666 -0.2904
   59MOL   H29618972   4.211   6.936   6.028  0.7139 -0.8911 -0.4561
   59MOL   H29718973   4.079   6.964   5.925  1.3242  0.1145  0.2667
   59MOL   H29818974   4.095   6.688   6.043  1.0131 -0.2417 -0.2181
   59MOL   H29918975   4.005   6.562   5.838 -0.1307 -0.4784  0.1289
   59MOL   H30018976   3.846   6.547   5.687  0.9161  0.0563 -0.3020
   59MOL   H30118977   3.739   6.674   5.750 -0.3770 -0.8077  0.3110
   59MOL   H30218978   3.885   6.709   5.671  0.4832  0.6610  1.4186
   59MOL   H30318979   3.882   6.554   6.078  0.2943 -0.9124 -0.7291
   59MOL   H30418980   3.740   6.601   5.978 -0.2213  1.3226 -0.2351
   59MOL   H30518981   3.839   6.449   5.956 -1.7405 -0.2094  1.8988
   59MOL   C30618982   4.202   6.734   5.861 -0.2925 -0.5180  0.4622
   59MOL   C30718983   4.340   6.713   5.923 -0.1673  0.3019  0.0037
   59MOL   O30818984   4.438   6.657   5.837 -0.4510 -0.3889 -0.0949
   59MOL   C30918985   4.502   6.757   5.764 -0.3206 -0.6760 -0.5087
   59MOL   C31018986   4.644   6.739   5.794 -0.4027 -0.3292 -0.4945
   59MOL   C31118987   4.456   6.747   5.618  0.2252  0.3158 -0.5550
   59MOL   H31218988   4.213   6.816   5.790  2.9952  0.6483  2.1740
   59MOL   H31318989   4.190   6.643   5.803 -1.9215  0.8588 -1.4195
   59MOL   H31418990   4.379   6.802   5.972  0.7937 -0.1173 -0.0077
   59MOL   H31518991   4.487   6.856   5.807  1.8151 -0.8007  0.5720
   59MOL   H31618992   4.682   6.642   5.762 -0.7642 -0.4098 -0.6780
   59MOL   H31718993   4.663   6.751   5.901 -1.5938 -2.3405 -0.0230
   59MOL   H31818994   4.709   6.809   5.741 -0.1808  0.2615  0.5448
   59MOL   H31918995   4.485   6.818   5.541  1.4980  0.4698  0.0476
   59MOL   H32018996   4.347   6.743   5.619  0.2386  0.1220  1.4982
   59MOL   H32118997   4.500   6.654   5.583  1.1060  0.7289 -0.5614
   59MOL   H32218998   4.325   6.645   6.006 -0.2396 -0.4456 -0.6149
   60MOL     C118999   5.921   5.604   1.280  0.6975  0.9202  0.6537
   60MOL     C219000   6.005   5.694   1.372  0.4756  0.3328  0.2831
   60MOL     O319001   5.921   5.812   1.382 -0.1844 -0.1979  0.1740
   60MOL     C419002   5.988   5.926   1.435 -0.2438  0.5387  0.9152
   60MOL     C519003   5.897   6.034   1.503 -0.2892  0.8783 -0.1533
   60MOL     C619004   6.055   5.996   1.322  1.0443  0.4738  0.1802
   60MOL     H719005   5.882   5.655   1.192  1.0955 -1.6770 -1.0638
   60MOL     H819006   5.981   5.521   1.242  1.0533  1.7392 -0.6530
   60MOL     H919007   6.098   5.717   1.321  2.3226 -1.6237  2.6219
   60MOL    H1019008   6.067   5.892   1.503 -0.7392  1.0160  1.7311
   60MOL    H1119009   5.808   6.074   1.455 -0.1452 -0.7408 -1.8683
   60MOL    H1219010   5.851   5.996   1.594 -1.2216  0.6596 -0.7134
   60MOL    H1319011   5.964   6.111   1.540  1.1497  0.0459 -0.9682
   60MOL    H1419012   6.092   6.096   1.347  1.6041  0.1471  0.6681
   60MOL    H1519013   6.138   5.935   1.285  0.2126 -2.0390  2.2896
   60MOL    H1619014   6.002   6.013   1.228 -0.6417  1.1475  1.2324
   60MOL    H1719015   5.842   5.558   1.339  0.5531 -0.8524 -0.8878
   60MOL    C1819016   6.036   5.629   1.512  0.2885  0.4552  0.6576
   60MOL    C1919017   6.114   5.503   1.507  0.2230  0.1362  0.1564
   60MOL    O2019018   6.132   5.452   1.640  0.6822  0.2352  0.2485
   60MOL    C2119019   6.020   5.379   1.694  0.4791  0.2904 -0.0186
   60MOL    C2219020   5.981   5.451   1.821  0.0922  0.3097 -0.9141
   60MOL    C2319021   6.070   5.238   1.730  1.1023  0.5534  0.9541
   60MOL    H2419022   6.088   5.698   1.579 -1.5205  0.3762  2.1991
   60MOL    H2519023   5.939   5.607   1.557 -0.1716  1.0037 -0.0656
   60MOL    H2619024   6.064   5.431   1.441  1.3419 -0.3248 -0.2008
   60MOL    H2719025   5.933   5.372   1.629 -0.6084  1.2847  1.3184
   60MOL    H2819026   5.905   5.393   1.873 -0.9178  1.9226 -0.5619
   60MOL    H2919027   6.071   5.455   1.883 -0.3785  0.7727 -0.2597
   60MOL    H3019028   5.961   5.557   1.808 -1.7785  0.1647  0.5885
   60MOL    H3119029   6.159   5.258   1.790  2.6011 -1.0438 -0.7134
   60MOL    H3219030   6.112   5.183   1.647  0.8206  1.2861  0.3188
   60MOL    H3319031   6.004   5.170   1.784  1.2594 -0.3666 -0.0113
   60MOL    C3419032   6.250   5.514   1.443 -0.2535  0.2867  0.1132
   60MOL    C3519033   6.336   5.386   1.429 -0.1477  0.3239 -0.5889
   60MOL    O3619034   6.438   5.404   1.331  0.2084  0.1429  0.0801
   60MOL    C3719035   6.417   5.317   1.219  0.8045 -1.3057  0.5980
   60MOL    C3819036   6.334   5.405   1.116  0.3513 -0.1735 -0.2724
   60MOL    C3919037   6.554   5.295   1.162  0.5701  0.4166 -0.1994
   60MOL    H4019038   6.313   5.579   1.503  1.8711 -2.7385  1.2659
   60MOL    H4119039   6.244   5.564   1.346  0.7026  3.8269  1.8169
   60MOL    H4219040   6.272   5.298   1.415  0.6931 -0.2195 -1.0061
   60MOL    H4319041   6.353   5.231   1.238 -2.0619  0.5914 -0.1833
   60MOL    H4419042   6.390   5.492   1.079  0.4972  0.0544  0.4762
   60MOL    H4519043   6.244   5.445   1.162  0.6979 -0.9534  1.0989
   60MOL    H4619044   6.312   5.357   1.021 -0.2639 -0.4011 -0.0180
   60MOL    H4719045   6.610   5.388   1.170 -0.6081  1.3459 -2.3632
   60MOL    H4819046   6.602   5.209   1.207 -0.4459 -0.7399 -1.2956
   60MOL    H4919047   6.540   5.275   1.056 -0.0359  0.1596 -0.0763
   60MOL    C5019048   6.412   5.362   1.561 -0.3529 -0.1018  0.9319
   60MOL    C5119049   6.444   5.216   1.621 -0.1101 -0.3063 -0.7165
   60MOL    O5219050   6.538   5.231   1.730 -0.0497  0.3495  0.2829
   60MOL    C5319051   6.479   5.278   1.851 -0.4610  0.7597  0.6260
   60MOL    C5419052   6.576   5.391   1.900  0.0562  0.2065  0.0199
   60MOL    C5519053   6.463   5.156   1.943  0.1021  0.5052 -0.4706
   60MOL    H5619054   6.508   5.413   1.549 -0.0204 -1.5899 -3.4583
   60MOL    H5719055   6.369   5.424   1.640 -0.3070  0.0377  0.8474
   60MOL    H5819056   6.356   5.159   1.650  0.8114 -1.3782  0.0491
   60MOL    H5919057   6.382   5.325   1.837 -0.9675 -0.1054  1.1669
   60MOL    H6019058   6.557   5.431   2.000 -0.6819 -1.0355  0.3893
   60MOL    H6119059   6.580   5.482   1.841  1.4115  1.6318  2.2442
   60MOL    H6219060   6.677   5.353   1.910  0.4039  1.4097  1.2360
   60MOL    H6319061   6.555   5.098   1.947  0.3868  1.0589  3.0014
   60MOL    H6419062   6.367   5.106   1.927  0.4475 -0.5580  0.6693
   60MOL    H6519063   6.457   5.200   2.043 -0.8395 -0.9629  0.1436
   60MOL    C6619064   6.507   5.127   1.513  0.4599 -0.0984 -0.2396
   60MOL    C6719065   6.558   4.989   1.557  0.1301  0.2549 -0.1202
   60MOL    O6819066   6.636   4.937   1.452 -0.3665  0.1156 -0.2733
   60MOL    C6919067   6.766   4.996   1.439 -0.4149 -0.1227  0.3985
   60MOL    C7019068   6.857   4.986   1.564  0.1148 -0.3991 -0.1250
   60MOL    C7119069   6.835   4.934   1.313  0.1726 -0.3048  0.1577
   60MOL    H7219070   6.443   5.123   1.425  0.9859 -2.1511 -0.5468
   60MOL    H7319071   6.597   5.183   1.489  1.6737 -1.9663 -0.1118
   60MOL    H7419072   6.614   4.991   1.650 -0.4369 -1.3701  0.2658
   60MOL    H7519073   6.756   5.102   1.415  2.0616  0.4086  1.4657
   60MOL    H7619074   6.960   5.005   1.534 -0.1596 -2.1268 -2.3187
   60MOL    H7719075   6.829   5.065   1.634  0.4596  1.2360 -1.8103
   60MOL    H7819076   6.844   4.884   1.602 -1.1691 -0.1486  0.1057
   60MOL    H7919077   6.756   4.908   1.243  1.4656 -1.0994 -1.0217
   60MOL    H8019078   6.888   4.843   1.338 -0.3034 -0.0398  2.2341
   60MOL    H8119079   6.903   5.009   1.273 -0.6409  0.6215  0.4562
   60MOL    C8219080   6.437   4.898   1.568 -0.8835 -0.2296  0.1007
   60MOL    C8319081   6.425   4.830   1.709 -0.3031 -0.0545 -0.1905
   60MOL    O8419082   6.288   4.776   1.713 -0.5827  0.2824  0.4473
   60MOL    C8519083   6.192   4.874   1.719  0.3238  0.1394 -0.1151
   60MOL    C8619084   6.127   4.848   1.858  0.0017  0.3131 -0.3687
   60MOL    C8719085   6.086   4.859   1.612 -0.1413  0.3019  0.0777
   60MOL    H8819086   6.347   4.956   1.546  0.7061  1.0672 -3.3072
   60MOL    H8919087   6.446   4.819   1.493  2.7484  0.1358  0.0771
   60MOL    H9019088   6.432   4.902   1.790 -0.5114 -2.0418  1.6363
   60MOL    H9119089   6.220   4.980   1.717  0.3023  0.1408 -0.4260
   60MOL    H9219090   6.034   4.903   1.875 -0.6357 -0.5719 -0.9123
   60MOL    H9319091   6.119   4.741   1.874 -1.0531  0.2318 -1.3636
   60MOL    H9419092   6.202   4.888   1.926 -1.0875  1.9379 -0.0834
   60MOL    H9519093   6.135   4.868   1.514  1.0426  1.2043  0.7378
   60MOL    H9619094   6.038   4.762   1.629 -0.0473  0.2616  0.1143
   60MOL    H9719095   6.001   4.925   1.623 -0.8696 -0.3813 -1.2475
   60MOL    C9819096   6.528   4.718   1.744  0.1296  0.3299  0.2940
   60MOL    C9919097   6.553   4.695   1.893  0.2698  0.2961 -0.5880
   60MOL   O10019098   6.438   4.654   1.965  0.2826  0.2968 -0.0394
   60MOL   C10119099   6.450   4.527   2.031 -0.8565 -0.3472  0.8584
   60MOL   C10219100   6.310   4.475   2.058  0.0428 -0.6271 -0.0396
   60MOL   C10319101   6.539   4.550   2.155  0.4017 -0.1103  0.9410
   60MOL   H10419102   6.475   4.635   1.698 -0.4597  0.0850  1.4086
   60MOL   H10519103   6.620   4.726   1.686  2.0667  1.8053  3.4517
   60MOL   H10619104   6.613   4.604   1.892 -1.0649 -0.6463  1.9514
   60MOL   H10719105   6.500   4.452   1.970 -1.9689 -1.0424  0.7836
   60MOL   H10819106   6.257   4.563   2.095  0.2830 -1.0283  1.3033
   60MOL   H10919107   6.306   4.393   2.130  0.4848 -0.0055  0.6970
   60MOL   H11019108   6.269   4.448   1.961  0.3558 -4.5889  0.8527
   60MOL   H11119109   6.513   4.635   2.220 -1.2666  0.0753  0.0633
   60MOL   H11219110   6.646   4.545   2.135  0.4172  0.9255  0.7387
   60MOL   H11319111   6.509   4.475   2.227  0.5723 -0.5178  0.5863
   60MOL   C11419112   6.641   4.807   1.956 -0.5324 -1.1190  0.2772
   60MOL   C11519113   6.784   4.784   2.000  0.2180 -0.3825 -0.5176
   60MOL   O11619114   6.856   4.763   1.874  0.1369  0.3025  0.1713
   60MOL   C11719115   6.951   4.657   1.858  0.1036  0.1957 -0.4311
   60MOL   C11819116   7.011   4.682   1.717  0.2474 -0.2992  0.3356
   60MOL   C11919117   6.885   4.522   1.855 -0.5858  0.0966  0.3142
   60MOL   H12019118   6.582   4.847   2.038  0.8755  0.8472  0.3694
   60MOL   H12119119   6.650   4.887   1.882 -0.8911 -1.3101  0.0208
   60MOL   H12219120   6.783   4.692   2.060  0.2050 -1.5572 -2.2744
   60MOL   H12319121   7.026   4.671   1.936 -0.3044 -1.1951  0.2205
   60MOL   H12419122   6.935   4.670   1.639  1.0973 -1.5455 -0.3276
   60MOL   H12519123   7.109   4.638   1.698  0.6817  1.4408 -1.5193
   60MOL   H12619124   7.036   4.788   1.709 -1.1984 -0.1394 -3.0185
   60MOL   H12719125   6.944   4.436   1.824 -1.0464  0.0497 -0.4530
   60MOL   H12819126   6.796   4.522   1.791 -0.8963  2.0256  0.7089
   60MOL   H12919127   6.842   4.495   1.952 -0.2870  3.6581  1.5227
   60MOL   C13019128   6.847   4.899   2.072 -0.8027  0.4253  0.0708
   60MOL   C13119129   6.770   4.952   2.190  0.5845 -0.2329 -0.6915
   60MOL   O13219130   6.830   5.078   2.221 -0.7051  0.8159  0.2830
   60MOL   C13319131   6.773   5.188   2.157  0.2374 -0.5286 -1.0132
   60MOL   C13419132   6.679   5.264   2.253 -0.4278  0.1840 -0.3374
   60MOL   C13519133   6.890   5.277   2.100  0.2162  0.0951 -0.1203
   60MOL   H13619134   6.868   4.984   2.006 -1.3649 -0.1152 -0.8048
   60MOL   H13719135   6.944   4.869   2.113 -2.1616 -1.5045  1.9405
   60MOL   H13819136   6.667   4.980   2.168  0.1033 -2.0784 -0.8189
   60MOL   H13919137   6.720   5.169   2.063 -0.0058  1.1687 -1.2283
   60MOL   H14019138   6.726   5.276   2.351  0.2522  0.6621 -0.7202
   60MOL   H14119139   6.584   5.213   2.268 -0.9763  1.7057  1.5523
   60MOL   H14219140   6.663   5.358   2.202 -0.3247  0.9663  1.0309
   60MOL   H14319141   6.964   5.298   2.177  0.5337  0.3794 -0.5010
   60MOL   H14419142   6.937   5.231   2.014 -1.2253 -0.7789 -0.4630
   60MOL   H14519143   6.851   5.370   2.059  0.6302  0.6053  0.6317
   60MOL   C14619144   6.786   4.859   2.311 -0.0040  0.3689 -0.0164
   60MOL   C14719145   6.676   4.873   2.422  0.5071  0.0270  0.2149
   60MOL   O14819146   6.549   4.835   2.369  0.3904  0.0376 -0.1317
   60MOL   C14919147   6.454   4.936   2.372 -0.6822 -0.1933 -0.1148
   60MOL   C15019148   6.384   4.931   2.502  0.6483  0.4668  0.4123
   60MOL   C15119149   6.363   4.909   2.253  0.2061  0.3165 -0.4239
   60MOL   H15219150   6.886   4.873   2.350  0.8455  0.4097 -2.1454
   60MOL   H15319151   6.771   4.753   2.291 -1.2735  0.5165  0.1131
   60MOL   H15419152   6.678   4.979   2.446 -2.1633  0.8076 -2.7151
   60MOL   H15519153   6.499   5.034   2.357 -2.7865  0.5512 -1.8138
   60MOL   H15619154   6.321   4.843   2.515  2.3145 -0.8627 -0.2947
   60MOL   H15719155   6.328   5.024   2.507  0.8273  0.8278 -3.1455
   60MOL   H15819156   6.456   4.937   2.583  0.7158  0.2928  0.3667
   60MOL   H15919157   6.292   4.992   2.258 -1.3474 -1.0836  2.1923
   60MOL   H16019158   6.306   4.817   2.259  2.3022 -0.9086  1.2836
   60MOL   H16119159   6.415   4.920   2.158 -2.3912 -1.0162 -2.0546
   60MOL   C16219160   6.717   4.791   2.540  0.1601  0.7440 -0.5786
   60MOL   C16319161   6.667   4.643   2.548  0.2981  0.0075 -0.3993
   60MOL   O16419162   6.788   4.580   2.594  0.3293 -0.5440  0.2769
   60MOL   C16519163   6.796   4.448   2.534 -0.1295 -0.7051 -0.3231
   60MOL   C16619164   6.849   4.355   2.645 -0.5078  0.7063 -0.5423
   60MOL   C16719165   6.872   4.453   2.404  0.0281 -0.1002  0.2182
   60MOL   H16819166   6.825   4.799   2.555 -0.0583  2.0225  0.3921
   60MOL   H16919167   6.684   4.836   2.633  0.3795  0.2867 -0.2795
   60MOL   H17019168   6.647   4.630   2.442 -0.0237  2.0187 -0.5975
   60MOL   H17119169   6.699   4.419   2.494  0.2398 -0.5236 -1.3423
   60MOL   H17219170   6.850   4.251   2.612  1.2201  0.4771  0.1622
   60MOL   H17319171   6.795   4.362   2.740  1.3469 -2.1720  0.7943
   60MOL   H17419172   6.953   4.371   2.674 -0.5107 -1.0392  0.5345
   60MOL   H17519173   6.883   4.353   2.360 -1.7218 -0.1733 -0.0957
   60MOL   H17619174   6.970   4.498   2.419 -0.0174  0.1154 -0.1235
   60MOL   H17719175   6.819   4.518   2.335  0.8876  0.7594  0.3563
   60MOL   C17819176   6.550   4.634   2.650  0.0001  0.0014  0.1387
   60MOL   C17919177   6.462   4.505   2.632 -0.0503 -0.2427 -1.1206
   60MOL   O18019178   6.366   4.512   2.736 -0.1399  0.1040  0.2982
   60MOL   C18119179   6.376   4.406   2.832  0.2564 -1.4839 -0.0575
   60MOL   C18219180   6.229   4.373   2.878 -0.0476  0.2990  0.1924
   60MOL   C18319181   6.466   4.441   2.948  0.2463  0.4406 -0.0532
   60MOL   H18419182   6.485   4.721   2.643 -0.2387  0.0293  2.3231
   60MOL   H18519183   6.590   4.632   2.752  1.0300 -0.7912 -0.2731
   60MOL   H18619184   6.519   4.412   2.634  0.8631  0.3484  2.0191
   60MOL   H18719185   6.411   4.315   2.783 -1.0562 -3.8268  3.1490
   60MOL   H18819186   6.152   4.385   2.802  0.3583  1.3385 -0.0738
   60MOL   H18919187   6.208   4.444   2.958  0.3279  0.7031 -0.0612
   60MOL   H19019188   6.223   4.270   2.914  1.4175 -0.2267 -0.9992
   60MOL   H19119189   6.567   4.467   2.918  0.0151  1.1038 -0.2789
   60MOL   H19219190   6.475   4.363   3.023  1.3617  0.1284 -0.5035
   60MOL   H19319191   6.422   4.522   3.007  1.5362  0.1804  1.3014
   60MOL   C19419192   6.374   4.523   2.510  0.7360  0.2788 -0.0112
   60MOL   C19519193   6.299   4.383   2.473  0.5701 -0.1852  0.1612
   60MOL   O19619194   6.401   4.317   2.406 -0.2918 -0.2636  0.2318
   60MOL   C19719195   6.402   4.178   2.397 -0.1146  0.2945  0.1406
   60MOL   C19819196   6.475   4.133   2.267 -0.3070 -0.0594  0.1293
   60MOL   C19919197   6.471   4.112   2.517  0.5068 -0.6008  0.8901
   60MOL   H20019198   6.305   4.607   2.510 -1.2473 -1.3227  1.0265
   60MOL   H20119199   6.445   4.546   2.430  0.5630  0.1843 -0.1933
   60MOL   H20219200   6.277   4.334   2.568  0.2542 -0.5724 -0.1151
   60MOL   H20319201   6.298   4.146   2.403 -0.4576  1.4158  0.2123
   60MOL   H20419202   6.435   4.184   2.179  1.1861  0.7461 -0.1055
   60MOL   H20519203   6.578   4.169   2.262  0.0136 -1.0782 -0.8624
   60MOL   H20619204   6.463   4.025   2.260 -1.7878 -0.0188  1.6361
   60MOL   H20719205   6.553   4.177   2.548 -0.1603  1.0640 -0.7650
   60MOL   H20819206   6.401   4.096   2.599  0.3027  1.4527  1.1440
   60MOL   H20919207   6.499   4.010   2.490  0.0868 -0.3891 -0.3750
   60MOL   C21019208   6.175   4.409   2.394 -0.2342 -0.5396 -0.4687
   60MOL   C21119209   6.066   4.491   2.453  0.1172  0.2291 -0.3511
   60MOL   O21219210   5.980   4.514   2.341  0.4083  0.0922 -0.0311
   60MOL   C21319211   6.001   4.633   2.268  0.3857  0.4880  0.4094
   60MOL   C21419212   5.940   4.617   2.127 -0.1323  1.1244  0.1429
   60MOL   C21519213   5.936   4.756   2.336 -0.3440  0.4189 -0.2824
   60MOL   H21619214   6.121   4.319   2.363  1.1533 -1.8331  0.7823
   60MOL   H21719215   6.213   4.462   2.307 -2.3715  2.9515  0.6145
   60MOL   H21819216   6.090   4.588   2.496 -3.0206  0.3185  1.3429
   60MOL   H21919217   6.105   4.662   2.254  1.0583 -1.5367  1.1592
   60MOL   H22019218   5.939   4.711   2.070 -1.3174 -0.1826 -2.0447
   60MOL   H22119219   5.835   4.591   2.123 -0.5422  2.7472 -0.2207
   60MOL   H22219220   5.997   4.549   2.063 -2.4697  1.1481 -2.0075
   60MOL   H22319221   5.829   4.746   2.354 -0.5149  1.0779 -0.9022
   60MOL   H22419222   5.950   4.832   2.259 -2.0184  1.9381  0.8544
   60MOL   H22519223   5.982   4.793   2.427  0.9345 -0.2762 -0.6418
   60MOL   C22619224   5.982   4.407   2.562  0.0986  0.2653 -0.8510
   60MOL   C22719225   5.885   4.492   2.646  0.5527  0.6695  0.6067
   60MOL   O22819226   5.971   4.561   2.735  0.0418  0.2475  0.5545
   60MOL   C22919227   5.955   4.701   2.754  0.0570 -0.1286 -1.0172
   60MOL   C23019228   6.096   4.766   2.785 -0.3513 -0.0025  0.5021
   60MOL   C23119229   5.843   4.737   2.852  0.1497 -0.0675  0.5208
   60MOL   H23219230   6.052   4.362   2.633 -0.9235 -1.8089 -1.1017
   60MOL   H23319231   5.926   4.330   2.509 -0.6700  0.1068  0.1767
   60MOL   H23419232   5.831   4.562   2.583  2.2595  0.7772 -0.7875
   60MOL   H23519233   5.924   4.737   2.656  0.0833 -2.2251 -1.8439
   60MOL   H23619234   6.132   4.739   2.884 -0.5076  0.8262  0.7896
   60MOL   H23719235   6.174   4.736   2.715 -1.5399  3.0641 -2.2647
   60MOL   H23819236   6.078   4.873   2.797  2.4949  0.4005  1.4139
   60MOL   H23919237   5.743   4.733   2.809 -0.0726  1.8431  0.8067
   60MOL   H24019238   5.860   4.840   2.885 -0.3028  0.5347 -1.0640
   60MOL   H24119239   5.838   4.674   2.940 -0.5287  1.1318  1.3445
   60MOL   C24219240   5.790   4.411   2.740 -0.1815  0.1275 -0.0433
   60MOL   C24319241   5.645   4.388   2.700  0.0867  0.4698  0.1976
   60MOL   O24419242   5.585   4.518   2.692  0.2436 -0.1926 -0.6850
   60MOL   C24519243   5.536   4.551   2.563 -0.1204  1.0861 -1.3095
   60MOL   C24619244   5.401   4.466   2.534  0.1656 -0.3697  0.2906
   60MOL   C24719245   5.519   4.702   2.571  0.0749  0.5321 -0.2880
   60MOL   H24819246   5.833   4.312   2.755 -0.7563 -0.1314 -0.0948
   60MOL   H24919247   5.786   4.450   2.842  1.0183 -0.0693  0.0890
   60MOL   H25019248   5.631   4.335   2.605 -2.2725 -1.5704  1.6103
   60MOL   H25119249   5.609   4.534   2.483 -1.9275 -1.2306 -2.5378
   60MOL   H25219250   5.417   4.358   2.539 -0.5004 -0.3979  2.0870
   60MOL   H25319251   5.321   4.501   2.598  0.8069  1.6107  0.0489
   60MOL   H25419252   5.379   4.491   2.430  0.0207 -0.1245  0.3792
   60MOL   H25519253   5.461   4.725   2.660  2.1021  0.8179  0.9835
   60MOL   H25619254   5.616   4.749   2.586 -0.7262  2.3841 -0.7621
   60MOL   H25719255   5.481   4.746   2.479  2.7833  1.1687 -1.1501
   60MOL   C25819256   5.548   4.319   2.810  0.2302 -0.5763 -0.4228
   60MOL   C25919257   5.586   4.169   2.857  0.5401 -0.4158 -0.4866
   60MOL   O26019258   5.487   4.090   2.801  0.4917 -0.0217 -0.0192
   60MOL   C26119259   5.482   3.941   2.823  0.5638 -0.3514 -0.1151
   60MOL   C26219260   5.358   3.919   2.912 -0.2338  0.1650  0.4363
   60MOL   C26319261   5.479   3.870   2.701  0.1843 -0.6587  1.0548
   60MOL   H26419262   5.554   4.378   2.901 -2.7172  0.1647 -0.6489
   60MOL   H26519263   5.449   4.317   2.764  0.1286  1.6542 -0.3689
   60MOL   H26619264   5.679   4.142   2.808  0.7584 -3.4906  1.4592
   60MOL   H26719265   5.567   3.905   2.879  1.2961 -0.3815 -1.2363
   60MOL   H26819266   5.363   3.815   2.945  0.3241  0.1787  0.4042
   60MOL   H26919267   5.262   3.931   2.860  0.7178 -0.3831 -1.5228
   60MOL   H27019268   5.359   3.983   2.999  0.1399  1.0335 -0.1992
   60MOL   H27119269   5.542   3.782   2.714 -0.3218 -0.9304  1.6971
   60MOL   H27219270   5.380   3.835   2.673  0.8961 -0.4854 -1.7770
   60MOL   H27319271   5.524   3.927   2.620 -0.3324 -1.2307  0.3654
   60MOL   C27419272   5.597   4.153   3.013 -0.5460 -0.1069  0.0169
   60MOL   C27519273   5.723   4.205   3.096 -0.2015 -0.0764 -0.3885
   60MOL   O27619274   5.692   4.170   3.227  0.2698  0.6800 -0.3858
   60MOL   C27719275   5.645   4.275   3.321  0.8039  0.0522  0.6171
   60MOL   C27819276   5.696   4.232   3.465 -0.1828  0.5765 -0.6580
   60MOL   C27919277   5.498   4.295   3.327 -0.0860  0.7045  0.5955
   60MOL   H28019278   5.500   4.186   3.050  0.2293  0.4705  1.6107
   60MOL   H28119279   5.593   4.049   3.044  2.3548 -0.4497 -0.5853
   60MOL   H28219280   5.752   4.310   3.101 -1.1269  0.2022 -0.8070
   60MOL   H28319281   5.682   4.374   3.297  1.0199 -1.0946 -4.3704
   60MOL   H28419282   5.645   4.146   3.509  1.2801  0.7044  1.3561
   60MOL   H28519283   5.802   4.211   3.453 -0.4944 -0.9610 -0.7817
   60MOL   H28619284   5.685   4.321   3.527 -3.3638  0.5797 -1.1435
   60MOL   H28719285   5.437   4.211   3.360 -1.0792  0.6905 -1.2365
   60MOL   H28819286   5.459   4.317   3.228  0.7659  0.4084  0.1922
   60MOL   H28919287   5.464   4.368   3.401 -2.2686 -1.1622  1.4964
   60MOL   C29019288   5.854   4.131   3.055 -0.7392 -0.2041 -1.3083
   60MOL   C29119289   5.968   4.131   3.158  0.9236  0.1317  0.4953
   60MOL   O29219290   6.080   4.058   3.102  0.6868 -0.3394  0.3419
   60MOL   C29319291   6.059   3.916   3.126 -0.4477 -0.0537 -0.1909
   60MOL   C29419292   6.089   3.866   3.272  0.2841  0.1417 -0.0701
   60MOL   C29519293   6.162   3.854   3.027  0.4600 -0.3118  0.5543
   60MOL   H29619294   5.882   4.181   2.962  1.0719  2.1220  0.4520
   60MOL   H29719295   5.831   4.029   3.022 -1.0771 -0.9806  1.2504
   60MOL   H29819296   5.937   4.087   3.253 -2.2588 -0.3744 -0.7007
   60MOL   H29919297   5.967   3.882   3.078 -1.5751  1.1336  1.0718
   60MOL   H30019298   6.113   3.760   3.273  1.8316  0.4769  0.3853
   60MOL   H30119299   6.170   3.926   3.314  0.3036 -0.0360  0.1466
   60MOL   H30219300   6.008   3.886   3.341 -1.2189  0.3154 -1.8604
   60MOL   H30319301   6.142   3.872   2.921  0.4603 -1.1842  0.3990
   60MOL   H30419302   6.265   3.881   3.048  0.4198 -2.1886  3.4911
   60MOL   H30519303   6.159   3.746   3.042 -1.8616 -0.0770  2.1132
   60MOL   C30619304   6.036   4.267   3.173  0.0822 -0.2215  0.4329
   60MOL   C30719305   6.145   4.274   3.281 -0.0858  0.2529  1.1475
   60MOL   O30819306   6.177   4.409   3.282 -0.1882  0.1719 -0.0216
   60MOL   C30919307   6.280   4.438   3.362 -0.0199 -0.2049  0.2143
   60MOL   C31019308   6.331   4.578   3.331  1.0238 -0.3885 -0.2801
   60MOL   C31119309   6.236   4.434   3.513  0.5173  0.1877  0.9089
   60MOL   H31219310   5.966   4.350   3.186  1.1539  1.1520 -2.2075
   60MOL   H31319311   6.091   4.298   3.084  0.7119 -0.3700  0.7712
   60MOL   H31419312   6.111   4.229   3.375  1.3967  0.1002  1.6276
   60MOL   H31519313   6.375   4.384   3.359  0.0028 -0.2591  1.4436
   60MOL   H31619314   6.368   4.592   3.229 -0.4279  1.7975 -0.5561
   60MOL   H31719315   6.411   4.611   3.396  0.2476  2.5609 -0.7436
   60MOL   H31819316   6.247   4.648   3.325  0.7486 -0.8527 -2.3876
   60MOL   H31919317   6.333   4.442   3.561 -0.1647  0.4800  2.2568
   60MOL   H32019318   6.193   4.339   3.546 -0.5352  0.1484 -0.5177
   60MOL   H32119319   6.181   4.521   3.548  3.4495  1.6505  1.9954
   60MOL   H32219320   6.234   4.216   3.257 -0.3582  0.4887 -0.4808
   61MOL     C119321   6.062   2.557   6.216 -0.3351  0.2076 -0.7245
   61MOL     C219322   6.172   2.450   6.213  0.2593 -0.5466  0.8371
   61MOL     O319323   6.274   2.474   6.300  0.3439  0.2622 -0.7208
   61MOL     C419324   6.374   2.562   6.271 -0.2948  0.2629  0.0692
   61MOL     C519325   6.483   2.486   6.201  0.4939  0.0661  0.0752
   61MOL     C619326   6.443   2.602   6.404  0.0146  0.4563 -0.2317
   61MOL     H719327   5.971   2.541   6.157 -0.5174 -0.0351 -0.3777
   61MOL     H819328   6.029   2.554   6.320 -0.2097  0.1097 -0.6890
   61MOL     H919329   6.220   2.460   6.116 -3.3665  1.0469 -0.8907
   61MOL    H1019330   6.341   2.649   6.214  2.0925  2.6342  2.1602
   61MOL    H1119331   6.575   2.544   6.192  0.1739  0.6408  0.4966
   61MOL    H1219332   6.506   2.395   6.256  0.2652 -0.0989 -0.0999
   61MOL    H1319333   6.438   2.459   6.106 -1.5413  1.7214  0.5311
   61MOL    H1419334   6.522   2.674   6.388 -0.2298  0.5194 -1.1793
   61MOL    H1519335   6.380   2.646   6.482  1.0785  1.6495 -0.0517
   61MOL    H1619336   6.485   2.510   6.446 -2.0093 -0.5465 -0.3389
   61MOL    H1719337   6.103   2.656   6.197 -1.2211  0.9903  1.2722
   61MOL    C1819338   6.130   2.311   6.251  0.0418  0.6078  0.4442
   61MOL    C1919339   6.055   2.229   6.149  0.5434 -0.2082 -0.3058
   61MOL    O2019340   5.917   2.268   6.152 -0.4443 -0.4512  0.8299
   61MOL    C2119341   5.834   2.244   6.042 -0.0861 -0.0758 -0.1080
   61MOL    C2219342   5.870   2.334   5.918 -0.8286 -0.2272  0.8301
   61MOL    C2319343   5.693   2.286   6.086 -0.1611  0.0896 -0.7632
   61MOL    H2419344   6.222   2.255   6.261 -0.9649 -1.2036 -0.1781
   61MOL    H2519345   6.080   2.308   6.348 -0.2720 -1.5361  0.2262
   61MOL    H2619346   6.099   2.241   6.050  3.2774  1.4431  1.0481
   61MOL    H2719347   5.821   2.144   5.999  0.5787 -0.3171  0.2400
   61MOL    H2819348   5.849   2.439   5.937  0.2213  0.1816 -0.1460
   61MOL    H2919349   5.971   2.313   5.882  0.0592  2.3933  1.6899
   61MOL    H3019350   5.803   2.315   5.834 -0.6272  0.2599  0.5562
   61MOL    H3119351   5.604   2.256   6.030 -0.2006 -1.6149  0.1736
   61MOL    H3219352   5.695   2.395   6.098 -0.7082  0.0698 -0.4265
   61MOL    H3319353   5.677   2.261   6.191 -0.2307  2.1543 -0.2601
   61MOL    C3419354   6.051   2.073   6.175  0.4695  0.1988  0.2100
   61MOL    C3519355   6.188   2.008   6.163 -0.7171 -0.0869 -0.2822
   61MOL    O3619356   6.194   1.879   6.222 -0.3559 -0.9826  0.2066
   61MOL    C3719357   6.192   1.865   6.363 -0.3437 -0.2801  0.8488
   61MOL    C3819358   6.253   1.730   6.391  0.1213 -0.1887 -0.1020
   61MOL    C3919359   6.255   1.975   6.451  0.4753  0.1916  0.4638
   61MOL    H4019360   5.981   2.025   6.106  0.5988 -0.1210  0.2998
   61MOL    H4119361   6.009   2.072   6.276  2.5247 -0.0848  1.0752
   61MOL    H4219362   6.274   2.062   6.204  1.0146 -2.7292 -0.3363
   61MOL    H4319363   6.090   1.850   6.399 -0.4817  1.2740  1.1599
   61MOL    H4419364   6.358   1.719   6.362  0.5664  1.6613  0.7389
   61MOL    H4519365   6.197   1.654   6.337  1.0062 -0.1724 -1.0674
   61MOL    H4619366   6.245   1.719   6.499 -1.3347  5.0891  0.4528
   61MOL    H4719367   6.283   1.941   6.551  0.9392 -0.6223  0.0659
   61MOL    H4819368   6.342   2.030   6.415 -0.6043  2.4725  1.2807
   61MOL    H4919369   6.180   2.052   6.466 -0.7538 -0.9555  0.2925
   61MOL    C5019370   6.239   2.002   6.014 -0.1167  0.1701 -0.2510
   61MOL    C5119371   6.385   1.960   6.008 -0.4040  0.0422  0.0131
   61MOL    O5219372   6.463   2.077   6.052  0.5942  0.1203 -0.8968
   61MOL    C5319373   6.594   2.045   6.105 -0.2242 -0.5732 -0.9817
   61MOL    C5419374   6.574   2.030   6.252  0.0659  0.1160  0.2971
   61MOL    C5519375   6.686   2.169   6.072 -0.3007 -0.3768  0.0551
   61MOL    H5619376   6.176   1.932   5.959 -1.4797  1.3223 -0.1971
   61MOL    H5719377   6.228   2.098   5.963 -2.8212  0.2037  0.3330
   61MOL    H5819378   6.403   1.877   6.077 -1.0808  0.3374  0.5460
   61MOL    H5919379   6.637   1.966   6.043  0.0981 -1.1065 -0.0883
   61MOL    H6019380   6.503   1.948   6.267 -0.7535  0.8730  0.5776
   61MOL    H6119381   6.526   2.114   6.303  1.3519  0.5336  0.8311
   61MOL    H6219382   6.667   2.023   6.308 -0.2656  3.0865  1.2857
   61MOL    H6319383   6.787   2.144   6.105 -0.4174 -0.1362  0.6008
   61MOL    H6419384   6.664   2.263   6.121  1.3640 -0.1709  0.4500
   61MOL    H6519385   6.697   2.185   5.964  3.7735 -0.9003  0.3004
   61MOL    C6619386   6.416   1.913   5.867 -0.1008  1.1011  0.1202
   61MOL    C6719387   6.384   1.769   5.833 -0.0563  0.4616  0.4955
   61MOL    O6819388   6.473   1.688   5.909 -0.0438  0.3618  0.0732
   61MOL    C6919389   6.430   1.556   5.931  0.0169  0.1220  0.5213
   61MOL    C7019390   6.535   1.451   5.901 -0.0451  0.0893 -0.0533
   61MOL    C7119391   6.368   1.536   6.069  0.2922  0.5554 -0.8401
   61MOL    H7219392   6.362   1.973   5.793 -1.2496  3.8132  3.0488
   61MOL    H7319393   6.516   1.946   5.838 -0.6842 -0.5415 -4.0726
   61MOL    H7419394   6.279   1.756   5.861 -0.4589  0.2203 -1.1139
   61MOL    H7519395   6.340   1.536   5.872 -1.4636  1.0342  2.4228
   61MOL    H7619396   6.588   1.459   5.806  1.0915 -1.4677  0.4096
   61MOL    H7719397   6.612   1.451   5.978 -1.1317  0.9541  1.0365
   61MOL    H7819398   6.501   1.347   5.908 -0.0680  0.0939 -0.0993
   61MOL    H7919399   6.330   1.435   6.085 -0.2032  0.3120 -3.3109
   61MOL    H8019400   6.281   1.601   6.083  0.5677  0.7347  0.0330
   61MOL    H8119401   6.435   1.556   6.153  1.3207 -2.1926 -0.9585
   61MOL    C8219402   6.405   1.731   5.680 -0.1840 -0.2348  0.1320
   61MOL    C8319403   6.280   1.761   5.599  0.3383 -0.2064  0.3556
   61MOL    O8419404   6.320   1.755   5.464 -0.3838 -0.1033  0.1293
   61MOL    C8519405   6.372   1.870   5.401 -0.9943  0.7345  0.3620
   61MOL    C8619406   6.257   1.957   5.347  0.3324  0.2225  0.5519
   61MOL    C8719407   6.456   1.820   5.287 -0.1355 -0.5748 -0.5346
   61MOL    H8819408   6.491   1.786   5.641 -0.1639  0.1951  0.7758
   61MOL    H8919409   6.412   1.623   5.675 -0.1835 -0.1019 -4.4398
   61MOL    H9019410   6.241   1.859   5.622  1.4379  0.3305 -0.0020
   61MOL    H9119411   6.424   1.940   5.466  0.2240 -0.8877  1.1668
   61MOL    H9219412   6.287   2.032   5.274  0.5421 -1.0900 -0.7269
   61MOL    H9319413   6.186   1.893   5.294 -0.9696  1.5594  0.6331
   61MOL    H9419414   6.197   2.008   5.423  0.6653  3.2221 -1.1551
   61MOL    H9519415   6.535   1.759   5.332  0.3791  0.6005  0.1919
   61MOL    H9619416   6.404   1.755   5.216  0.3445 -2.8942  1.1581
   61MOL    H9719417   6.501   1.903   5.233 -0.1822  0.0757  0.4078
   61MOL    C9819418   6.169   1.659   5.603 -0.3782 -0.5309  0.0923
   61MOL    C9919419   6.038   1.728   5.647 -0.5670  0.5734 -0.1918
   61MOL   O10019420   5.945   1.620   5.681 -0.1133 -0.0687 -0.1922
   61MOL   C10119421   5.954   1.578   5.817  0.5106 -0.4914 -0.2872
   61MOL   C10219422   5.892   1.439   5.825 -0.8058  0.8996  0.3470
   61MOL   C10319423   5.908   1.673   5.933 -0.2203 -0.0965 -0.0577
   61MOL   H10419424   6.162   1.591   5.519  2.3360  1.2144 -1.6322
   61MOL   H10519425   6.189   1.589   5.684  0.7073  1.1118  1.2603
   61MOL   H10619426   6.043   1.797   5.731 -0.8134 -1.4726  1.5400
   61MOL   H10719427   6.060   1.565   5.838  0.8792  0.5017 -1.4979
   61MOL   H10819428   5.931   1.376   5.905 -1.0054 -0.5062 -0.6230
   61MOL   H10919429   5.923   1.389   5.733  1.3280  0.2523  1.3892
   61MOL   H11019430   5.783   1.438   5.824 -0.8046  0.7844 -0.6287
   61MOL   H11119431   5.942   1.624   6.025  0.0617  0.1718 -0.0213
   61MOL   H11219432   5.799   1.670   5.942 -0.0190 -1.0265  2.7326
   61MOL   H11319433   5.944   1.775   5.925 -0.0797 -0.0727  0.8322
   61MOL   C11419434   5.973   1.808   5.531  0.3406 -0.2321 -0.2019
   61MOL   C11519435   5.827   1.860   5.545 -0.4444  0.0009  1.1613
   61MOL   O11619436   5.837   1.970   5.639 -0.7333 -0.6356  0.6451
   61MOL   C11719437   5.726   2.048   5.684 -0.2099 -0.1419  0.6711
   61MOL   C11819438   5.597   1.960   5.707  0.2636 -0.3312 -0.1126
   61MOL   C11919439   5.701   2.165   5.595 -0.4177  0.1354  0.0591
   61MOL   H12019440   5.984   1.728   5.457 -0.9960 -0.6125  0.0064
   61MOL   H12119441   6.047   1.883   5.503 -0.5542  1.2905  1.4244
   61MOL   H12219442   5.772   1.782   5.599  1.0870 -2.5708 -0.8786
   61MOL   H12319443   5.744   2.076   5.788 -0.9453 -0.2556  0.8313
   61MOL   H12419444   5.533   2.028   5.764  1.6066  3.0831 -2.4460
   61MOL   H12519445   5.615   1.876   5.773  0.8847 -0.9278 -1.0319
   61MOL   H12619446   5.537   1.940   5.618  1.7886 -0.2768 -1.1757
   61MOL   H12719447   5.656   2.146   5.497 -0.7382 -0.3052  0.2898
   61MOL   H12819448   5.798   2.212   5.583  0.2917 -1.5516 -1.1301
   61MOL   H12919449   5.637   2.238   5.645 -1.0716 -0.7317  0.5074
   61MOL   C13019450   5.756   1.876   5.410  0.8146 -1.0949  0.1398
   61MOL   C13119451   5.719   1.744   5.330  0.4286  0.0471 -0.1269
   61MOL   O13219452   5.729   1.760   5.189  0.6486  0.0099  0.0238
   61MOL   C13319453   5.819   1.666   5.122 -0.1491  0.1866 -0.2874
   61MOL   C13419454   5.782   1.636   4.978  0.1683 -0.6020 -0.3361
   61MOL   C13519455   5.964   1.719   5.131 -0.1585  0.5369  0.2403
   61MOL   H13619456   5.820   1.931   5.341 -1.3170 -1.0216 -1.8293
   61MOL   H13719457   5.668   1.940   5.408  1.1189 -0.6928 -0.7058
   61MOL   H13819458   5.786   1.664   5.363 -0.6699 -2.0978 -2.9514
   61MOL   H13919459   5.819   1.568   5.171  0.1462 -0.4291 -1.4893
   61MOL   H14019460   5.697   1.569   4.988 -0.1044  0.0135  1.7299
   61MOL   H14119461   5.854   1.589   4.911  0.9933  0.6591 -0.3435
   61MOL   H14219462   5.758   1.731   4.930 -2.1584 -1.3626 -0.7321
   61MOL   H14319463   6.029   1.637   5.099 -2.0654 -0.1335 -2.0228
   61MOL   H14419464   5.981   1.810   5.073 -0.2312 -0.3790 -1.2549
   61MOL   H14519465   5.983   1.743   5.235 -0.1893 -0.4936  0.4932
   61MOL   C14619466   5.573   1.697   5.362 -0.4536  0.5289 -0.2768
   61MOL   C14719467   5.543   1.546   5.329  0.9839 -0.4120  0.2604
   61MOL   O14819468   5.608   1.476   5.432  0.8712 -0.4592  0.3623
   61MOL   C14919469   5.614   1.337   5.421 -0.3280 -0.2289 -0.3797
   61MOL   C15019470   5.584   1.275   5.558  0.2155 -0.1173  0.4088
   61MOL   C15119471   5.758   1.306   5.381  0.0085  0.4329  0.2440
   61MOL   H15219472   5.500   1.771   5.330  0.7556  2.1097  0.5674
   61MOL   H15319473   5.557   1.708   5.469 -0.8988 -0.0364 -0.2836
   61MOL   H15419474   5.581   1.522   5.230  0.3734 -0.5745  0.0655
   61MOL   H15519475   5.536   1.297   5.357 -4.2138  1.0641  3.3238
   61MOL   H15619476   5.487   1.301   5.600 -1.2505  0.7260 -3.3292
   61MOL   H15719477   5.658   1.285   5.638  1.0930  0.9156 -0.5061
   61MOL   H15819478   5.577   1.168   5.540 -0.3506  0.2225 -1.4729
   61MOL   H15919479   5.776   1.203   5.350  0.1200  0.4399  0.2827
   61MOL   H16019480   5.821   1.337   5.465 -0.4081 -0.2655  0.8250
   61MOL   H16119481   5.787   1.374   5.301  1.8087 -2.9122 -2.0252
   61MOL   C16219482   5.393   1.512   5.315 -0.7150 -0.8254  1.0359
   61MOL   C16319483   5.320   1.589   5.206  0.2372  0.2916  0.3514
   61MOL   O16419484   5.365   1.539   5.083  0.5048 -0.0746  0.4719
   61MOL   C16519485   5.418   1.628   4.987 -0.2554  0.0607  0.1356
   61MOL   C16619486   5.308   1.711   4.927 -0.7433  0.2231 -0.3281
   61MOL   C16719487   5.464   1.552   4.860  0.1492 -0.2359 -0.3853
   61MOL   H16819488   5.386   1.407   5.288  0.0631 -0.5288 -0.3429
   61MOL   H16919489   5.349   1.524   5.414  2.1485  1.4756  2.0919
   61MOL   H17019490   5.340   1.696   5.211  1.5802  0.1201 -1.1012
   61MOL   H17119491   5.492   1.690   5.037  1.2941 -2.6102  1.2943
   61MOL   H17219492   5.345   1.756   4.834  0.7635  0.2195  0.2516
   61MOL   H17319493   5.269   1.791   4.990 -0.8960  0.3001 -0.5191
   61MOL   H17419494   5.220   1.655   4.897 -0.1431 -1.0940  0.3077
   61MOL   H17519495   5.386   1.538   4.785 -1.8681  0.5641  1.5104
   61MOL   H17619496   5.523   1.462   4.879  0.1473 -0.5753 -1.8684
   61MOL   H17719497   5.546   1.616   4.828  0.7997  0.8032  3.1395
   61MOL   C17819498   5.165   1.554   5.201 -0.0745  0.3857  0.0378
   61MOL   C17919499   5.085   1.591   5.329  0.2180  0.6140 -0.3336
   61MOL   O18019500   5.119   1.727   5.355  0.4205  0.2621 -0.0097
   61MOL   C18119501   5.131   1.769   5.494  0.6740  0.0914  0.7967
   61MOL   C18219502   5.031   1.888   5.512  0.6099  0.1483  0.5943
   61MOL   C18319503   5.274   1.802   5.528 -0.4930 -0.1092  0.1365
   61MOL   H18419504   5.157   1.451   5.167 -2.5807  0.6346 -0.2070
   61MOL   H18519505   5.115   1.615   5.125 -1.3302  0.7960  1.1770
   61MOL   H18619506   5.122   1.531   5.411 -0.8581  0.7443  0.2498
   61MOL   H18719507   5.107   1.694   5.570  2.0904 -0.2299  0.9336
   61MOL   H18819508   5.077   1.977   5.469 -0.8989  0.8006  0.3249
   61MOL   H18919509   5.029   1.907   5.619 -0.7609 -1.1067  0.8082
   61MOL   H19019510   4.934   1.847   5.484  0.9412  0.7027 -1.4768
   61MOL   H19119511   5.335   1.815   5.438 -0.2961 -0.2320  0.2525
   61MOL   H19219512   5.319   1.716   5.577 -1.9806  0.6170  2.9112
   61MOL   H19319513   5.281   1.886   5.597 -1.2524  0.5226 -0.5404
   61MOL   C19419514   4.931   1.591   5.327  0.3771  0.1168 -1.4812
   61MOL   C19519515   4.869   1.447   5.326 -0.2900  0.3265 -0.0877
   61MOL   O19619516   4.898   1.397   5.198 -0.9884 -0.1288  0.2701
   61MOL   C19719517   4.886   1.259   5.176 -0.3678  0.3161 -1.5243
   61MOL   C19819518   4.862   1.257   5.023 -0.0839 -0.0647 -0.0951
   61MOL   C19919519   5.008   1.174   5.211  0.7998 -0.4336 -0.5989
   61MOL   H20019520   4.898   1.639   5.420  0.6468  1.0015 -1.8417
   61MOL   H20119521   4.887   1.654   5.250  1.5745  1.4634 -1.0900
   61MOL   H20219522   4.924   1.391   5.402  1.6487  0.4016 -1.4180
   61MOL   H20319523   4.797   1.221   5.226  0.2858  0.3996 -0.2558
   61MOL   H20419524   4.885   1.158   4.983 -1.0090 -0.5665  0.5787
   61MOL   H20519525   4.762   1.300   5.009 -0.2115  0.7727  2.9644
   61MOL   H20619526   4.922   1.328   4.966  0.4388  0.0236  0.5719
   61MOL   H20719527   5.092   1.210   5.151  1.8697  1.4326  1.9062
   61MOL   H20819528   5.038   1.177   5.316 -2.7548 -1.0785  0.4813
   61MOL   H20919529   4.992   1.067   5.196  0.7312 -0.5144  0.0237
   61MOL   C21019530   4.713   1.445   5.341  0.5452 -0.1307 -0.3200
   61MOL   C21119531   4.656   1.527   5.461 -0.1473  0.7539 -0.4913
   61MOL   O21219532   4.513   1.510   5.456  0.4923  0.4263  0.1965
   61MOL   C21319533   4.437   1.591   5.358 -0.5160 -0.6429  0.6957
   61MOL   C21419534   4.373   1.499   5.255  0.1090 -0.2458  0.2294
   61MOL   C21519535   4.337   1.674   5.446  0.2041 -0.7242  0.0309
   61MOL   H21619536   4.686   1.341   5.356 -4.3427  1.0329 -0.0985
   61MOL   H21719537   4.657   1.471   5.252 -1.7852 -1.0224  0.8525
   61MOL   H21819538   4.672   1.635   5.453 -1.6845  1.0736  0.5109
   61MOL   H21919539   4.502   1.664   5.309  0.8188 -3.6099 -2.1440
   61MOL   H22019540   4.319   1.574   5.196  1.9828  1.0386  0.0957
   61MOL   H22119541   4.307   1.436   5.314 -1.2770  0.2855 -0.7180
   61MOL   H22219542   4.447   1.441   5.200 -0.7751  0.2138 -1.4866
   61MOL   H22319543   4.388   1.738   5.518 -2.1981  1.2045  0.0766
   61MOL   H22419544   4.271   1.594   5.480 -1.3174  0.3842 -0.2718
   61MOL   H22519545   4.275   1.735   5.380 -0.4966  0.3951  1.6864
   61MOL   C22619546   4.695   1.469   5.599 -0.2149  0.7210  0.7215
   61MOL   C22719547   4.623   1.542   5.718 -0.3941  0.1341 -0.2086
   61MOL   O22819548   4.716   1.599   5.814  0.2478  0.4326 -0.5109
   61MOL   C22919549   4.780   1.716   5.786 -0.3440  0.0236 -0.6748
   61MOL   C23019550   4.925   1.675   5.820  0.6151  0.0947 -0.3416
   61MOL   C23119551   4.724   1.829   5.884  0.2472 -0.2476  0.4047
   61MOL   H23219552   4.803   1.471   5.610 -0.0877  2.8130 -0.6141
   61MOL   H23319553   4.669   1.363   5.600  1.8370  0.2082  2.8345
   61MOL   H23419554   4.561   1.625   5.683 -1.7906 -1.4921 -1.7060
   61MOL   H23519555   4.774   1.746   5.681  0.6773 -2.7479 -1.5614
   61MOL   H23619556   4.975   1.602   5.756  3.1348  0.2904  1.3238
   61MOL   H23719557   4.995   1.757   5.805  0.7130 -0.5644 -3.7972
   61MOL   H23819558   4.938   1.650   5.925  1.8494 -0.8052 -0.6912
   61MOL   H23919559   4.629   1.867   5.846  0.2187 -1.1825 -0.4956
   61MOL   H24019560   4.798   1.909   5.883 -1.8361  1.7119 -0.3717
   61MOL   H24119561   4.706   1.788   5.983 -2.5079 -1.1119 -0.3942
   61MOL   C24219562   4.534   1.449   5.797 -0.1142 -0.2063  0.0051
   61MOL   C24319563   4.424   1.520   5.890 -0.4546 -0.0655  0.4210
   61MOL   O24419564   4.404   1.449   6.013 -0.4030 -0.9141  0.6145
   61MOL   C24519565   4.497   1.475   6.114  0.1075 -0.1636  0.1428
   61MOL   C24619566   4.473   1.613   6.173 -0.2762 -0.3315 -0.1931
   61MOL   C24719567   4.468   1.370   6.222 -0.3532  0.4807  0.6896
   61MOL   H24819568   4.473   1.381   5.738  0.1191 -1.2467  0.9616
   61MOL   H24919569   4.593   1.385   5.862 -0.4126 -0.9447 -0.4464
   61MOL   H25019570   4.445   1.627   5.896 -1.3510  0.2051 -0.8187
   61MOL   H25119571   4.596   1.463   6.068  0.1329  1.2055 -0.1837
   61MOL   H25219572   4.511   1.684   6.099  0.1231 -1.4766 -1.0991
   61MOL   H25319573   4.367   1.629   6.191  0.0324 -0.0863  1.5148
   61MOL   H25419574   4.517   1.634   6.271 -2.5804  0.6622  0.6548
   61MOL   H25519575   4.520   1.395   6.314 -0.1213  0.4544  0.5669
   61MOL   H25619576   4.361   1.359   6.237 -0.0491 -0.3400  2.4951
   61MOL   H25719577   4.499   1.272   6.186 -1.9256  0.5752 -0.9810
   61MOL   C25819578   4.288   1.512   5.811  0.9216 -0.8275  0.2218
   61MOL   C25919579   4.172   1.600   5.870  0.0256  0.5447 -0.4776
   61MOL   O26019580   4.207   1.741   5.883  0.2323  0.3709 -0.0117
   61MOL   C26119581   4.216   1.823   5.767 -0.3234 -0.4069  0.5530
   61MOL   C26219582   4.071   1.862   5.729 -0.2385  0.4066 -0.1475
   61MOL   C26319583   4.303   1.953   5.786 -0.0580  0.3584  0.2938
   61MOL   H26419584   4.306   1.552   5.711 -3.5017 -1.9321 -1.0995
   61MOL   H26519585   4.252   1.410   5.797 -1.0870  0.0711 -1.3905
   61MOL   H26619586   4.098   1.585   5.791  0.6720 -0.9181 -0.8299
   61MOL   H26719587   4.264   1.765   5.688 -1.0733 -0.1051 -0.1300
   61MOL   H26819588   4.059   1.949   5.664  0.0135  0.9119  0.4809
   61MOL   H26919589   4.027   1.882   5.826 -1.2291  0.7282 -0.6617
   61MOL   H27019590   4.032   1.775   5.676 -0.9456  1.4350 -1.3382
   61MOL   H27119591   4.253   2.036   5.835  1.7148  0.4683  1.9448
   61MOL   H27219592   4.405   1.942   5.822  0.2999 -0.8799 -1.0649
   61MOL   H27319593   4.323   1.990   5.685  2.3055  0.8735  0.9205
   61MOL   C27419594   4.121   1.554   6.001  0.3021 -0.7275 -0.3285
   61MOL   C27519595   3.968   1.575   6.026 -0.3237 -0.5067 -0.1275
   61MOL   O27619596   3.887   1.490   5.947  0.4427 -0.0069 -0.1250
   61MOL   C27719597   3.804   1.555   5.854 -0.5017 -0.5607 -0.6044
   61MOL   C27819598   3.694   1.626   5.936  0.4918 -0.7784 -0.2787
   61MOL   C27919599   3.744   1.449   5.761 -0.5496 -0.0896 -0.5904
   61MOL   H28019600   4.142   1.447   6.014 -1.5722 -1.2074 -1.1713
   61MOL   H28119601   4.192   1.601   6.069 -0.1838 -1.1884  0.5177
   61MOL   H28219602   3.943   1.679   6.003  1.5696  0.4255  1.7767
   61MOL   H28319603   3.857   1.630   5.796 -2.0161  0.3767 -0.8078
   61MOL   H28419604   3.724   1.715   5.992  1.7447  0.2869 -2.5853
   61MOL   H28519605   3.625   1.674   5.866  0.0389  0.7377  1.1843
   61MOL   H28619606   3.632   1.552   5.985 -1.4085  0.7981 -0.2234
   61MOL   H28719607   3.696   1.363   5.806 -0.8993  0.2031 -0.3983
   61MOL   H28819608   3.818   1.404   5.695 -0.4710 -1.9550  0.7585
   61MOL   H28919609   3.664   1.484   5.695 -0.5767  2.4888  0.7290
   61MOL   C29019610   3.930   1.553   6.169  0.0339  0.2505 -0.1218
   61MOL   C29119611   3.978   1.668   6.260  0.0895 -0.0908 -0.4528
   61MOL   O29219612   3.872   1.712   6.343 -0.1456 -0.0964  0.4062
   61MOL   C29319613   3.794   1.811   6.290 -0.2575  0.2809 -0.3339
   61MOL   C29419614   3.814   1.939   6.378 -0.2881  0.1037  0.0297
   61MOL   C29519615   3.646   1.767   6.298  0.9239 -0.6227  0.1794
   61MOL   H29619616   3.979   1.458   6.192 -0.7699  0.1412  1.2413
   61MOL   H29719617   3.823   1.547   6.190 -0.2348  1.0677 -1.2545
   61MOL   H29819618   4.019   1.749   6.200  0.3793 -0.1238 -0.2960
   61MOL   H29919619   3.824   1.827   6.186 -0.4353 -0.2492 -0.4684
   61MOL   H30019620   3.768   2.025   6.328  0.5237 -0.5163 -1.8481
   61MOL   H30119621   3.760   1.931   6.472 -0.1609 -0.3563  0.0653
   61MOL   H30219622   3.922   1.950   6.389 -0.5876  1.0182  2.3310
   61MOL   H30319623   3.637   1.664   6.261 -0.5771 -0.3139 -0.3312
   61MOL   H30419624   3.602   1.778   6.397 -1.6008  0.0063 -0.9701
   61MOL   H30519625   3.585   1.823   6.227  2.9862  1.0845 -0.2818
   61MOL   C30619626   4.085   1.631   6.353 -0.8656 -0.5657  0.4507
   61MOL   C30719627   4.163   1.753   6.406 -0.4892  0.3807  0.4950
   61MOL   O30819628   4.261   1.726   6.509 -0.4787  0.1801  0.1314
   61MOL   C30919629   4.328   1.839   6.557  1.2515  0.6298 -0.1417
   61MOL   C31019630   4.231   1.918   6.652  1.8122 -0.2305  0.8335
   61MOL   C31119631   4.439   1.778   6.639 -0.1078 -0.6544  0.7359
   61MOL   H31219632   4.160   1.577   6.296  1.2757  2.3439  0.3841
   61MOL   H31319633   4.056   1.561   6.432  0.8995 -0.7436  0.9763
   61MOL   H31419634   4.219   1.794   6.322  0.2290  1.1449  1.3403
   61MOL   H31519635   4.367   1.898   6.474  2.1329 -0.7306 -0.7091
   61MOL   H31619636   4.201   1.862   6.741 -2.1765  0.7390  0.1803
   61MOL   H31719637   4.145   1.963   6.602  1.9622 -0.5931  0.2500
   61MOL   H31819638   4.276   2.012   6.685 -0.0069  0.8293  0.3626
   61MOL   H31919639   4.470   1.849   6.716 -0.5745 -1.1889  1.4311
   61MOL   H32019640   4.522   1.745   6.577  0.3166 -1.3183  1.6434
   61MOL   H32119641   4.408   1.696   6.705 -0.1212 -1.4337 -0.2233
   61MOL   H32219642   4.091   1.829   6.436 -1.2487  0.4783 -1.5031
   62MOL     C119643   5.441   3.834   4.411  0.3046 -0.0121 -0.9216
   62MOL     C219644   5.428   3.855   4.566  0.1049  0.4799 -0.4685
   62MOL     O319645   5.376   3.980   4.582 -0.0049  0.5160  0.1969
   62MOL     C419646   5.433   4.051   4.683 -0.0700 -0.1550 -0.1977
   62MOL     C519647   5.327   4.159   4.708  0.5372 -0.2430 -0.2322
   62MOL     C619648   5.565   4.115   4.642 -0.6761  0.2771 -0.2741
   62MOL     H719649   5.348   3.832   4.355  0.8461 -0.3970 -1.8218
   62MOL     H819650   5.495   3.919   4.370 -0.5317  2.7366  3.3080
   62MOL     H919651   5.526   3.835   4.607  0.1740 -2.2302 -1.8872
   62MOL    H1019652   5.440   3.991   4.774  0.2644  1.6135  0.9674
   62MOL    H1119653   5.363   4.213   4.795 -4.8035 -0.2016  2.1598
   62MOL    H1219654   5.332   4.233   4.629 -1.6099 -1.7509 -1.8345
   62MOL    H1319655   5.224   4.128   4.722 -0.2464  0.6211 -3.6381
   62MOL    H1419656   5.597   4.180   4.723 -3.8223  1.0697  0.3939
   62MOL    H1519657   5.646   4.043   4.632  1.2800  2.1689  1.5126
   62MOL    H1619658   5.565   4.181   4.555  0.3703 -1.8965 -1.9737
   62MOL    H1719659   5.491   3.740   4.389 -1.3364 -1.2300  0.4192
   62MOL    C1819660   5.336   3.751   4.634 -0.2961  0.1354 -0.3760
   62MOL    C1919661   5.351   3.716   4.786  0.6684 -0.6381 -0.5037
   62MOL    O2019662   5.464   3.638   4.780 -0.0744 -0.0834  0.1067
   62MOL    C2119663   5.550   3.640   4.888  0.7188 -0.0285  0.9214
   62MOL    C2219664   5.636   3.761   4.891  0.1043 -0.2117 -0.0430
   62MOL    C2319665   5.643   3.523   4.857 -0.0353  0.0293 -0.7609
   62MOL    H2419666   5.233   3.783   4.619 -0.5327 -0.3046  0.2765
   62MOL    H2519667   5.342   3.654   4.584 -0.3749 -0.3917  0.6108
   62MOL    H2619668   5.364   3.810   4.840 -0.5704 -0.4532 -0.5156
   62MOL    H2719669   5.493   3.626   4.979 -0.3573  0.5685  0.3445
   62MOL    H2819670   5.663   3.786   4.788  1.1561  1.1290  0.5358
   62MOL    H2919671   5.592   3.851   4.934  0.1465 -0.0073 -0.4224
   62MOL    H3019672   5.720   3.741   4.957 -2.1357  0.2156  3.0938
   62MOL    H3119673   5.727   3.549   4.792  1.8883 -0.2120  1.5794
   62MOL    H3219674   5.588   3.450   4.797  0.1596 -0.0641 -0.8251
   62MOL    H3319675   5.691   3.485   4.947 -0.9160  0.4567 -0.1056
   62MOL    C3419676   5.225   3.643   4.841 -0.5483  0.5139  0.2452
   62MOL    C3519677   5.201   3.629   4.992 -0.2785  0.0779  0.9391
   62MOL    O3619678   5.165   3.756   5.041 -0.2472 -0.3943 -0.0890
   62MOL    C3719679   5.244   3.813   5.147  0.8225  0.0619  0.3539
   62MOL    C3819680   5.235   3.968   5.116 -0.9213 -0.6763  0.8040
   62MOL    C3919681   5.178   3.778   5.290 -0.2370 -0.2407  0.0148
   62MOL    H4019682   5.249   3.551   4.788  1.5729  1.8157 -1.1279
   62MOL    H4119683   5.140   3.670   4.778 -0.5148  0.6880  0.2737
   62MOL    H4219684   5.297   3.602   5.037 -0.9543 -0.3434  2.1631
   62MOL    H4319685   5.349   3.783   5.138  1.2031  1.0499  1.3624
   62MOL    H4419686   5.133   4.001   5.136 -0.1094  2.6489 -0.2491
   62MOL    H4519687   5.243   3.984   5.009  0.7502 -2.1353  0.6846
   62MOL    H4619688   5.319   4.017   5.166 -0.7221  1.3907 -1.4917
   62MOL    H4719689   5.244   3.830   5.360 -0.5168 -0.4614  0.4439
   62MOL    H4819690   5.071   3.793   5.301 -0.4460 -0.2320 -1.7897
   62MOL    H4919691   5.195   3.672   5.303  1.6812  0.3806  2.9953
   62MOL    C5019692   5.087   3.527   5.026 -0.6169 -0.0546  0.3092
   62MOL    C5119693   5.090   3.384   4.970  0.1679 -0.3138  0.3864
   62MOL    O5219694   4.999   3.320   5.054  1.0723  0.4799 -0.3306
   62MOL    C5319695   4.896   3.237   5.003 -0.7292 -0.6689 -0.4198
   62MOL    C5419696   4.777   3.280   5.085 -0.7345 -0.5060 -0.2237
   62MOL    C5519697   4.930   3.086   5.022  0.3059  0.3927  0.4727
   62MOL    H5619698   5.092   3.528   5.135 -1.5639 -1.6380  0.3849
   62MOL    H5719699   4.992   3.570   4.995 -0.4188  0.0691 -0.1355
   62MOL    H5819700   5.065   3.380   4.864  0.3150  2.2624  0.2315
   62MOL    H5919701   4.867   3.264   4.901 -1.7666 -0.9781 -0.2175
   62MOL    H6019702   4.788   3.270   5.193  1.5608 -0.6416 -0.4430
   62MOL    H6119703   4.696   3.215   5.051 -0.8453 -0.7935  0.5757
   62MOL    H6219704   4.748   3.383   5.062 -0.5309 -0.3692  0.1387
   62MOL    H6319705   5.000   3.056   4.944 -0.0908  2.3966 -0.6832
   62MOL    H6419706   4.843   3.025   4.999  1.0389 -0.4842 -0.0018
   62MOL    H6519707   4.973   3.067   5.120  1.6964 -1.6669 -0.5106
   62MOL    C6619708   5.217   3.311   4.998 -0.5027  0.7293  0.3589
   62MOL    C6719709   5.250   3.174   4.932 -0.3447  0.5862 -0.1948
   62MOL    O6819710   5.386   3.155   4.954  0.0525 -0.9409  0.3822
   62MOL    C6919711   5.429   3.110   5.081 -0.1106 -1.0814 -0.3035
   62MOL    C7019712   5.501   2.983   5.055  0.7772 -0.1078 -0.4038
   62MOL    C7119713   5.519   3.215   5.151 -0.3114 -0.0746 -0.0368
   62MOL    H7219714   5.292   3.387   4.977  0.1314 -0.4950 -1.9627
   62MOL    H7319715   5.224   3.289   5.105  1.3224 -1.5097 -0.1640
   62MOL    H7419716   5.190   3.097   4.979 -0.1670  0.5892  0.0398
   62MOL    H7519717   5.337   3.088   5.135  0.4250 -1.1680  0.5728
   62MOL    H7619718   5.444   2.908   5.000  0.1844 -0.8706  1.2258
   62MOL    H7719719   5.585   3.007   4.989  1.0960 -0.7738 -0.2485
   62MOL    H7819720   5.535   2.931   5.145  0.0773 -0.1933 -0.1873
   62MOL    H7919721   5.616   3.238   5.108  0.3778  0.3960  1.7059
   62MOL    H8019722   5.551   3.192   5.253  1.1015 -2.3530 -0.9588
   62MOL    H8119723   5.468   3.310   5.167  0.2942  0.3149 -0.4100
   62MOL    C8219724   5.230   3.170   4.780  0.1271 -0.2841 -0.4630
   62MOL    C8319725   5.265   3.045   4.687  0.1378 -0.4863 -0.0586
   62MOL    O8419726   5.159   2.954   4.693 -0.3069 -0.5662 -0.3995
   62MOL    C8519727   5.187   2.828   4.751  0.0141  0.5269  0.2239
   62MOL    C8619728   5.271   2.738   4.654 -0.3645 -0.5159 -0.6110
   62MOL    C8719729   5.056   2.755   4.801  0.3006 -0.2123  0.5047
   62MOL    H8819730   5.126   3.193   4.757  0.1146  0.7022  0.5605
   62MOL    H8919731   5.291   3.252   4.742 -0.8755  0.7779  0.2113
   62MOL    H9019732   5.359   2.998   4.717  1.3002  1.1546 -1.0140
   62MOL    H9119733   5.249   2.844   4.839 -1.1393  0.9682  0.9585
   62MOL    H9219734   5.220   2.707   4.563 -0.7635  1.7993 -1.2008
   62MOL    H9319735   5.369   2.779   4.632 -1.9999  1.7582 -4.0718
   62MOL    H9419736   5.293   2.638   4.693  0.5391  0.4466  1.3879
   62MOL    H9519737   5.005   2.837   4.851 -2.8801 -0.7787 -1.6985
   62MOL    H9619738   4.988   2.718   4.725 -1.1501 -1.7658  2.5269
   62MOL    H9719739   5.076   2.667   4.862 -0.9201  0.3258  1.7109
   62MOL    C9819740   5.281   3.071   4.535  0.2038  0.3197 -0.3038
   62MOL    C9919741   5.411   3.148   4.486  0.5434  0.0845  0.4427
   62MOL   O10019742   5.403   3.171   4.343  0.0924 -0.1152  0.2357
   62MOL   C10119743   5.351   3.300   4.304  0.1488  0.3560 -0.0790
   62MOL   C10219744   5.198   3.284   4.260 -0.1244 -0.6922  0.1567
   62MOL   C10319745   5.440   3.349   4.188 -0.4252 -0.2945  0.1495
   62MOL   H10419746   5.266   2.978   4.481 -0.3253  1.3892 -2.0482
   62MOL   H10519747   5.195   3.136   4.519  0.3571  0.8981  1.1380
   62MOL   H10619748   5.418   3.242   4.541  4.6219  1.2449 -1.8718
   62MOL   H10719749   5.356   3.376   4.382  2.3024 -0.1021  0.2461
   62MOL   H10819750   5.124   3.275   4.339 -0.6037 -0.0111 -0.2125
   62MOL   H10919751   5.179   3.195   4.200 -2.0881  1.0766 -1.9201
   62MOL   H11019752   5.158   3.360   4.193 -1.6066 -0.4813  1.2452
   62MOL   H11119753   5.542   3.361   4.222 -0.1727 -0.3883 -0.5612
   62MOL   H11219754   5.410   3.450   4.158  1.6364  1.0758  2.4760
   62MOL   H11319755   5.446   3.279   4.104 -0.0546 -0.9602  0.7283
   62MOL   C11419756   5.542   3.069   4.513  0.3213  0.1441  0.5005
   62MOL   C11519757   5.670   3.149   4.483  0.1939 -0.0847  0.2874
   62MOL   O11619758   5.781   3.119   4.568 -0.5097 -0.7762  0.7165
   62MOL   C11719759   5.791   3.201   4.683 -0.2315 -0.1357  0.6657
   62MOL   C11819760   5.947   3.201   4.704  0.0571  0.2297 -0.2314
   62MOL   C11919761   5.719   3.150   4.805 -0.3757 -0.1451  0.0860
   62MOL   H12019762   5.540   2.983   4.446 -0.8685  1.0090 -0.6140
   62MOL   H12119763   5.554   3.036   4.616 -0.5265 -1.9011 -0.0228
   62MOL   H12219764   5.640   3.254   4.476  0.8987 -0.0353 -2.3404
   62MOL   H12319765   5.768   3.307   4.672 -0.3933 -0.0731  1.6223
   62MOL   H12419766   6.002   3.229   4.614 -1.2257 -2.5138 -1.9291
   62MOL   H12519767   5.972   3.096   4.721 -0.2201  0.2213  0.1100
   62MOL   H12619768   5.988   3.259   4.787  0.5949 -2.0382  1.1117
   62MOL   H12719769   5.615   3.170   4.778 -0.6467  0.2164  1.3501
   62MOL   H12819770   5.741   3.206   4.895 -0.8314  0.3917 -0.1343
   62MOL   H12919771   5.745   3.048   4.834  0.5645  0.3130  0.8633
   62MOL   C13019772   5.724   3.133   4.346 -0.6031  0.0200 -0.2719
   62MOL   C13119773   5.823   3.243   4.303  0.5239 -0.1443  0.1354
   62MOL   O13219774   5.758   3.374   4.295  0.6628 -0.6078  0.4509
   62MOL   C13319775   5.837   3.492   4.318 -0.2574  0.0875 -0.0046
   62MOL   C13419776   5.783   3.598   4.228 -0.6593 -0.7601 -0.6339
   62MOL   C13519777   5.853   3.528   4.461 -0.0689  0.4375 -0.6397
   62MOL   H13619778   5.653   3.122   4.263 -0.6858  1.4450 -0.4114
   62MOL   H13719779   5.782   3.041   4.345  1.0107  0.9723  2.3590
   62MOL   H13819780   5.892   3.255   4.386  0.4791 -1.3313  0.3507
   62MOL   H13919781   5.937   3.470   4.279 -0.9296 -3.4943  0.0598
   62MOL   H14019782   5.847   3.686   4.217 -1.4432 -0.4152 -2.5479
   62MOL   H14119783   5.679   3.623   4.249 -0.7309 -1.0611 -0.6279
   62MOL   H14219784   5.795   3.570   4.123  2.7053  1.0297 -0.8205
   62MOL   H14319785   5.752   3.546   4.499  0.7593  0.8620  1.4444
   62MOL   H14419786   5.899   3.457   4.530  1.5793  1.1796 -0.9405
   62MOL   H14519787   5.912   3.620   4.462  0.9301 -0.1921 -0.8159
   62MOL   C14619788   5.892   3.206   4.163 -0.5079 -0.5985  0.0818
   62MOL   C14719789   6.010   3.097   4.172  0.7922 -0.6274 -0.2884
   62MOL   O14819790   6.047   3.042   4.042  0.2714  0.5054 -0.6178
   62MOL   C14919791   6.015   2.902   4.029 -0.3626 -0.0729 -0.1282
   62MOL   C15019792   6.079   2.866   3.893 -0.3604  0.2792  0.5269
   62MOL   C15119793   5.858   2.873   4.034  0.3849  0.6173 -0.3739
   62MOL   H15219794   5.938   3.299   4.131 -1.3295 -0.2637 -0.1388
   62MOL   H15319795   5.815   3.189   4.087  0.3253 -2.7139 -0.3331
   62MOL   H15419796   5.967   3.017   4.232  0.1249 -1.1809 -1.4905
   62MOL   H15519797   6.063   2.853   4.114  1.1735 -0.5275 -1.2424
   62MOL   H15619798   6.186   2.887   3.895 -0.3851  0.8941 -1.9977
   62MOL   H15719799   6.033   2.928   3.815  0.4714 -0.4459 -0.5549
   62MOL   H15819800   6.068   2.761   3.867  0.2086  0.1984  0.6288
   62MOL   H15919801   5.802   2.934   3.963 -0.9420  0.4042  0.4621
   62MOL   H16019802   5.823   2.894   4.135  1.0902  1.8335 -0.3766
   62MOL   H16119803   5.832   2.771   4.004  1.2492  0.8397 -1.9316
   62MOL   C16219804   6.141   3.146   4.230  0.3839 -0.1602  0.4138
   62MOL   C16319805   6.265   3.047   4.246  0.1946 -0.2176 -0.1321
   62MOL   O16419806   6.226   2.925   4.307  0.1193  0.2444 -0.4149
   62MOL   C16519807   6.180   2.938   4.447  0.1895 -0.1122 -0.0314
   62MOL   C16619808   6.293   2.903   4.539 -0.3996  0.1224  0.0061
   62MOL   C16719809   6.068   2.835   4.455 -0.0335 -0.1607 -0.2302
   62MOL   H16819810   6.163   3.231   4.165 -0.6951 -1.3022 -1.4998
   62MOL   H16919811   6.120   3.203   4.321 -0.5702 -0.5845  0.4653
   62MOL   H17019812   6.342   3.093   4.308  0.5202 -1.3622  0.3251
   62MOL   H17119813   6.143   3.036   4.478  2.8241  2.0565 -3.3716
   62MOL   H17219814   6.268   2.912   4.644 -0.2879 -0.1304  0.0534
   62MOL   H17319815   6.372   2.974   4.516 -1.0967  0.5910 -1.0156
   62MOL   H17419816   6.336   2.806   4.514  0.6892  0.5533  0.1861
   62MOL   H17519817   5.977   2.866   4.404 -0.2884 -0.4040  0.0781
   62MOL   H17619818   6.039   2.824   4.560  1.9105 -1.9424  0.1696
   62MOL   H17719819   6.095   2.735   4.423 -3.1292 -0.8693 -0.7236
   62MOL   C17819820   6.355   3.033   4.113  0.4625 -0.2789 -0.3133
   62MOL   C17919821   6.504   3.043   4.142  0.2570  0.9716 -0.0118
   62MOL   O18019822   6.546   3.164   4.207 -0.5774 -0.0774  0.1654
   62MOL   C18119823   6.594   3.275   4.132 -0.7995 -0.1125  0.0550
   62MOL   C18219824   6.700   3.351   4.216 -0.0727 -0.4757 -0.0508
   62MOL   C18319825   6.467   3.360   4.091 -0.1257 -0.3671  0.4744
   62MOL   H18419826   6.336   3.109   4.038 -1.4556 -1.3780 -0.9761
   62MOL   H18519827   6.328   2.944   4.056  1.5315 -0.8321  0.0312
   62MOL   H18619828   6.551   3.034   4.044  3.3843 -2.3534  1.6550
   62MOL   H18719829   6.634   3.245   4.035 -0.8602 -0.5605  0.1667
   62MOL   H18819830   6.788   3.287   4.218  0.6789  0.4585 -1.8297
   62MOL   H18919831   6.659   3.379   4.313  1.2985 -1.5882  0.8723
   62MOL   H19019832   6.733   3.445   4.171  0.3474 -0.6499 -0.1071
   62MOL   H19119833   6.390   3.313   4.030 -0.1183 -0.2857  0.4030
   62MOL   H19219834   6.495   3.448   4.034  1.1740 -2.3173 -2.0023
   62MOL   H19319835   6.416   3.392   4.182  2.1308  0.6164  1.4258
   62MOL   C19419836   6.551   2.924   4.242  0.0831 -0.2214 -0.1746
   62MOL   C19519837   6.704   2.899   4.241 -0.6036  0.9933  0.3411
   62MOL   O19619838   6.738   2.842   4.118  0.0394 -0.2387  0.4709
   62MOL   C19719839   6.872   2.886   4.083  0.0599  0.7954 -0.5832
   62MOL   C19819840   6.920   2.774   3.993 -0.8129 -0.3044 -0.3346
   62MOL   C19919841   6.860   3.025   4.007  1.0348 -0.3981 -0.4774
   62MOL   H20019842   6.523   2.953   4.343  0.1091  1.1059 -0.5344
   62MOL   H20119843   6.505   2.829   4.218  0.4294 -0.9218  1.8357
   62MOL   H20219844   6.753   2.994   4.258 -1.1825  1.3263  0.1484
   62MOL   H20319845   6.931   2.890   4.174  0.1323  2.6995 -0.6857
   62MOL   H20419846   6.899   2.674   4.033  2.4006 -1.4241 -1.2458
   62MOL   H20519847   6.870   2.768   3.896 -1.4002 -1.5416  0.0288
   62MOL   H20619848   7.025   2.789   3.967 -0.9990  1.0367 -0.3040
   62MOL   H20719849   6.790   3.043   3.925  0.9610 -0.7849 -0.4988
   62MOL   H20819850   6.840   3.106   4.077  3.4794  0.4076 -0.6792
   62MOL   H20919851   6.960   3.027   3.965  0.7075  0.5643 -1.2407
   62MOL   C21019852   6.743   2.807   4.354  0.3173  0.8330 -0.9600
   62MOL   C21119853   6.749   2.867   4.495 -0.1548 -0.0566  0.0391
   62MOL   O21219854   6.782   2.759   4.590 -0.0460  0.1852 -0.5199
   62MOL   C21319855   6.682   2.724   4.682  0.4621  0.2978  0.2226
   62MOL   C21419856   6.596   2.601   4.628  0.1971  0.4655 -1.0259
   62MOL   C21519857   6.754   2.678   4.812  0.4105 -0.4298  0.2370
   62MOL   H21619858   6.835   2.750   4.352  1.3844  2.5370 -1.6501
   62MOL   H21719859   6.668   2.728   4.359 -1.0924  2.1133 -1.2033
   62MOL   H21819860   6.659   2.924   4.519  0.4843  0.5994  0.8947
   62MOL   H21919861   6.606   2.800   4.704 -1.2277 -0.6011 -2.2436
   62MOL   H22019862   6.529   2.558   4.702  1.1281  0.8308  0.0319
   62MOL   H22119863   6.662   2.522   4.592  1.2780  2.4088 -3.4246
   62MOL   H22219864   6.519   2.623   4.553 -1.5360  1.3666  0.9630
   62MOL   H22319865   6.834   2.610   4.781 -1.1984 -1.3725 -2.0104
   62MOL   H22419866   6.684   2.634   4.883  0.7688  1.3111  1.6862
   62MOL   H22519867   6.801   2.767   4.852  2.0029 -1.8252  1.5897
   62MOL   C22619868   6.866   2.962   4.509 -0.3941  0.2287 -0.2025
   62MOL   C22719869   6.875   3.048   4.640  0.7135  0.3420  0.5376
   62MOL   O22819870   6.744   3.107   4.655 -0.6385 -0.1715  0.3992
   62MOL   C22919871   6.691   3.099   4.786 -0.0343 -0.6596 -0.0132
   62MOL   C23019872   6.538   3.131   4.787  0.4453 -0.3357  0.0089
   62MOL   C23119873   6.763   3.195   4.882  0.3510  0.3998 -0.4325
   62MOL   H23219874   6.860   3.032   4.425 -0.4884 -0.0611 -0.4389
   62MOL   H23319875   6.962   2.910   4.498 -0.4060 -0.0963  1.1824
   62MOL   H23419876   6.902   2.986   4.726  0.1640  0.0810  0.5221
   62MOL   H23519877   6.707   2.995   4.815 -1.9487 -0.3175  2.4247
   62MOL   H23619878   6.496   3.093   4.880 -1.1315  0.3976 -0.3947
   62MOL   H23719879   6.511   3.236   4.776  0.0360 -0.4615 -0.2182
   62MOL   H23819880   6.491   3.079   4.704  2.7212 -0.4657 -1.2515
   62MOL   H23919881   6.707   3.210   4.975  0.5072  1.6418 -0.5306
   62MOL   H24019882   6.776   3.289   4.828  2.7380 -0.0864 -0.7610
   62MOL   H24119883   6.865   3.167   4.908 -0.0315  0.0641  0.7471
   62MOL   C24219884   6.975   3.165   4.624 -0.5399  0.7113 -0.0197
   62MOL   C24319885   7.121   3.120   4.614  0.0289 -0.3536 -0.4729
   62MOL   O24419886   7.145   3.017   4.706  0.1707  0.4927  0.0845
   62MOL   C24519887   7.260   2.940   4.675 -0.4892  0.3894  0.2284
   62MOL   C24619888   7.324   2.888   4.803  0.9633 -0.0580  0.0437
   62MOL   C24719889   7.216   2.829   4.593  0.2112 -0.0803  0.1561
   62MOL   H24819890   6.945   3.212   4.530 -0.5774  2.2825  0.7609
   62MOL   H24919891   6.968   3.244   4.698 -2.0604 -0.8747  1.5774
   62MOL   H25019892   7.135   3.094   4.509 -0.5048 -3.1557  0.1335
   62MOL   H25119893   7.339   2.993   4.622  0.2096 -0.8780 -0.0186
   62MOL   H25219894   7.405   2.825   4.769  1.8463  3.0222 -3.9690
   62MOL   H25319895   7.368   2.976   4.850  1.8587  0.3148 -1.4536
   62MOL   H25419896   7.254   2.842   4.873 -0.6548  1.8371 -0.2593
   62MOL   H25519897   7.303   2.768   4.568 -0.4937 -0.8082 -0.5564
   62MOL   H25619898   7.139   2.764   4.635  0.6923 -1.2974 -0.8153
   62MOL   H25719899   7.180   2.853   4.493  0.4125 -1.3349 -0.2225
   62MOL   C25819900   7.210   3.238   4.657 -0.7481  0.2219  0.1039
   62MOL   C25919901   7.186   3.370   4.581 -0.2059  0.1352  0.3943
   62MOL   O26019902   7.244   3.351   4.456 -0.5306 -0.3073  0.4445
   62MOL   C26119903   7.177   3.415   4.352 -0.1106  0.6200 -0.1864
   62MOL   C26219904   7.291   3.437   4.257 -0.1007  0.3065  0.7721
   62MOL   C26319905   7.065   3.329   4.294 -0.5201 -0.1682 -0.2721
   62MOL   H26419906   7.200   3.247   4.766  2.3102  1.0811  0.3871
   62MOL   H26519907   7.319   3.227   4.656 -0.5607  1.7374  0.9460
   62MOL   H26619908   7.082   3.392   4.560 -0.8050 -3.7080 -1.0618
   62MOL   H26719909   7.140   3.516   4.370  0.0135  0.9808 -1.8736
   62MOL   H26819910   7.263   3.479   4.161 -0.2079 -0.7370  0.3318
   62MOL   H26919911   7.344   3.342   4.246 -1.0185 -0.3244  1.6388
   62MOL   H27019912   7.367   3.498   4.305 -0.8027  0.2202  2.0379
   62MOL   H27119913   6.968   3.363   4.331 -0.1771 -0.8622  1.3174
   62MOL   H27219914   7.064   3.318   4.185  3.3269  1.6750 -0.5672
   62MOL   H27319915   7.069   3.223   4.321 -1.8389 -0.0822  0.2934
   62MOL   C27419916   7.242   3.500   4.644 -0.4857  0.2660  0.1014
   62MOL   C27519917   7.159   3.573   4.759 -0.1852  0.5507 -0.0409
   62MOL   O27619918   7.187   3.513   4.883 -0.1901  0.0178  0.3139
   62MOL   C27719919   7.100   3.544   4.995  0.1083 -0.1536  0.0265
   62MOL   C27819920   7.186   3.548   5.122  0.5134 -0.3394  0.3738
   62MOL   C27919921   6.997   3.437   5.004  0.5653  0.3716  0.1248
   62MOL   H28019922   7.336   3.473   4.692  0.0101  0.3834 -0.7780
   62MOL   H28119923   7.265   3.570   4.563  2.9424  0.5205  1.2317
   62MOL   H28219924   7.055   3.552   4.733 -0.1724 -1.0968  1.1782
   62MOL   H28319925   7.058   3.645   4.990  0.9990  0.1732 -1.3824
   62MOL   H28419926   7.266   3.621   5.113 -0.6205  1.0613  1.3774
   62MOL   H28519927   7.125   3.578   5.207  0.0572 -0.0038 -0.0747
   62MOL   H28619928   7.233   3.452   5.146 -0.4106 -0.7993  0.3848
   62MOL   H28719929   7.043   3.338   5.003 -2.2882 -0.9921  0.3869
   62MOL   H28819930   6.943   3.439   4.909  2.2525  0.9196 -0.8611
   62MOL   H28919931   6.915   3.460   5.072 -0.7581 -3.2095 -0.1494
   62MOL   C29019932   7.184   3.727   4.769 -0.7165 -0.4147 -0.6014
   62MOL   C29119933   7.114   3.815   4.660  0.4366 -0.0995  0.2024
   62MOL   O29219934   7.022   3.903   4.719 -0.4539  0.1915 -0.5276
   62MOL   C29319935   6.901   3.848   4.757  0.3995 -0.5805  0.4132
   62MOL   C29419936   6.808   3.856   4.632  0.0771 -0.7548 -1.1269
   62MOL   C29519937   6.837   3.929   4.877 -0.1017 -0.1558 -0.1691
   62MOL   H29619938   7.292   3.740   4.772 -0.8021  0.2438 -0.0617
   62MOL   H29719939   7.136   3.774   4.855 -2.9797  0.7118 -2.4001
   62MOL   H29819940   7.072   3.746   4.587 -0.2103  0.2567  0.2360
   62MOL   H29919941   6.909   3.744   4.790 -1.3172 -1.4266 -1.6946
   62MOL   H30019942   6.856   3.836   4.536  0.3473  0.3302 -1.2237
   62MOL   H30119943   6.732   3.779   4.647 -1.0169  0.5138 -0.0408
   62MOL   H30219944   6.769   3.956   4.615  1.6729  0.4670  2.0538
   62MOL   H30319945   6.914   3.942   4.953  1.3545  0.7805 -1.7727
   62MOL   H30419946   6.809   4.030   4.848 -1.7044 -0.5062  0.1060
   62MOL   H30519947   6.747   3.886   4.922 -0.7628  0.5081 -0.8372
   62MOL   C30619948   7.207   3.903   4.576 -0.0757  0.8162 -0.5159
   62MOL   C30719949   7.155   3.944   4.449 -0.0410  0.3435 -0.3360
   62MOL   O30819950   7.152   3.832   4.364  0.2545 -0.7727  0.1763
   62MOL   C30919951   7.106   3.867   4.233 -0.1193  0.2679  0.1915
   62MOL   C31019952   7.144   3.749   4.148 -0.3030  0.6654  0.3071
   62MOL   C31119953   6.953   3.887   4.236  0.2005 -0.0313 -0.0306
   62MOL   H31219954   7.300   3.854   4.546 -1.0975 -0.9707 -0.8666
   62MOL   H31319955   7.236   3.991   4.632  0.1601  0.2490  0.2666
   62MOL   H31419956   7.058   3.983   4.478  0.1378 -0.0448  0.7856
   62MOL   H31519957   7.168   3.953   4.206  0.8721  0.8778  4.0078
   62MOL   H31619958   7.247   3.713   4.159 -0.4713  0.8088  2.7159
   62MOL   H31719959   7.134   3.770   4.042 -1.9883  0.2123  0.3616
   62MOL   H31819960   7.075   3.668   4.171 -1.3000  1.5115  0.3098
   62MOL   H31919961   6.910   3.883   4.136 -1.9239 -1.2260  0.8906
   62MOL   H32019962   6.938   3.978   4.295 -0.1196  0.4424 -0.8345
   62MOL   H32119963   6.912   3.803   4.292 -0.9464 -1.1727 -2.5258
   62MOL   H32219964   7.222   4.017   4.404  1.6794 -3.1108 -3.6587
   63MOL     C119965   0.080   6.309   5.697 -0.4820 -0.8561  0.6614
   63MOL     C219966   0.137   6.208   5.793  0.1860  1.1436  0.2467
   63MOL     O319967   0.023   6.135   5.852 -0.0624 -0.2458 -0.5059
   63MOL     C419968   7.768   6.204   5.950  0.7588 -0.1991  0.4373
   63MOL     C519969   7.781   6.133   6.082 -0.7782 -0.5198  0.0825
   63MOL     C619970   7.621   6.227   5.909 -0.3807  0.2357 -0.6069
   63MOL     H719971   0.167   6.347   5.644  1.2686 -1.1262  3.2493
   63MOL     H819972   0.018   6.247   5.632 -1.3290  2.3735 -1.7612
   63MOL     H919973   0.189   6.262   5.872 -1.6525  0.9014  1.6657
   63MOL    H1019974   7.803   6.306   5.967  1.6314 -0.5796  0.9370
   63MOL    H1119975   7.748   6.030   6.074  0.8200 -1.0268 -0.1280
   63MOL    H1219976   0.064   6.132   6.115 -1.4285  1.5477  2.3610
   63MOL    H1319977   7.712   6.193   6.142 -0.9600 -1.2169  0.5819
   63MOL    H1419978   7.600   6.293   5.825 -2.1416 -1.3942 -1.4791
   63MOL    H1519979   7.582   6.134   5.867 -0.4661  0.8115 -1.8276
   63MOL    H1619980   7.561   6.261   5.993 -0.8695 -3.1019  0.4824
   63MOL    H1719981   0.038   6.388   5.759 -0.3425 -1.4644  1.5377
   63MOL    C1819982   0.240   6.115   5.722  0.2672 -0.0612  0.0500
   63MOL    C1919983   0.324   6.020   5.804 -0.0579  0.5644  0.0881
   63MOL    O2019984   0.409   5.974   5.696 -0.3404 -0.1647  0.0224
   63MOL    C2119985   0.521   6.040   5.640 -0.3342  0.8533  0.0669
   63MOL    C2219986   0.539   5.976   5.499  0.3206  0.3188 -1.0655
   63MOL    C2319987   0.646   6.013   5.730  0.5201  0.0989  0.9581
   63MOL    H2419988   0.189   6.064   5.639  1.2412  0.2894 -0.7730
   63MOL    H2519989   0.318   6.174   5.675  0.7221 -1.7396 -1.4045
   63MOL    H2619990   0.388   6.066   5.879 -0.6873  0.0081  0.9800
   63MOL    H2719991   0.501   6.147   5.632 -1.7131  0.8083  2.5641
   63MOL    H2819992   0.446   6.003   5.449 -1.9712 -2.2563  1.6575
   63MOL    H2919993   0.625   6.015   5.444  0.5423  0.2973 -0.7323
   63MOL    H3019994   0.540   5.868   5.508  0.7780  0.5026  1.5593
   63MOL    H3119995   0.740   6.038   5.682  1.0966 -0.1383  1.9616
   63MOL    H3219996   0.660   5.909   5.760  2.1870 -0.1770 -0.7160
   63MOL    H3319997   0.635   6.078   5.817  2.0164  0.8871  0.5699
   63MOL    C3419998   0.238   5.901   5.859  0.5642  0.1655  1.1423
   63MOL    C3519999   0.323   5.792   5.918 -0.1865  0.5066  0.2411
   63MOL    O3620000   0.386   5.844   6.038 -0.3321  0.1203  0.6473
   63MOL    C3720001   0.309   5.892   6.148  0.4237  0.3561 -0.0330
   63MOL    C3820002   0.350   5.811   6.273  0.3640  0.2309  0.0463
   63MOL    C3920003   0.330   6.039   6.175  0.7225 -0.1320 -0.8823
   63MOL    H4020004   0.197   5.865   5.765  0.8232 -0.2146  1.1739
   63MOL    H4120005   0.154   5.934   5.919 -0.4725 -0.1717 -0.1036
   63MOL    H4220006   0.404   5.777   5.846  0.3857 -0.8631  1.1487
   63MOL    H4320007   0.204   5.867   6.134  0.4792 -1.1901  2.0149
   63MOL    H4420008   0.281   5.844   6.350 -0.0777 -0.0231 -0.2395
   63MOL    H4520009   0.446   5.837   6.319 -0.7399  1.0835  1.9192
   63MOL    H4620010   0.335   5.703   6.274 -0.9114  0.4034  0.2062
   63MOL    H4720011   0.279   6.079   6.262  0.6895 -0.3842 -0.7865
   63MOL    H4820012   0.433   6.062   6.205  0.2226  0.8788  0.0908
   63MOL    H4920013   0.323   6.103   6.087 -0.7002  1.5774  0.4304
   63MOL    C5020014   0.265   5.654   5.946  0.0056 -0.1091 -0.4471
   63MOL    C5120015   0.241   5.573   5.819  0.1312 -0.6001  0.3271
   63MOL    O5220016   0.167   5.460   5.857  0.7713  0.3900 -0.3214
   63MOL    C5320017   0.068   5.432   5.768 -0.1433  0.6184  0.1574
   63MOL    C5420018   7.763   5.505   5.817  1.1678  1.0504 -0.1518
   63MOL    C5520019   0.048   5.282   5.766 -0.4670  0.2545  0.3179
   63MOL    H5620020   0.330   5.597   6.013 -1.0035 -0.5215  0.1969
   63MOL    H5720021   0.169   5.662   5.998 -1.9376 -1.9406 -3.6420
   63MOL    H5820022   0.190   5.643   5.752  1.9347 -1.1103 -1.6371
   63MOL    H5920023   0.090   5.457   5.664 -3.2575  1.2188 -0.4060
   63MOL    H6020024   7.726   5.465   5.911  2.4545 -2.5319 -1.0810
   63MOL    H6120025   7.684   5.490   5.743  0.9566 -1.0036  0.4544
   63MOL    H6220026   7.787   5.609   5.838 -2.4533  1.4623  2.4600
   63MOL    H6320027   0.036   5.229   5.860 -0.3893  1.3360  0.9507
   63MOL    H6420028   0.135   5.245   5.712 -1.8856 -3.0403  0.1899
   63MOL    H6520029   7.781   5.268   5.702  1.4748  0.8720 -2.5498
   63MOL    C6620030   0.374   5.522   5.742  0.0022  0.5171 -0.2581
   63MOL    C6720031   0.384   5.591   5.612 -0.4895 -0.1131  0.2836
   63MOL    O6820032   0.274   5.563   5.534  0.5330  0.2537 -0.5293
   63MOL    C6920033   0.243   5.649   5.422  0.0159 -0.2607  0.1006
   63MOL    C7020034   0.132   5.579   5.335  0.4018 -0.1632  0.6503
   63MOL    C7120035   0.195   5.790   5.482  0.0905  0.4482  0.5355
   63MOL    H7220036   0.461   5.539   5.805  0.1808  3.2122 -1.1824
   63MOL    H7320037   0.354   5.416   5.726 -2.1490  0.7600  0.5590
   63MOL    H7420038   0.394   5.699   5.623  1.8530 -0.5357  2.7579
   63MOL    H7520039   0.327   5.655   5.353 -0.4450  0.5799 -0.4022
   63MOL    H7620040   0.028   5.584   5.368 -0.1809 -0.7790 -0.9954
   63MOL    H7720041   0.132   5.626   5.236 -2.0687 -1.1766  0.1202
   63MOL    H7820042   0.156   5.473   5.326 -2.2295 -0.8916  1.5755
   63MOL    H7920043   0.141   5.780   5.576 -0.4446  0.3593  0.2156
   63MOL    H8020044   0.117   5.833   5.420 -0.1995  0.6611  1.0496
   63MOL    H8120045   0.282   5.855   5.492  2.0195 -2.1886  1.4946
   63MOL    C8220046   0.505   5.532   5.539 -0.3254 -0.3369  0.4854
   63MOL    C8320047   0.644   5.514   5.604 -0.2010 -0.0563 -0.4130
   63MOL    O8420048   0.728   5.458   5.500  0.0804  1.0699  0.1859
   63MOL    C8520049   0.783   5.334   5.545 -0.2155 -0.4834  0.2074
   63MOL    C8620050   0.894   5.311   5.438  0.0614 -0.1119  0.4233
   63MOL    C8720051   0.682   5.224   5.559 -0.2019 -0.1738 -0.5914
   63MOL    H8820052   0.479   5.432   5.503  0.7598 -0.4437 -0.0025
   63MOL    H8920053   0.516   5.587   5.446 -0.4552  1.4066  1.4886
   63MOL    H9020054   0.616   5.446   5.685  0.3299  1.1356  0.7809
   63MOL    H9120055   0.843   5.353   5.634  0.5844  1.0299 -0.6448
   63MOL    H9220056   0.862   5.239   5.363 -0.6741  1.1508 -0.5101
   63MOL    H9320057   0.915   5.405   5.387  1.3937 -2.1645 -3.0162
   63MOL    H9420058   0.985   5.280   5.489  0.9993  2.7444  0.5929
   63MOL    H9520059   0.645   5.199   5.459 -0.3216 -1.4682 -0.2437
   63MOL    H9620060   0.736   5.140   5.603 -0.0550 -0.2964 -1.0031
   63MOL    H9720061   0.593   5.253   5.615 -0.1662 -1.2726  0.0551
   63MOL    C9820062   0.711   5.639   5.669 -0.0075 -0.3044 -0.4804
   63MOL    C9920063   0.820   5.611   5.775  0.4338 -0.3099 -0.3670
   63MOL   O10020064   0.810   5.709   5.877  0.1250  0.4196 -0.4016
   63MOL   C10120065   0.715   5.692   5.982  0.0446 -0.5037  0.2552
   63MOL   C10220066   0.697   5.823   6.056  0.2527  0.6846  0.2765
   63MOL   C10320067   0.753   5.572   6.065  0.7701 -0.0810 -0.5341
   63MOL   H10420068   0.751   5.703   5.591  0.8837  0.9271  0.9432
   63MOL   H10520069   0.634   5.709   5.702  0.9301  0.7194 -0.4480
   63MOL   H10620070   0.807   5.507   5.805  3.1260 -0.2862  1.1187
   63MOL   H10720071   0.624   5.653   5.935 -1.2039  0.9189  1.4524
   63MOL   H10820072   0.646   5.900   5.998 -0.3389 -0.7773 -1.1861
   63MOL   H10920073   0.794   5.853   6.096  0.8695 -2.0549  0.9253
   63MOL   H11020074   0.628   5.804   6.138 -0.5274 -1.8454 -0.9244
   63MOL   H11120075   0.732   5.480   6.010 -0.3101  0.7960 -1.6117
   63MOL   H11220076   0.695   5.567   6.157 -2.0712 -0.1619 -2.2738
   63MOL   H11320077   0.855   5.576   6.103 -0.0787  0.8756  1.7449
   63MOL   C11420078   0.970   5.633   5.722  0.5018  0.1246 -0.0189
   63MOL   C11520079   1.082   5.555   5.799 -0.4311 -0.3590  0.4215
   63MOL   O11620080   1.078   5.414   5.760  0.1732  0.1468  0.0231
   63MOL   C11720081   1.144   5.319   5.851 -0.0644 -0.2313  0.3023
   63MOL   C11820082   1.231   5.220   5.768  0.0431 -0.0996  0.6332
   63MOL   C11920083   1.036   5.234   5.913  0.1023  0.2625 -0.2810
   63MOL   H12020084   0.989   5.741   5.721 -1.8221  0.5465 -2.8518
   63MOL   H12120085   0.987   5.612   5.617  2.0304  1.8320 -0.1540
   63MOL   H12220086   1.071   5.562   5.907 -1.9823  1.9934  0.1431
   63MOL   H12320087   1.187   5.364   5.940  1.0985  0.1127 -0.4280
   63MOL   H12420088   1.266   5.134   5.824 -0.8961 -1.6549 -1.1204
   63MOL   H12520089   1.327   5.261   5.736  0.5603 -0.9137  1.1208
   63MOL   H12620090   1.173   5.181   5.685  0.6189 -0.5639  0.4451
   63MOL   H12720091   0.969   5.304   5.963  0.2109  1.5601 -1.9084
   63MOL   H12820092   1.064   5.151   5.977 -0.4928 -1.9820 -2.8442
   63MOL   H12920093   0.974   5.202   5.829  0.9778  2.3951 -1.7794
   63MOL   C13020094   1.224   5.606   5.766 -0.1020 -0.3672 -0.4247
   63MOL   C13120095   1.280   5.709   5.870 -0.4404  0.1672  0.8284
   63MOL   O13220096   1.235   5.838   5.829  0.2207 -0.1094 -0.2329
   63MOL   C13320097   1.116   5.880   5.904 -0.3799 -0.1341  0.0957
   63MOL   C13420098   1.155   5.930   6.048 -0.7497 -0.0980  1.1269
   63MOL   C13520099   1.061   5.994   5.821 -0.2230  0.2638 -0.1669
   63MOL   H13620100   1.230   5.643   5.663 -2.3449 -0.6440 -0.6735
   63MOL   H13720101   1.292   5.521   5.763  0.4155 -0.0130  0.8231
   63MOL   H13820102   1.254   5.670   5.968 -3.8733 -1.6886 -0.7497
   63MOL   H13920103   1.045   5.798   5.915 -0.5259  0.5161  4.8893
   63MOL   H14020104   1.214   5.857   6.103 -0.0083 -1.6618 -1.6454
   63MOL   H14120105   1.062   5.943   6.104 -1.4073  0.3420 -0.0538
   63MOL   H14220106   1.219   6.018   6.054  0.4206 -0.7434 -1.1309
   63MOL   H14320107   0.981   6.044   5.876 -1.4735 -0.6822 -1.1052
   63MOL   H14420108   1.137   6.066   5.789 -1.5842  1.8319  0.0873
   63MOL   H14520109   1.016   5.966   5.726 -3.3816 -1.5443  1.7626
   63MOL   C14620110   1.436   5.715   5.862  0.4094 -0.6878 -0.1157
   63MOL   C14720111   1.518   5.586   5.895  0.1551 -0.5751  0.4561
   63MOL   O14820112   1.647   5.616   5.858  0.2639  0.1765  0.0600
   63MOL   C14920113   1.672   5.560   5.724  0.0555 -0.2249 -0.1430
   63MOL   C15020114   1.713   5.420   5.727 -0.0719 -0.3894 -0.5634
   63MOL   C15120115   1.785   5.641   5.651  0.3708 -0.2744 -0.1865
   63MOL   H15220116   1.467   5.804   5.917 -1.1522 -0.4863  0.4790
   63MOL   H15320117   1.457   5.733   5.757 -0.7732  1.4672 -0.0097
   63MOL   H15420118   1.486   5.493   5.848  0.6516 -0.8166  0.5924
   63MOL   H15520119   1.582   5.556   5.662  0.2973  1.3107 -0.6243
   63MOL   H15620120   1.800   5.402   5.790 -1.2511  0.5226  1.3705
   63MOL   H15720121   1.754   5.388   5.631  1.4403 -0.3364  0.0541
   63MOL   H15820122   1.633   5.356   5.764  0.9242 -0.6301  1.2180
   63MOL   H15920123   1.808   5.607   5.549  1.0003 -0.7559  0.1094
   63MOL   H16020124   1.869   5.636   5.720  0.1731  0.9045  0.1473
   63MOL   H16120125   1.762   5.747   5.647 -1.9015 -0.7573 -0.5958
   63MOL   C16220126   1.530   5.549   6.047  0.7777 -0.2797  0.5355
   63MOL   C16320127   1.577   5.398   6.065 -0.0896  0.4155 -0.1225
   63MOL   O16420128   1.606   5.388   6.211 -0.0225  0.5883  0.6539
   63MOL   C16520129   1.743   5.403   6.239 -0.5947  0.0785 -0.2014
   63MOL   C16620130   1.791   5.274   6.302 -0.3067 -0.0277  0.3259
   63MOL   C16720131   1.751   5.520   6.332 -0.4044 -0.4022 -0.7248
   63MOL   H16820132   1.597   5.623   6.091  0.0179  0.2467  0.8121
   63MOL   H16920133   1.435   5.579   6.091 -0.1669  0.1932 -1.7368
   63MOL   H17020134   1.667   5.380   6.006  0.3266 -0.0369  0.6425
   63MOL   H17120135   1.804   5.430   6.153 -0.4745  1.1546  0.2206
   63MOL   H17220136   1.899   5.268   6.313 -0.1291  0.4491 -1.1157
   63MOL   H17320137   1.757   5.193   6.236 -1.5402  0.4929  0.2977
   63MOL   H17420138   1.737   5.270   6.397 -1.1602  1.0485 -0.1010
   63MOL   H17520139   1.737   5.622   6.297 -0.9233  0.2398  1.2855
   63MOL   H17620140   1.852   5.523   6.371 -0.1874 -3.6897 -0.8746
   63MOL   H17720141   1.683   5.521   6.417 -0.3853  0.1050 -0.7178
   63MOL   C17820142   1.474   5.295   6.025  0.3295 -0.0588  0.0036
   63MOL   C17920143   1.518   5.148   6.046  0.5005 -0.0302  0.0385
   63MOL   O18020144   1.398   5.068   6.029  0.2439  0.7630  0.0189
   63MOL   C18120145   1.354   4.994   6.139  0.8455  0.5502  0.2485
   63MOL   C18220146   1.240   4.916   6.075 -0.6432 -0.4068 -0.4000
   63MOL   C18320147   1.301   5.074   6.257 -0.4027 -0.2168  0.2185
   63MOL   H18420148   1.433   5.302   5.924 -0.9287 -0.6489  0.4633
   63MOL   H18520149   1.397   5.316   6.099  1.3018  0.7562  0.7876
   63MOL   H18620150   1.548   5.128   6.148 -2.7665  2.0664  1.4983
   63MOL   H18720151   1.442   4.934   6.164 -0.2196 -1.1616 -0.0631
   63MOL   H18820152   1.283   4.882   5.981 -1.1815  0.7104 -1.0680
   63MOL   H18920153   1.145   4.961   6.044  0.9216  1.6682 -2.3397
   63MOL   H19020154   1.221   4.829   6.137  2.4239 -1.7465 -1.2669
   63MOL   H19120155   1.247   5.160   6.219 -0.2087 -1.4576 -3.0045
   63MOL   H19220156   1.380   5.112   6.322 -1.9826  1.0012  1.4569
   63MOL   H19320157   1.229   5.017   6.314 -0.5901  3.4825  3.8861
   63MOL   C19420158   1.627   5.093   5.935 -0.2634  0.2256  0.4689
   63MOL   C19520159   1.692   4.965   5.987 -0.3507  0.4148 -0.7682
   63MOL   O19620160   1.819   4.947   5.921 -0.7240 -0.5428  0.2613
   63MOL   C19720161   1.940   4.989   5.982 -0.4269 -0.6842  0.2035
   63MOL   C19820162   2.046   4.909   5.905 -0.1125  0.5198 -0.7780
   63MOL   C19920163   1.956   5.141   5.985 -0.0110  0.0858 -0.3202
   63MOL   H20020164   1.572   5.070   5.844 -0.6511 -0.4952  0.8801
   63MOL   H20120165   1.705   5.164   5.907 -0.7666 -0.1037 -1.8253
   63MOL   H20220166   1.699   4.969   6.096 -2.7346 -0.2932 -0.5633
   63MOL   H20320167   1.945   4.951   6.084  2.0314  0.6900  0.6426
   63MOL   H20420168   2.036   4.916   5.797 -0.2775  1.0960 -0.7263
   63MOL   H20520169   2.147   4.941   5.933  0.6363 -0.5631 -2.1736
   63MOL   H20620170   2.043   4.807   5.943 -2.3691  0.6195 -0.6632
   63MOL   H20720171   1.937   5.193   5.891  1.9094  1.5902  0.0970
   63MOL   H20820172   1.898   5.186   6.065  0.0437  0.6105 -0.5735
   63MOL   H20920173   2.060   5.168   6.003 -0.7538  1.6893  1.8652
   63MOL   C21020174   1.615   4.839   5.946  0.0682  0.1656 -0.5930
   63MOL   C21120175   1.661   4.726   6.034 -0.3091 -0.5508 -0.7794
   63MOL   O21220176   1.608   4.733   6.169 -0.0832  0.0114  0.0876
   63MOL   C21320177   1.677   4.702   6.288  0.0509  0.2649 -0.0836
   63MOL   C21420178   1.577   4.732   6.401 -0.2478  0.9569  1.1986
   63MOL   C21520179   1.735   4.564   6.292 -0.6725  1.8011 -0.2578
   63MOL   H21620180   1.632   4.815   5.841 -2.5312  2.2965 -1.5646
   63MOL   H21720181   1.510   4.870   5.950 -0.3442 -1.1293 -1.0567
   63MOL   H21820182   1.770   4.731   6.038 -0.4663  1.4873  2.2190
   63MOL   H21920183   1.764   4.767   6.293  1.2848 -1.1038 -2.5814
   63MOL   H22020184   1.622   4.731   6.500 -0.0341 -1.4834  1.1018
   63MOL   H22120185   1.507   4.649   6.411  0.0915  0.4690 -0.2629
   63MOL   H22220186   1.519   4.824   6.400  0.7776  1.6091 -0.3697
   63MOL   H22320187   1.790   4.531   6.204  0.0729 -4.3338  2.2163
   63MOL   H22420188   1.654   4.493   6.310  0.4260  0.8081  0.7973
   63MOL   H22520189   1.805   4.562   6.375  0.0918  1.3272 -0.9123
   63MOL   C22620190   1.616   4.592   5.967 -0.4572  0.0219 -0.7216
   63MOL   C22720191   1.715   4.544   5.855  0.1649  0.1230  0.1997
   63MOL   O22820192   1.663   4.424   5.804 -0.0393  0.2349 -0.0115
   63MOL   C22920193   1.541   4.429   5.728  0.9533 -0.8709  0.0850
   63MOL   C23020194   1.443   4.336   5.797  0.2213  0.3999 -0.3513
   63MOL   C23120195   1.586   4.364   5.600  0.0773 -0.4703  0.0694
   63MOL   H23220196   1.515   4.606   5.928 -0.5976  2.2571  0.3708
   63MOL   H23320197   1.610   4.518   6.047 -2.3284  0.2314 -0.6456
   63MOL   H23420198   1.736   4.620   5.780 -1.1700  1.5618  1.2492
   63MOL   H23520199   1.512   4.534   5.729  2.8535 -0.3399  1.2988
   63MOL   H23620200   1.352   4.316   5.741 -0.3882 -0.1533  0.8208
   63MOL   H23720201   1.498   4.244   5.819  0.5304  0.8175  0.6398
   63MOL   H23820202   1.424   4.382   5.894 -1.2073 -2.4317  0.7649
   63MOL   H23920203   1.674   4.415   5.563 -1.2159  2.8594  1.4261
   63MOL   H24020204   1.513   4.382   5.521 -0.9465  1.0024  1.3265
   63MOL   H24120205   1.611   4.258   5.600 -0.1993 -0.5635  2.4375
   63MOL   C24220206   1.852   4.504   5.913 -0.1385 -1.0061  0.1906
   63MOL   C24320207   1.949   4.426   5.824 -0.3541 -0.5996  0.0208
   63MOL   O24420208   2.066   4.410   5.901 -0.0054 -0.1161  0.5301
   63MOL   C24520209   2.079   4.299   5.986 -0.0192 -0.2307  0.1117
   63MOL   C24620210   2.166   4.194   5.918  0.7482  0.0084  0.1707
   63MOL   C24720211   2.146   4.346   6.118 -0.6139  0.0473 -0.3319
   63MOL   H24820212   1.921   4.580   5.950 -0.8646 -0.3289  0.1615
   63MOL   H24920213   1.827   4.458   6.009 -0.3107 -3.1740 -0.8557
   63MOL   H25020214   1.911   4.325   5.808  1.9630 -1.2273 -1.7233
   63MOL   H25120215   1.981   4.259   6.012 -0.3177  1.1507  1.1637
   63MOL   H25220216   2.210   4.120   5.984  2.4996  2.0590  1.3763
   63MOL   H25320217   2.110   4.128   5.852 -0.1687 -0.1644  1.1011
   63MOL   H25420218   2.246   4.236   5.856  0.6648  1.5305  1.0611
   63MOL   H25520219   2.175   4.276   6.196  1.2965  1.6068  0.4035
   63MOL   H25620220   2.235   4.403   6.093  1.3435 -2.6106  0.4917
   63MOL   H25720221   2.081   4.417   6.170  0.4993  1.8733 -1.3916
   63MOL   C25820222   1.984   4.501   5.684 -0.2021  0.6433 -0.7860
   63MOL   C25920223   2.048   4.403   5.586  0.0523 -0.7629  0.0789
   63MOL   O26020224   2.096   4.472   5.480 -0.5286  0.2053 -0.3202
   63MOL   C26120225   2.220   4.535   5.500 -0.6238 -0.3156 -0.0315
   63MOL   C26220226   2.308   4.441   5.407  1.1492  0.3839 -0.4699
   63MOL   C26320227   2.226   4.682   5.458  0.4575 -0.4057 -0.2796
   63MOL   H26420228   1.899   4.550   5.637  1.1340  2.5934 -1.2496
   63MOL   H26520229   2.068   4.570   5.697  1.7708 -1.6412 -0.9631
   63MOL   H26620230   2.129   4.340   5.624 -1.6689 -1.6622  2.4400
   63MOL   H26720231   2.248   4.537   5.605  0.3257 -0.8005 -0.2710
   63MOL   H26820232   2.297   4.467   5.302 -0.8051 -0.6465 -0.5416
   63MOL   H26920233   2.277   4.340   5.433  0.1471  0.9696  0.6629
   63MOL   H27020234   2.414   4.456   5.427  1.0864  2.1806 -1.3642
   63MOL   H27120235   2.141   4.736   5.498 -0.7992 -0.6214 -2.5379
   63MOL   H27220236   2.322   4.722   5.491  0.6710 -0.8896 -0.2988
   63MOL   H27320237   2.222   4.705   5.351 -1.8446  0.0354 -0.1170
   63MOL   C27420238   1.950   4.315   5.517 -0.3812  0.3885 -0.0035
   63MOL   C27520239   2.021   4.193   5.442 -0.4301 -0.5802 -0.2480
   63MOL   O27620240   2.076   4.104   5.542 -0.3836 -0.1811 -0.1621
   63MOL   C27720241   2.168   4.005   5.513 -0.7014  0.1859 -0.8158
   63MOL   C27820242   2.125   3.877   5.596 -0.1101  0.0539  0.6809
   63MOL   C27920243   2.310   4.040   5.562 -0.3680 -0.7363  0.5309
   63MOL   H28020244   1.877   4.266   5.582 -0.4820  0.1548 -0.2887
   63MOL   H28120245   1.878   4.371   5.457  1.2986  0.9227 -1.5899
   63MOL   H28220246   2.099   4.243   5.384 -1.0481  2.2727  1.2726
   63MOL   H28320247   2.170   3.978   5.407 -1.0401 -0.0113 -0.7734
   63MOL   H28420248   2.109   3.890   5.703 -0.4422  1.6727  0.4544
   63MOL   H28520249   2.042   3.833   5.540  1.3187 -1.0547 -0.6145
   63MOL   H28620250   2.204   3.802   5.587 -2.2081 -2.2129  0.5114
   63MOL   H28720251   2.298   4.068   5.666 -0.0765  0.4860  0.2504
   63MOL   H28820252   2.332   4.129   5.502  0.3116  0.1141  2.0132
   63MOL   H28920253   2.383   3.959   5.554  0.7963  0.0663  2.5706
   63MOL   C29020254   1.931   4.110   5.342 -0.1278 -0.2322 -0.1081
   63MOL   C29120255   1.851   4.192   5.232  0.1051  0.2090 -0.1596
   63MOL   O29220256   1.863   4.120   5.111  0.0409 -0.3349 -0.1750
   63MOL   C29320257   1.964   4.153   5.025  0.1600  0.1129 -0.2110
   63MOL   C29420258   1.912   4.259   4.935  1.1328  0.7188  0.4226
   63MOL   C29520259   2.025   4.031   4.958 -0.1653 -0.0984 -1.0288
   63MOL   H29620260   1.860   4.055   5.403  0.9907 -1.7277 -0.1194
   63MOL   H29720261   1.994   4.039   5.290  1.4356  0.2322  1.0958
   63MOL   H29820262   1.886   4.295   5.228 -2.0091  0.9502 -0.2050
   63MOL   H29920263   2.041   4.201   5.085 -0.0758  0.1062  0.0947
   63MOL   H30020264   1.818   4.231   4.888  1.7999  0.6112 -0.8557
   63MOL   H30120265   1.886   4.349   4.991 -0.2219  1.5315 -1.4768
   63MOL   H30220266   1.991   4.286   4.865  1.1212 -3.2085 -1.2380
   63MOL   H30320267   1.958   3.977   4.892 -0.2339 -1.2516 -0.0393
   63MOL   H30420268   2.103   4.066   4.891  1.0423 -2.6278 -0.9975
   63MOL   H30520269   2.075   3.961   5.025 -0.1747  0.4349 -0.4587
   63MOL   C30620270   1.707   4.206   5.272  0.2828 -0.4229  0.7945
   63MOL   C30720271   1.618   4.306   5.186  0.4068  0.0024 -0.7172
   63MOL   O30820272   1.499   4.333   5.246 -0.1011  0.5117 -0.0690
   63MOL   C30920273   1.418   4.424   5.178 -0.1861  0.3645  0.3958
   63MOL   C31020274   1.275   4.390   5.221 -0.8112 -0.2474 -0.0173
   63MOL   C31120275   1.460   4.561   5.207  0.6404  0.3565  0.1282
   63MOL   H31220276   1.695   4.233   5.376 -2.6262  0.8669  0.1797
   63MOL   H31320277   1.655   4.110   5.265 -3.1795  1.4361 -0.2943
   63MOL   H31420278   1.671   4.394   5.150  4.8144 -1.7033  1.2262
   63MOL   H31520279   1.427   4.403   5.071  0.0036 -0.9058  0.6573
   63MOL   H31620280   1.235   4.303   5.170  2.4842 -1.3588 -0.7871
   63MOL   H31720281   1.218   4.479   5.192  0.5193  0.0257 -1.9109
   63MOL   H31820282   1.276   4.379   5.329 -0.3224  0.2542  0.0346
   63MOL   H31920283   1.448   4.585   5.313  2.5927  2.2150 -0.0418
   63MOL   H32020284   1.407   4.645   5.163 -1.2535 -0.2492  1.1877
   63MOL   H32120285   1.562   4.589   5.181  0.5153 -0.0562 -0.8285
   63MOL   H32220286   1.590   4.257   5.092 -2.3491  0.0638  0.0326
   64MOL     C120287   0.743   4.215   6.791 -0.5306  0.1008 -0.2848
   64MOL     C220288   0.863   4.293   6.724 -0.3360  0.6550  0.1795
   64MOL     O320289   0.828   4.392   6.637  0.4142 -0.2499 -0.2707
   64MOL     C420290   0.747   4.352   6.525  0.7372  0.3134  0.7291
   64MOL     C520291   0.825   4.305   6.398  0.0951  0.3495  0.0608
   64MOL     C620292   0.644   4.469   6.496  0.2127  0.8972 -0.9598
   64MOL     H720293   0.779   4.133   6.853 -0.6853  1.1167  1.1735
   64MOL     H820294   0.682   4.282   6.851  1.6095  2.0760 -0.2346
   64MOL     H920295   0.921   4.224   6.663 -0.3906  0.6685  0.1138
   64MOL    H1020296   0.673   4.278   6.555 -0.4136  1.3242  0.4132
   64MOL    H1120297   0.857   4.203   6.420 -2.5666 -0.1526  1.7360
   64MOL    H1220298   0.763   4.303   6.308 -0.1409 -0.2420  0.2341
   64MOL    H1320299   0.909   4.372   6.377  0.5930 -0.2012  0.2701
   64MOL    H1420300   0.583   4.446   6.409  0.6828  0.0161 -1.0582
   64MOL    H1520301   0.572   4.482   6.577  1.5835 -1.3761  0.6991
   64MOL    H1620302   0.705   4.557   6.473  0.8579  0.5007 -0.7847
   64MOL    H1720303   0.677   4.164   6.720 -1.5525 -1.0306  1.4574
   64MOL    C1820304   0.956   4.358   6.833  1.0000  0.2448 -0.1989
   64MOL    C1920305   1.086   4.419   6.776 -0.0359  0.2456 -0.1497
   64MOL    O2020306   1.183   4.317   6.757 -0.8873 -0.2468  0.5458
   64MOL    C2120307   1.265   4.326   6.647 -0.2739  0.3128  0.4879
   64MOL    C2220308   1.182   4.281   6.530  0.0323  0.3690  0.2142
   64MOL    C2320309   1.382   4.231   6.684 -0.6566 -0.4419  0.1628
   64MOL    H2420310   0.900   4.434   6.887  2.5806 -0.5980  2.7532
   64MOL    H2520311   0.974   4.280   6.907  1.4327 -0.0194 -0.5884
   64MOL    H2620312   1.084   4.472   6.680 -1.7824  2.5270  1.0917
   64MOL    H2720313   1.299   4.429   6.633 -2.2647  1.3304  2.8580
   64MOL    H2820314   1.126   4.367   6.493  1.7285  2.3236  2.0253
   64MOL    H2920315   1.257   4.251   6.457  1.0235  2.2454  0.4272
   64MOL    H3020316   1.120   4.197   6.560 -0.4415  1.2298  1.7399
   64MOL    H3120317   1.466   4.262   6.621 -0.3107 -0.2100  0.7270
   64MOL    H3220318   1.362   4.125   6.675  3.5049 -1.4111  1.2509
   64MOL    H3320319   1.411   4.259   6.785  0.3121 -0.8035 -0.0032
   64MOL    C3420320   1.147   4.511   6.883 -0.2902  0.0480 -0.1467
   64MOL    C3520321   1.093   4.663   6.864 -0.1486  0.1691 -0.4751
   64MOL    O3620322   1.123   4.740   6.985  0.4264  0.1272 -0.2174
   64MOL    C3720323   1.028   4.716   7.084 -0.3351 -0.5220  0.4121
   64MOL    C3820324   1.089   4.783   7.210  0.7321 -0.5377  0.0831
   64MOL    C3920325   0.898   4.793   7.043  0.3667  0.3485 -0.4393
   64MOL    H4020326   1.256   4.508   6.878 -0.1796  2.2182  0.5325
   64MOL    H4120327   1.128   4.462   6.978 -1.5383 -0.4592 -0.6448
   64MOL    H4220328   0.987   4.642   6.847 -0.2702 -0.0412  0.4657
   64MOL    H4320329   1.001   4.611   7.091 -1.9302 -0.1524  0.1458
   64MOL    H4420330   1.146   4.870   7.180  0.5714 -0.0456  1.1827
   64MOL    H4520331   1.159   4.720   7.264  1.5491  0.7375  0.5261
   64MOL    H4620332   1.007   4.810   7.277 -0.8860  0.5606 -2.2719
   64MOL    H4720333   0.851   4.743   6.958 -1.2862  1.6084 -0.3020
   64MOL    H4820334   0.829   4.787   7.127  2.5926 -1.1274  1.3247
   64MOL    H4920335   0.908   4.900   7.024  0.8479  0.9636  3.0824
   64MOL    C5020336   1.167   4.733   6.739  0.0375  0.0437 -0.3167
   64MOL    C5120337   1.119   4.879   6.703  0.3290  0.4695 -0.3680
   64MOL    O5220338   1.014   4.884   6.610  0.3059 -0.2845 -0.1215
   64MOL    C5320339   0.886   4.835   6.645 -0.7062  0.7768  0.4513
   64MOL    C5420340   0.833   4.805   6.504  0.4529 -0.3959 -0.3537
   64MOL    C5520341   0.814   4.937   6.727 -0.2332  0.1775 -0.2864
   64MOL    H5620342   1.268   4.750   6.775 -0.0438  1.8032 -0.8602
   64MOL    H5720343   1.177   4.664   6.655 -2.3603 -0.9567  0.1837
   64MOL    H5820344   1.102   4.936   6.794 -2.7940 -1.6518  0.4609
   64MOL    H5920345   0.895   4.742   6.702  0.4352  1.1059  0.8172
   64MOL    H6020346   0.882   4.724   6.450 -1.0516 -0.0191 -2.3574
   64MOL    H6120347   0.851   4.890   6.438  0.4045  0.8551  1.2250
   64MOL    H6220348   0.724   4.797   6.502  0.2561  0.5875  2.9371
   64MOL    H6320349   0.729   4.887   6.774  0.6186  0.4575  1.5898
   64MOL    H6420350   0.780   5.013   6.656  0.4796  0.7648  0.0050
   64MOL    H6520351   0.875   4.992   6.798  0.4549  0.2879 -0.9552
   64MOL    C6620352   1.238   4.955   6.626 -0.5765 -0.2390  0.2809
   64MOL    C6720353   1.239   5.109   6.648  0.2678  0.2523 -0.5327
   64MOL    O6820354   1.245   5.148   6.782 -0.1197 -0.8055 -0.0694
   64MOL    C6920355   1.376   5.149   6.839 -0.4553 -0.6786 -0.4161
   64MOL    C7020356   1.388   5.285   6.906  0.4105 -0.0018  0.1302
   64MOL    C7120357   1.384   5.043   6.954  0.0630 -0.0600 -0.1933
   64MOL    H7220358   1.328   4.914   6.671 -0.3150 -0.4927 -0.4645
   64MOL    H7320359   1.232   4.933   6.519 -2.4571 -1.0901  0.5453
   64MOL    H7420360   1.326   5.148   6.595 -0.0234 -0.0778 -1.2640
   64MOL    H7520361   1.460   5.132   6.772  1.2346 -0.2077  1.5149
   64MOL    H7620362   1.485   5.313   6.948  0.3255 -0.9666  0.9887
   64MOL    H7720363   1.375   5.369   6.838 -0.3937  0.1729  0.4854
   64MOL    H7820364   1.315   5.301   6.985 -0.8903  0.9560 -1.2372
   64MOL    H7920365   1.302   5.051   7.025  0.2665  1.7302 -0.1418
   64MOL    H8020366   1.478   5.045   7.009  0.4061  3.0068 -0.8225
   64MOL    H8120367   1.375   4.940   6.920 -0.6111 -0.4868  1.2689
   64MOL    C8220368   1.113   5.177   6.586 -0.0813  0.0474  1.3425
   64MOL    C8320369   1.109   5.330   6.570  0.1941  0.0560 -0.4646
   64MOL    O8420370   1.161   5.357   6.439  0.2763  0.4599 -0.3518
   64MOL    C8520371   1.244   5.471   6.440 -0.1922 -0.5570 -0.4205
   64MOL    C8620372   1.206   5.556   6.326 -0.0389  0.6609 -0.4098
   64MOL    C8720373   1.384   5.412   6.450 -1.2671 -0.5804  0.1227
   64MOL    H8820374   1.099   5.138   6.485  2.4333 -0.2502  1.0912
   64MOL    H8920375   1.021   5.146   6.636  0.8798 -2.3912  1.6222
   64MOL    H9020376   1.158   5.363   6.662 -1.1886  0.0916  0.2744
   64MOL    H9120377   1.227   5.528   6.532  0.7960 -0.7701 -0.1017
   64MOL    H9220378   1.099   5.578   6.326 -0.2853 -0.2001  3.8141
   64MOL    H9320379   1.270   5.644   6.320  2.0721 -0.7518  1.0836
   64MOL    H9420380   1.233   5.502   6.235  0.1546  0.0847 -0.0140
   64MOL    H9520381   1.419   5.362   6.360 -0.5087  0.6540 -0.2832
   64MOL    H9620382   1.457   5.491   6.469 -1.9928  0.3840 -1.0651
   64MOL    H9720383   1.385   5.333   6.525 -0.0363 -0.4060  0.2996
   64MOL    C9820384   0.967   5.374   6.564  0.2448 -0.4587 -0.0790
   64MOL    C9920385   0.911   5.408   6.710  0.2775  0.1277 -0.2769
   64MOL   O10020386   0.769   5.436   6.703 -0.2871  0.0287  0.8648
   64MOL   C10120387   0.685   5.330   6.659  0.4937 -0.3572  0.0865
   64MOL   C10220388   0.632   5.365   6.524  0.1791 -0.2065  0.1825
   64MOL   C10320389   0.571   5.325   6.761  0.3692  0.4330  0.1237
   64MOL   H10420390   0.966   5.466   6.506 -1.0724  1.4061  2.8013
   64MOL   H10520391   0.906   5.299   6.512 -0.7453 -0.2444  0.7585
   64MOL   H10620392   0.939   5.325   6.775  0.1942 -0.2297 -0.6919
   64MOL   H10720393   0.726   5.229   6.654 -2.1072 -1.4326 -0.2889
   64MOL   H10820394   0.574   5.457   6.531  3.5119  1.8002  2.3656
   64MOL   H10920395   0.564   5.288   6.487 -0.0163  0.0931 -0.0869
   64MOL   H11020396   0.708   5.375   6.446 -0.0017 -0.0157  0.0286
   64MOL   H11120397   0.613   5.302   6.859 -0.4137  0.5550  0.4898
   64MOL   H11220398   0.490   5.262   6.726  0.7052 -0.8241  1.5348
   64MOL   H11320399   0.531   5.425   6.777 -0.9770  0.1431 -1.3628
   64MOL   C11420400   0.965   5.529   6.784  0.0086 -0.0931  0.4586
   64MOL   C11520401   0.929   5.527   6.938 -0.5636  0.5121 -0.3038
   64MOL   O11620402   1.000   5.407   6.992  0.0723 -0.1966 -0.0729
   64MOL   C11720403   0.922   5.304   7.048  0.4650 -0.0022  0.3058
   64MOL   C11820404   0.849   5.355   7.171 -0.0233 -0.2993  0.0314
   64MOL   C11920405   1.015   5.185   7.075  0.0405  0.2560  0.4352
   64MOL   H12020406   0.935   5.623   6.738  1.4157  0.6050  0.9142
   64MOL   H12120407   1.073   5.536   6.767 -0.0218 -2.6597 -1.1597
   64MOL   H12220408   0.821   5.524   6.951 -0.6988  0.4370 -1.3628
   64MOL   H12320409   0.844   5.266   6.981  0.1189 -0.9135  1.2182
   64MOL   H12420410   0.827   5.281   7.248 -0.9038  2.1642  2.2261
   64MOL   H12520411   0.749   5.392   7.149 -0.1309 -0.5770  0.0535
   64MOL   H12620412   0.919   5.423   7.220  0.4783 -0.9308  0.2097
   64MOL   H12720413   1.072   5.158   6.986 -1.4523 -0.7004 -0.2581
   64MOL   H12820414   0.970   5.095   7.118 -2.2331  1.3309  0.4140
   64MOL   H12920415   1.088   5.218   7.149  0.3963  2.0983 -0.7103
   64MOL   C13020416   0.983   5.636   7.031 -0.4981  0.4122 -0.6329
   64MOL   C13120417   0.915   5.771   7.013 -0.1843 -0.6869 -0.9820
   64MOL   O13220418   0.998   5.866   7.089  0.3275 -0.0559  0.4827
   64MOL   C13320419   1.057   5.987   7.020  0.2667 -0.4556 -0.4125
   64MOL   C13420420   1.115   6.085   7.127 -0.3490 -0.6679  0.0949
   64MOL   C13520421   1.169   5.938   6.929 -0.3968 -0.4474 -0.0741
   64MOL   H13620422   1.090   5.640   7.011 -0.5003  1.4434 -0.4612
   64MOL   H13720423   0.973   5.614   7.138  1.7200 -1.7822 -0.8192
   64MOL   H13820424   0.908   5.805   6.910  0.0398 -1.0302 -1.1112
   64MOL   H13920425   0.982   6.042   6.962  1.0139  0.8010 -0.2147
   64MOL   H14020426   1.195   6.145   7.082  0.4886 -1.3576  0.6481
   64MOL   H14120427   1.168   6.031   7.205 -1.4984 -3.3387 -0.9398
   64MOL   H14220428   1.036   6.143   7.173 -0.0526 -1.1018  1.1550
   64MOL   H14320429   1.255   5.913   6.992 -0.7706  2.3653  1.6281
   64MOL   H14420430   1.128   5.853   6.873 -1.7011 -0.0294  0.2328
   64MOL   H14520431   1.206   6.017   6.864 -0.7820 -1.4317 -1.5108
   64MOL   C14620432   0.772   5.768   7.065  0.2712  0.3030  0.1660
   64MOL   C14720433   0.701   5.906   7.076 -0.4070  0.9236  0.9974
   64MOL   O14820434   0.558   5.888   7.073  0.5161 -0.3349  0.0703
   64MOL   C14920435   0.497   5.923   6.948  0.1372  0.1482 -0.0509
   64MOL   C15020436   0.481   6.081   6.909  0.4715 -0.0759  0.3683
   64MOL   C15120437   0.355   5.856   6.962  1.0546 -0.0556 -0.1107
   64MOL   H15220438   0.765   5.719   7.163  1.2111  0.3443  0.2521
   64MOL   H15320439   0.703   5.712   7.002 -1.5661  2.1855  0.4519
   64MOL   H15420440   0.743   5.968   6.997  0.1170  1.3427  1.5976
   64MOL   H15520441   0.544   5.875   6.862 -1.5407  1.7892 -1.9545
   64MOL   H15620442   0.426   6.100   6.816  2.3254  0.5503 -0.6134
   64MOL   H15720443   0.576   6.127   6.884  0.0109  1.4475  1.3583
   64MOL   H15820444   0.421   6.132   6.984  0.8136  1.3456 -0.3133
   64MOL   H15920445   0.304   5.873   7.057  0.3232  0.0348 -0.5087
   64MOL   H16020446   0.361   5.747   6.959 -2.5700 -0.4398  2.2893
   64MOL   H16120447   0.286   5.886   6.882  0.4980  0.3372  0.5132
   64MOL   C16220448   0.725   5.984   7.207 -0.1346 -0.7243  0.5000
   64MOL   C16320449   0.656   6.126   7.213 -0.5594  0.9651 -0.2536
   64MOL   O16420450   0.665   6.159   7.352 -0.1661  0.4310 -0.0132
   64MOL   C16520451   0.535   6.146   7.416 -0.2641  0.3416 -0.4713
   64MOL   C16620452   0.470   6.282   7.409  0.3751  0.2299 -0.1700
   64MOL   C16720453   0.561   6.094   7.560 -0.0920  0.3131 -0.0296
   64MOL   H16820454   0.687   5.925   7.291 -1.2791 -1.2166 -0.3607
   64MOL   H16920455   0.831   5.990   7.232 -0.6424  0.4367  2.4803
   64MOL   H17020456   0.555   6.121   7.172 -0.9613 -0.5892  0.8654
   64MOL   H17120457   0.477   6.068   7.367 -0.2131  0.1855 -0.2832
   64MOL   H17220458   0.364   6.273   7.435  0.2259  0.7063 -0.5991
   64MOL   H17320459   0.472   6.323   7.308  1.0260  3.3374  1.0364
   64MOL   H17420460   0.519   6.365   7.459  0.0709  0.9809 -1.1012
   64MOL   H17520461   0.599   5.991   7.555 -0.3931  0.2484 -1.0528
   64MOL   H17620462   0.478   6.093   7.630 -0.8062 -0.4436 -0.8748
   64MOL   H17720463   0.635   6.153   7.615 -1.1486  0.6883  0.9905
   64MOL   C17820464   0.739   6.225   7.135 -0.1857 -0.4340 -0.0604
   64MOL   C17920465   0.702   6.376   7.145 -0.8834 -0.1011  0.5564
   64MOL   O18020466   0.816   6.440   7.083 -0.0539  0.4994  0.5225
   64MOL   C18120467   0.884   6.548   7.154  0.0263  0.1370  0.6335
   64MOL   C18220468   0.955   6.637   7.054 -0.4703 -0.2905 -0.2413
   64MOL   C18320469   0.972   6.479   7.256 -0.5366 -0.1593  0.6518
   64MOL   H18420470   0.754   6.192   7.032 -0.3016  0.0244 -0.2221
   64MOL   H18520471   0.832   6.225   7.192 -2.1609 -0.4683  3.2916
   64MOL   H18620472   0.686   6.400   7.251 -1.2462  0.1188  0.4536
   64MOL   H18720473   0.815   6.601   7.220  0.8185  1.7180  0.2165
   64MOL   H18820474   1.039   6.578   7.017  0.0521  1.9313 -2.7510
   64MOL   H18920475   0.995   6.721   7.111  0.2139  0.0284 -1.1810
   64MOL   H19020476   0.897   6.691   6.979  0.5577  2.0520  0.6188
   64MOL   H19120477   0.915   6.417   7.326  0.5205 -0.3480  1.3529
   64MOL   H19220478   1.035   6.540   7.321 -0.4305  1.8906 -1.2864
   64MOL   H19320479   1.040   6.414   7.200  0.8908  1.3570  0.5847
   64MOL   C19420480   0.579   6.413   7.050 -0.9008  0.5676 -0.5774
   64MOL   C19520481   0.530   6.558   7.072 -0.5353  0.7367 -0.3524
   64MOL   O19620482   0.487   6.570   7.206  0.3031  0.1918  0.0318
   64MOL   C19720483   0.493   6.706   7.264  0.2195  0.1844  0.0685
   64MOL   C19820484   0.398   6.717   7.381 -0.0300  0.7207  0.4655
   64MOL   C19920485   0.627   6.761   7.312 -0.4124 -0.0905 -0.4166
   64MOL   H20020486   0.617   6.410   6.948  0.5446  4.0230 -0.1847
   64MOL   H20120487   0.498   6.340   7.058 -1.1245  0.8573 -0.1724
   64MOL   H20220488   0.618   6.620   7.056  1.5337 -1.7327  1.2756
   64MOL   H20320489   0.455   6.777   7.190  0.4108 -0.7583 -0.9408
   64MOL   H20420490   0.440   6.671   7.470  0.0814  1.0152  0.5666
   64MOL   H20520491   0.365   6.817   7.407  2.6174  1.5942  0.6636
   64MOL   H20620492   0.307   6.665   7.351 -1.5112  2.4930  1.8020
   64MOL   H20720493   0.691   6.756   7.224  1.2960 -1.5645  0.8565
   64MOL   H20820494   0.612   6.866   7.339 -2.0546 -0.7420  1.3074
   64MOL   H20920495   0.678   6.718   7.398  0.4708 -0.4300 -1.1009
   64MOL   C21020496   0.411   6.594   6.973 -0.3304  0.0477  0.4473
   64MOL   C21120497   0.265   6.550   7.004 -0.7601  0.7427  0.3367
   64MOL   O21220498   0.175   6.660   6.975  0.6943 -0.1921  0.1877
   64MOL   C21320499   0.173   6.769   7.061 -0.1954  0.8218  0.2151
   64MOL   C21420500   0.192   6.907   6.996  0.2091  0.7489 -0.8429
   64MOL   C21520501   0.034   6.766   7.129  0.2859 -0.1232 -0.1946
   64MOL   H21620502   0.439   6.548   6.878  1.4470  1.0222  0.4872
   64MOL   H21720503   0.418   6.699   6.945  2.3364  0.1316  1.3093
   64MOL   H21820504   0.260   6.549   7.113  1.5395  0.6639  0.4706
   64MOL   H21920505   0.248   6.757   7.140 -0.5979 -0.8776  0.3582
   64MOL   H22020506   0.278   6.905   6.928 -0.0285  0.4789 -1.1431
   64MOL   H22120507   0.209   6.977   7.077 -0.7066 -0.4924  0.4515
   64MOL   H22220508   0.109   6.933   6.930  0.2075  0.6138 -0.8959
   64MOL   H22320509   7.775   6.789   7.058  0.3003 -0.2507 -0.2524
   64MOL   H22420510   0.040   6.833   7.215  1.2050  0.1003 -0.4271
   64MOL   H22520511   0.007   6.669   7.170 -0.6923  0.9672  1.8222
   64MOL   C22620512   0.219   6.426   6.922 -0.0154  0.0462 -0.2688
   64MOL   C22720513   0.096   6.342   6.967  0.2046 -0.2623  0.5025
   64MOL   O22820514   0.154   6.254   7.058 -0.1961 -0.1696  0.3722
   64MOL   C22920515   0.078   6.222   7.174 -0.0013  0.8642 -0.5555
   64MOL   C23020516   0.088   6.332   7.275 -0.1318 -0.8852 -0.4235
   64MOL   C23120517   0.136   6.085   7.231 -0.1530  0.5825  1.0654
   64MOL   H23220518   0.306   6.361   6.913 -1.1045 -1.3771 -0.7416
   64MOL   H23320519   0.200   6.462   6.821  1.0068 -0.7316 -0.7517
   64MOL   H23420520   0.005   6.394   6.997  0.9781  0.4472  1.6305
   64MOL   H23520521   7.793   6.201   7.155 -0.5964 -0.9045  4.0760
   64MOL   H23620522   0.195   6.350   7.281  0.8102 -4.6012 -4.1349
   64MOL   H23720523   0.043   6.427   7.247 -0.4742 -0.8838  0.1145
   64MOL   H23820524   0.051   6.308   7.375  0.1341 -0.0818 -0.1278
   64MOL   H23920525   0.078   6.043   7.313  2.0532  1.2292  3.0303
   64MOL   H24020526   0.241   6.091   7.261  0.3397  0.2097 -0.5183
   64MOL   H24120527   0.129   6.015   7.148  0.5573  0.0234  1.4737
   64MOL   C24220528   0.044   6.253   6.847 -0.5409 -0.1719 -0.2070
   64MOL   C24320529   7.768   6.329   6.749 -0.1467  0.2218 -0.5442
   64MOL   O24420530   7.652   6.378   6.818 -0.8917 -0.0029 -0.5048
   64MOL   C24520531   7.597   6.501   6.777  0.0453 -0.4107  0.0894
   64MOL   C24620532   7.448   6.486   6.794 -0.1826 -0.7594  0.0341
   64MOL   C24720533   7.657   6.620   6.837 -0.1711  0.1770  0.1604
   64MOL   H24820534   0.138   6.209   6.816  0.6421  0.7899  1.8961
   64MOL   H24920535   0.002   6.167   6.899 -0.5268  0.8090  1.4764
   64MOL   H25020536   0.001   6.415   6.709  3.5356 -0.4682  2.6090
   64MOL   H25120537   7.605   6.496   6.668 -2.5921 -0.6924 -0.1427
   64MOL   H25220538   7.431   6.462   6.899  1.4751  0.6036  0.6283
   64MOL   H25320539   7.390   6.576   6.773  0.0444 -0.7583 -0.5900
   64MOL   H25420540   7.395   6.406   6.741 -1.3801 -1.2984  1.9897
   64MOL   H25520541   7.765   6.609   6.848 -0.1820  1.9051  2.3718
   64MOL   H25620542   7.638   6.714   6.786  2.0532  1.2857  1.3140
   64MOL   H25720543   7.622   6.624   6.940 -0.0476  4.4506  0.1127
   64MOL   C25820544   7.721   6.245   6.630 -0.3607  0.2565  0.3945
   64MOL   C25920545   0.006   6.194   6.528  1.1530 -0.5848 -0.3836
   64MOL   O26020546   0.020   6.310   6.449  0.2004 -0.5243  0.1992
   64MOL   C26120547   0.144   6.342   6.385 -0.5405  1.1867 -0.3933
   64MOL   C26220548   0.097   6.445   6.280  0.2218 -0.6552 -0.8055
   64MOL   C26320549   0.230   6.405   6.485 -0.0364  0.3996  0.1235
   64MOL   H26420550   7.680   6.157   6.680 -1.1761  1.4161  1.8254
   64MOL   H26520551   7.636   6.287   6.576 -1.8521 -0.4023  2.1603
   64MOL   H26620552   0.099   6.173   6.581  1.0460 -2.5961 -0.9454
   64MOL   H26720553   0.185   6.262   6.323 -0.1165 -1.5747  3.2848
   64MOL   H26820554   0.073   6.539   6.331  0.0311 -2.6698  2.9897
   64MOL   H26920555   0.004   6.409   6.236  0.4275 -3.3879  0.9394
   64MOL   H27020556   0.167   6.467   6.198  0.1784 -0.3972 -0.7773
   64MOL   H27120557   0.186   6.495   6.528  0.2298  0.1965  0.8249
   64MOL   H27220558   0.246   6.343   6.573  1.8149 -0.2508 -0.6489
   64MOL   H27320559   0.331   6.422   6.447 -0.3469 -0.3727 -1.1059
   64MOL   C27420560   7.786   6.082   6.431  0.7414  0.4505  0.1319
   64MOL   C27520561   7.760   5.937   6.488 -0.7313 -0.0174  0.3884
   64MOL   O27620562   7.752   5.847   6.380 -0.3229  0.3292 -0.0473
   64MOL   C27720563   7.624   5.825   6.328 -0.5917  0.5455 -0.0188
   64MOL   C27820564   7.547   5.727   6.415  0.0541 -0.1141  0.2557
   64MOL   C27920565   7.642   5.772   6.187  0.1224  0.5016 -0.0320
   64MOL   H28020566   7.694   6.113   6.383 -0.0210 -0.3213  1.0875
   64MOL   H28120567   0.047   6.082   6.359 -0.3419 -0.9400 -1.1071
   64MOL   H28220568   7.671   5.939   6.552 -0.9627  1.9725  0.0412
   64MOL   H28320569   7.573   5.921   6.325 -0.7314  0.4686 -0.0912
   64MOL   H28420570   7.439   5.732   6.401 -0.2640 -0.0185  2.5766
   64MOL   H28520571   7.587   5.626   6.402 -1.7390 -0.9395  0.9667
   64MOL   H28620572   7.563   5.745   6.521  0.1232 -0.9842  0.3958
   64MOL   H28720573   7.571   5.690   6.171  1.5991 -0.2358 -3.0913
   64MOL   H28820574   7.738   5.727   6.162  0.3323  1.5638 -1.1816
   64MOL   H28920575   7.612   5.850   6.118 -0.9429  2.3637  2.4568
   64MOL   C29020576   0.050   5.895   6.584 -0.6293 -0.2947 -0.1311
   64MOL   C29120577   0.029   5.765   6.658 -0.5704 -0.0845 -0.0332
   64MOL   O29220578   0.161   5.740   6.714  0.2051  0.1953  0.9372
   64MOL   C29320579   0.243   5.658   6.632 -0.0107 -0.4707  0.3619
   64MOL   C29420580   0.223   5.517   6.680  0.0024  0.0934 -0.0670
   64MOL   C29520581   0.389   5.708   6.653 -0.0110 -0.3611  0.2233
   64MOL   H29620582   0.070   5.966   6.664 -0.8962 -1.3018  0.8274
   64MOL   H29720583   0.140   5.900   6.521  0.7535  1.2757  1.9081
   64MOL   H29820584   0.008   5.685   6.588 -3.3054  1.3059 -0.8718
   64MOL   H29920585   0.214   5.649   6.527  1.0676 -5.0102  0.3296
   64MOL   H30020586   0.129   5.465   6.661  0.2184 -0.1053 -0.6108
   64MOL   H30120587   0.296   5.445   6.641 -1.9051 -1.2225 -1.3006
   64MOL   H30220588   0.236   5.520   6.788 -3.2352  1.4675  0.3431
   64MOL   H30320589   0.421   5.696   6.757 -0.7369  2.3219  0.8042
   64MOL   H30420590   0.465   5.647   6.605  0.9976 -0.4494  1.8934
   64MOL   H30520591   0.406   5.810   6.618 -0.0529 -1.4056 -3.0246
   64MOL   C30620592   7.739   5.782   6.762 -0.0507  0.0520  0.0259
   64MOL   C30720593   7.746   5.693   6.882 -0.4028  0.9406  0.0803
   64MOL   O30820594   7.633   5.697   6.963 -0.3442  0.3205 -0.0293
   64MOL   C30920595   7.660   5.619   7.082 -0.1828  0.0307  0.0754
   64MOL   C31020596   7.557   5.647   7.184 -0.5300 -0.0070  0.6083
   64MOL   C31120597   7.668   5.467   7.056  0.2664  0.0030 -0.0904
   64MOL   H31220598   7.641   5.779   6.715 -0.6986  2.1533  1.2060
   64MOL   H31320599   7.752   5.883   6.800  0.9003  0.3683 -1.1084
   64MOL   H31420600   7.768   5.591   6.851  1.3997  1.4630 -0.3682
   64MOL   H31520601   7.750   5.658   7.130  1.1723 -2.4486 -0.3316
   64MOL   H31620602   7.586   5.638   7.288  2.2791  2.6074  0.1084
   64MOL   H31720603   7.478   5.574   7.164 -1.1414  1.0189 -0.8018
   64MOL   H31820604   7.515   5.746   7.168 -1.4451 -0.6143 -0.8629
   64MOL   H31920605   7.675   5.406   7.146  1.9994  1.3299  0.7185
   64MOL   H32020606   7.764   5.453   7.006 -0.6497 -1.8284 -1.4074
   64MOL   H32120607   7.597   5.431   6.981 -0.9868  2.6119 -0.2206
   64MOL   H32220608   0.008   5.738   6.937 -0.9856  1.1773  0.7683
   65MOL     C120609   2.550   7.445   6.096 -0.0291  0.0979 -0.6193
   65MOL     C220610   2.673   7.419   6.009 -0.2601  0.2520 -0.0673
   65MOL     O320611   2.694   7.281   5.976  0.5574  0.4903  0.1884
   65MOL     C420612   2.726   7.196   6.085 -0.7192  0.4723  0.3540
   65MOL     C520613   2.849   7.116   6.037 -0.1647  0.5075  0.7923
   65MOL     C620614   2.609   7.111   6.136  0.9098 -0.7775  0.4436
   65MOL     H720615   2.520   7.549   6.094  1.3520  0.5259  0.0593
   65MOL     H820616   2.463   7.395   6.053 -2.3141  0.8178  2.9108
   65MOL     H920617   2.758   7.475   6.048  0.8223 -1.0301 -0.5891
   65MOL    H1020618   2.758   7.258   6.169  2.0729  0.8589 -0.9368
   65MOL    H1120619   2.828   7.082   5.936 -0.6751  0.5112  0.8959
   65MOL    H1220620   2.936   7.182   6.036 -0.4951  0.9672 -1.7248
   65MOL    H1320621   2.863   7.040   6.114 -4.2538  0.1997  1.3359
   65MOL    H1420622   2.576   7.031   6.070 -0.0628  0.4455 -0.5865
   65MOL    H1520623   2.648   7.041   6.210 -1.5674 -1.7606  0.8357
   65MOL    H1620624   2.528   7.165   6.184 -1.6531 -1.5635 -2.7978
   65MOL    H1720625   2.563   7.419   6.201 -0.5163  1.6473 -0.1742
   65MOL    C1820626   2.647   7.487   5.871 -0.3327 -0.1246 -0.1411
   65MOL    C1920627   2.777   7.479   5.781  0.7239 -0.4696 -0.2574
   65MOL    O2020628   2.862   7.588   5.808 -0.1050 -0.2212 -0.3168
   65MOL    C2120629   3.001   7.557   5.827 -0.3775 -0.1251 -0.3797
   65MOL    C2220630   3.030   7.518   5.972  0.3780 -0.3782  0.1190
   65MOL    C2320631   3.071   7.681   5.778  0.5286 -0.3662  0.8635
   65MOL    H2420632   2.561   7.427   5.839  2.8366 -3.5803 -2.6341
   65MOL    H2520633   2.612   7.588   5.887 -0.2379  0.0553 -1.0344
   65MOL    H2620634   2.823   7.383   5.801  0.8603 -1.0026 -2.9969
   65MOL    H2720635   3.022   7.482   5.751  0.4787 -1.9392  1.5940
   65MOL    H2820636   3.136   7.520   5.996  0.1916  0.3175  0.8954
   65MOL    H2920637   2.983   7.578   6.049 -0.5142 -0.2831 -0.4957
   65MOL    H3020638   2.992   7.415   5.975 -1.9374  0.3904 -1.4953
   65MOL    H3120639   3.032   7.720   5.684  2.7781 -1.1546 -0.4353
   65MOL    H3220640   3.177   7.667   5.761  0.4849 -1.7541  1.6921
   65MOL    H3320641   3.058   7.763   5.849 -1.1091 -0.3835  0.6197
   65MOL    C3420642   2.740   7.499   5.634  0.1090 -0.4377 -0.2353
   65MOL    C3520643   2.650   7.396   5.564 -0.5665 -0.1474 -0.2649
   65MOL    O3620644   2.628   7.438   5.425 -0.3297 -0.5724  0.0805
   65MOL    C3720645   2.503   7.498   5.391 -0.6052  0.0475  0.5470
   65MOL    C3820646   2.487   7.638   5.459 -0.4758 -0.4420 -0.4276
   65MOL    C3920647   2.501   7.503   5.232 -0.0810 -0.2847 -0.3762
   65MOL    H4020648   2.833   7.497   5.577  1.2263  1.6118  1.4237
   65MOL    H4120649   2.701   7.601   5.634  1.1697 -0.0302 -1.4272
   65MOL    H4220650   2.549   7.398   5.603  0.0702 -0.5375  1.4467
   65MOL    H4320651   2.418   7.442   5.431 -2.1794  1.9527 -0.0705
   65MOL    H4420652   2.573   7.704   5.452  0.0264 -1.0577 -0.0531
   65MOL    H4520653   2.465   7.631   5.566  1.4029  1.8326  0.1390
   65MOL    H4620654   2.405   7.691   5.410  0.4261 -0.7425 -2.3046
   65MOL    H4720655   2.397   7.506   5.199 -1.1828 -0.6011  2.7935
   65MOL    H4820656   2.533   7.597   5.187 -2.0297  0.9257  0.6785
   65MOL    H4920657   2.547   7.413   5.191  1.7236  0.3093  0.2887
   65MOL    C5020658   2.700   7.250   5.571  0.7421  0.1987  0.1292
   65MOL    C5120659   2.598   7.144   5.543  0.2108 -0.6317  0.0858
   65MOL    O5220660   2.664   7.023   5.574 -0.2142  0.6733 -0.3536
   65MOL    C5320661   2.648   6.984   5.711 -0.0412 -0.6062  0.0159
   65MOL    C5420662   2.747   6.866   5.726 -0.1690  0.3083 -0.4485
   65MOL    C5520663   2.505   6.948   5.739 -0.1106 -0.2614  0.4626
   65MOL    H5620664   2.785   7.239   5.503  0.3234 -0.0864 -0.3442
   65MOL    H5720665   2.736   7.233   5.672  0.0119 -0.5894  0.2615
   65MOL    H5820666   2.510   7.166   5.604  0.9279 -0.9378  1.2228
   65MOL    H5920667   2.693   7.058   5.777 -0.2755 -0.5771  0.1442
   65MOL    H6020668   2.852   6.882   5.705 -0.2883  0.6237 -0.8276
   65MOL    H6120669   2.720   6.774   5.672 -0.2760  1.2166 -1.9726
   65MOL    H6220670   2.757   6.837   5.830 -0.7746  0.0152 -0.4640
   65MOL    H6320671   2.439   7.034   5.754  2.7387  2.5516 -2.1912
   65MOL    H6420672   2.504   6.881   5.825  0.6295 -2.5774 -1.3029
   65MOL    H6520673   2.467   6.892   5.654 -0.9638 -1.0189  1.3338
   65MOL    C6620674   2.555   7.144   5.391 -0.3821 -0.7023  0.3030
   65MOL    C6720675   2.476   7.025   5.341  0.0812  0.9647  0.1450
   65MOL    O6820676   2.448   7.047   5.201  0.3928 -0.0009  0.2604
   65MOL    C6920677   2.546   7.014   5.110 -0.1396 -0.3114 -0.4189
   65MOL    C7020678   2.499   6.887   5.034 -0.2464  0.5889 -0.1278
   65MOL    C7120679   2.569   7.136   5.018 -0.4559  0.2590 -0.6097
   65MOL    H7220680   2.506   7.239   5.369  0.3629 -0.4804 -0.4615
   65MOL    H7320681   2.645   7.155   5.331  1.2760  2.1535  3.1614
   65MOL    H7420682   2.527   6.930   5.360 -0.2911  0.8723  0.6935
   65MOL    H7520683   2.638   6.992   5.163  0.0773 -1.5089 -1.2784
   65MOL    H7620684   2.569   6.852   4.958  0.6722 -1.2421  1.5021
   65MOL    H7720685   2.452   6.803   5.085 -0.5752  0.7775 -0.1187
   65MOL    H7820686   2.414   6.917   4.973 -0.3063 -2.5594 -1.6834
   65MOL    H7920687   2.473   7.151   4.967 -0.3609  0.8576 -0.6198
   65MOL    H8020688   2.652   7.115   4.950  2.2972  2.2005  2.0461
   65MOL    H8120689   2.600   7.225   5.072 -0.2751 -0.8747  1.2121
   65MOL    C8220690   2.335   7.022   5.405  1.0631 -0.4531 -0.2237
   65MOL    C8320691   2.249   6.892   5.382  0.5822 -0.3181 -0.1461
   65MOL    O8420692   2.317   6.786   5.444 -0.6965 -0.5960  0.0716
   65MOL    C8520693   2.392   6.698   5.366  0.0465  0.1160  0.0280
   65MOL    C8620694   2.297   6.588   5.300 -0.2844  0.6608 -0.3178
   65MOL    C8720695   2.497   6.638   5.461 -0.0644  0.1483  0.5240
   65MOL    H8820696   2.338   7.023   5.514  1.4140 -0.1107 -0.2346
   65MOL    H8920697   2.295   7.119   5.377  1.4754 -0.8824 -2.4141
   65MOL    H9020698   2.225   6.875   5.277 -1.0434  1.0871 -0.0192
   65MOL    H9120699   2.440   6.753   5.285 -2.0895  1.1486 -0.5688
   65MOL    H9220700   2.359   6.539   5.225 -1.3221 -0.1596 -0.6482
   65MOL    H9320701   2.255   6.510   5.363  2.6124 -1.8970 -1.3965
   65MOL    H9420702   2.221   6.640   5.242  0.1414 -0.2801 -1.7468
   65MOL    H9520703   2.528   6.710   5.536  2.0075 -0.9179  0.7343
   65MOL    H9620704   2.454   6.551   5.510  0.2251 -1.5032 -2.0279
   65MOL    H9720705   2.585   6.610   5.402 -1.6619 -4.6656  0.2200
   65MOL    C9820706   2.117   6.892   5.460 -0.0018  0.5582 -0.3660
   65MOL    C9920707   1.994   6.985   5.437 -0.9183 -0.5134  0.1665
   65MOL   O10020708   1.879   6.939   5.499 -0.4510 -0.1021 -0.3904
   65MOL   C10120709   1.875   6.937   5.647  0.1094  0.4483 -0.2457
   65MOL   C10220710   1.858   6.790   5.688  0.2365 -0.3996  0.2144
   65MOL   C10320711   1.761   7.031   5.699  0.0650  0.4273  0.7420
   65MOL   H10420712   2.061   6.798   5.459 -1.1097  1.1787  0.9118
   65MOL   H10520713   2.147   6.904   5.564 -2.4460  1.7018  0.2372
   65MOL   H10620714   2.014   7.090   5.455 -1.5090 -0.6831  1.8491
   65MOL   H10720715   1.977   6.959   5.680 -0.3810  2.5331 -0.0875
   65MOL   H10820716   1.960   6.755   5.707  1.6653  2.9245 -0.8656
   65MOL   H10920717   1.822   6.734   5.602 -0.5005  1.7664 -0.9288
   65MOL   H11020718   1.792   6.774   5.773  3.3882  1.5210  3.1642
   65MOL   H11120719   1.787   7.130   5.662  2.2987  0.4666  2.3658
   65MOL   H11220720   1.753   7.024   5.807  0.8648  1.4000  0.8664
   65MOL   H11320721   1.661   7.006   5.663  0.9939 -2.4606  0.0069
   65MOL   C11420722   1.946   6.981   5.284 -0.3871  1.3822 -0.0023
   65MOL   C11520723   1.874   7.115   5.237 -0.0512 -0.4413 -0.2294
   65MOL   O11620724   1.869   7.088   5.094  0.1100  0.2449 -0.7401
   65MOL   C11720725   1.982   7.132   5.014  0.0057  0.1450 -0.0376
   65MOL   C11820726   1.943   7.253   4.930  0.4498 -0.6617 -0.1292
   65MOL   C11920727   2.022   7.022   4.918  0.5253 -0.9702  0.1344
   65MOL   H12020728   1.885   6.891   5.275 -0.3101  1.2272  1.0010
   65MOL   H12120729   2.027   6.950   5.219 -0.9402  0.7167 -0.3792
   65MOL   H12220730   1.935   7.202   5.261 -1.3635  0.5662 -0.4289
   65MOL   H12320731   2.069   7.158   5.074  0.2302 -1.5920  0.4088
   65MOL   H12420732   1.915   7.340   4.989 -1.3682 -0.7758 -0.7913
   65MOL   H12520733   1.872   7.236   4.849  0.9201  1.1239 -0.9492
   65MOL   H12620734   2.020   7.295   4.865 -0.3095  1.4015  0.2584
   65MOL   H12720735   2.105   7.046   4.852  0.0954 -2.6747 -1.0765
   65MOL   H12820736   1.951   6.992   4.841 -0.6396  2.3876 -0.1831
   65MOL   H12920737   2.065   6.933   4.965  0.4258  0.7617  3.6387
   65MOL   C13020738   1.740   7.139   5.311  0.1630  0.1150  0.5939
   65MOL   C13120739   1.659   7.246   5.239  0.7353 -0.2084 -0.1294
   65MOL   O13220740   1.572   7.308   5.330 -1.1226  0.0299  0.5788
   65MOL   C13320741   1.638   7.411   5.401  0.4267 -0.0582  0.0011
   65MOL   C13420742   1.634   7.536   5.320 -0.2724 -0.3793  0.1791
   65MOL   C13520743   1.555   7.412   5.525 -0.3253  0.5570 -0.1383
   65MOL   H13620744   1.753   7.169   5.415  2.0509  0.7593  0.2099
   65MOL   H13720745   1.670   7.057   5.322 -0.7864  0.6916 -0.9904
   65MOL   H13820746   1.725   7.318   5.191  1.9144 -2.6939 -2.4041
   65MOL   H13920747   1.744   7.403   5.424  0.6052  0.6149 -0.5647
   65MOL   H14020748   1.715   7.537   5.247 -1.1254  0.4340 -0.7719
   65MOL   H14120749   1.670   7.619   5.380 -0.8789  0.3698 -0.4830
   65MOL   H14220750   1.542   7.552   5.264  0.1420  1.6460  0.0440
   65MOL   H14320751   1.547   7.310   5.564 -0.0163  0.2694 -0.8222
   65MOL   H14420752   1.581   7.479   5.606  1.0004 -0.2456  0.1135
   65MOL   H14520753   1.451   7.439   5.505  0.0958  2.2875 -0.0413
   65MOL   C14620754   1.566   7.184   5.133  0.2621  0.5248  0.6152
   65MOL   C14720755   1.509   7.284   5.031  0.4009 -1.0206 -0.0462
   65MOL   O14820756   1.475   7.212   4.912  0.1815 -0.0127 -0.2891
   65MOL   C14920757   1.576   7.165   4.823 -0.2355  0.2783 -0.1302
   65MOL   C15020758   1.579   7.255   4.707 -0.3518 -0.0134  0.1963
   65MOL   C15120759   1.537   7.018   4.785  0.7518  0.4117 -0.5475
   65MOL   H15220760   1.490   7.121   5.180 -1.4771  2.1477  0.0201
   65MOL   H15320761   1.627   7.111   5.080 -0.9075 -0.2710  0.3545
   65MOL   H15420762   1.577   7.364   5.003 -1.0358  0.5490  0.8742
   65MOL   H15520763   1.674   7.162   4.870  0.3847  0.4762 -1.4026
   65MOL   H15620764   1.485   7.253   4.652 -2.0946  1.1725  3.0030
   65MOL   H15720765   1.659   7.224   4.640 -0.1228  0.8049  0.0903
   65MOL   H15820766   1.584   7.360   4.737 -0.3387  0.1004 -0.1988
   65MOL   H15920767   1.530   6.964   4.879  0.3902  1.7436  0.1886
   65MOL   H16020768   1.605   6.977   4.710 -0.6147 -0.8609 -1.1198
   65MOL   H16120769   1.432   7.018   4.758 -0.2966  1.2853  3.2429
   65MOL   C16220770   1.386   7.368   5.061  0.3680 -0.3567  0.4449
   65MOL   C16320771   1.257   7.285   5.074 -0.0899 -0.4082  0.3871
   65MOL   O16420772   1.191   7.359   5.173 -0.2816 -0.0361  0.5828
   65MOL   C16520773   1.232   7.332   5.303 -0.2955 -0.2766 -0.0129
   65MOL   C16620774   1.164   7.211   5.353  0.1064  0.3326 -0.3714
   65MOL   C16720775   1.191   7.448   5.388 -0.2871 -0.1371 -0.9368
   65MOL   H16820776   1.396   7.440   5.142 -2.2951  1.3149 -0.6643
   65MOL   H16920777   1.373   7.439   4.980  1.1998  1.1253  1.5831
   65MOL   H17020778   1.282   7.182   5.100 -0.2188 -0.2760  1.0368
   65MOL   H17120779   1.341   7.322   5.308 -0.0092  1.9189 -1.1440
   65MOL   H17220780   1.180   7.206   5.461 -1.1633  0.3577 -0.1696
   65MOL   H17320781   1.202   7.123   5.301  1.6920  1.6035 -1.4127
   65MOL   H17420782   1.057   7.219   5.334 -0.1813 -0.7151  0.7817
   65MOL   H17520783   1.252   7.533   5.360 -0.5794  1.4747  3.0255
   65MOL   H17620784   1.214   7.425   5.492 -1.4770  2.3121 -0.1116
   65MOL   H17720785   1.084   7.465   5.380  0.3424  4.3559 -1.2290
   65MOL   C17820786   1.168   7.285   4.941 -0.1745 -0.2309 -0.3504
   65MOL   C17920787   1.057   7.175   4.955 -0.2387  0.0910  0.5997
   65MOL   O18020788   0.970   7.199   4.843  0.2238  0.8875 -0.4106
   65MOL   C18120789   0.849   7.265   4.882  0.5125  0.1894  0.5649
   65MOL   C18220790   0.770   7.273   4.756  0.2649 -0.2036  0.5335
   65MOL   C18320791   0.873   7.409   4.941  0.4633  0.1657  0.2939
   65MOL   H18420792   1.216   7.281   4.843  3.0450  0.4507  1.1495
   65MOL   H18520793   1.123   7.383   4.923  0.8392  0.5205  1.1518
   65MOL   H18620794   1.010   7.180   5.053  1.3340 -0.2387  1.3912
   65MOL   H18720795   0.797   7.202   4.954 -1.1218  0.3764 -0.4376
   65MOL   H18820796   0.758   7.176   4.707 -0.6176  1.4723 -2.6665
   65MOL   H18920797   0.827   7.321   4.677 -2.1434 -0.2076 -1.2554
   65MOL   H19020798   0.676   7.328   4.758 -0.0753 -0.8064  2.0059
   65MOL   H19120799   0.927   7.477   4.875 -2.1032  0.9156 -1.1036
   65MOL   H19220800   0.923   7.404   5.038 -0.6233 -1.4864  0.7732
   65MOL   H19320801   0.787   7.472   4.960  0.1732  0.3399 -1.5544
   65MOL   C19420802   1.109   7.032   4.914 -0.3513 -0.6284 -0.5965
   65MOL   C19520803   1.024   6.914   4.969  0.3095  0.1878  0.5419
   65MOL   O19620804   1.019   6.919   5.110  0.2383  0.2814  0.5075
   65MOL   C19720805   0.892   6.889   5.170  0.1641 -0.1189  0.1707
   65MOL   C19820806   0.905   6.780   5.284  0.0186  0.2454 -0.3049
   65MOL   C19920807   0.831   7.024   5.224 -0.7437 -0.2016 -0.7593
   65MOL   H20020808   1.114   7.033   4.805  0.7571  1.6193 -0.5564
   65MOL   H20120809   1.211   7.031   4.952 -0.6522  1.7363  0.3860
   65MOL   H20220810   0.920   6.926   4.939 -0.3316 -0.4457  2.3650
   65MOL   H20320811   0.821   6.852   5.096 -1.1576  2.6996 -0.0426
   65MOL   H20420812   0.810   6.759   5.332 -0.2569 -1.2325 -1.4416
   65MOL   H20520813   0.940   6.685   5.242 -1.8811 -1.6417  2.2525
   65MOL   H20620814   0.978   6.810   5.359 -0.0825 -0.5394  0.1127
   65MOL   H20720815   0.730   7.006   5.262 -1.3355  0.0617 -2.1949
   65MOL   H20820816   0.892   7.064   5.305  0.5828 -1.9025 -0.8733
   65MOL   H20920817   0.823   7.101   5.148  0.9874 -1.6349 -2.4268
   65MOL   C21020818   1.077   6.779   4.928 -0.4559 -0.4902 -0.3781
   65MOL   C21120819   1.062   6.742   4.780  0.0331 -0.4214  0.3356
   65MOL   O21220820   1.138   6.628   4.744  1.2494  0.8339 -0.3637
   65MOL   C21320821   1.274   6.650   4.716  0.7700  0.5931  0.2954
   65MOL   C21420822   1.345   6.519   4.762 -0.0667 -0.9580  0.9110
   65MOL   C21520823   1.287   6.664   4.563 -0.4020  0.3539  0.2598
   65MOL   H21620824   1.027   6.700   4.984  0.6410  0.2009  1.6308
   65MOL   H21720825   1.182   6.772   4.958 -0.4370  0.0638 -0.3194
   65MOL   H21820826   1.102   6.828   4.726 -1.6966 -0.0018 -0.3387
   65MOL   H21920827   1.323   6.735   4.764  2.3797 -0.2548  0.1645
   65MOL   H22020828   1.332   6.501   4.869 -1.0447 -0.7363  0.8407
   65MOL   H22120829   1.452   6.516   4.742 -0.0953  0.6315  0.4354
   65MOL   H22220830   1.288   6.438   4.715  1.2549 -1.2928 -0.1154
   65MOL   H22320831   1.262   6.575   4.505  1.1187 -0.7349  1.2429
   65MOL   H22420832   1.389   6.683   4.532 -0.0797 -0.0826  1.0391
   65MOL   H22520833   1.231   6.738   4.505 -0.4914 -1.4962 -2.0934
   65MOL   C22620834   0.915   6.723   4.734 -0.3025  0.1266  0.0146
   65MOL   C22720835   0.891   6.742   4.583 -0.9611  0.6051  0.3283
   65MOL   O22820836   0.757   6.782   4.556 -0.1771 -0.0947  0.4595
   65MOL   C22920837   0.719   6.923   4.583 -0.4583 -0.3751  0.8787
   65MOL   C23020838   0.599   6.922   4.672 -0.0680  0.1654  0.1003
   65MOL   C23120839   0.708   7.004   4.451 -0.2249  0.5172 -0.0048
   65MOL   H23220840   0.847   6.796   4.775  0.0743  1.6526 -1.9731
   65MOL   H23320841   0.875   6.628   4.768  2.6859 -1.8681 -1.7240
   65MOL   H23420842   0.960   6.823   4.563 -0.5434  0.1631 -0.0204
   65MOL   H23520843   0.806   6.972   4.627  0.5401 -1.7195  0.4518
   65MOL   H23620844   0.627   6.867   4.761  0.0806  0.9501  0.5433
   65MOL   H23720845   0.561   7.021   4.697 -0.9721 -0.5509  1.6262
   65MOL   H23820846   0.507   6.881   4.630  1.3949 -1.2457 -1.8703
   65MOL   H23920847   0.804   7.035   4.410 -1.9074  1.4155 -3.4819
   65MOL   H24020848   0.673   7.104   4.476  1.0151  0.7668  0.7530
   65MOL   H24120849   0.651   6.956   4.371  2.6951 -0.5003 -1.5268
   65MOL   C24220850   0.936   6.624   4.496 -0.3619  0.6832 -1.4033
   65MOL   C24320851   0.933   6.634   4.344  0.4133  0.2115  0.1287
   65MOL   O24420852   0.986   6.523   4.273  0.4440  0.3798 -0.0503
   65MOL   C24520853   0.907   6.404   4.283  0.5264  0.0156 -0.8090
   65MOL   C24620854   0.850   6.372   4.140 -0.4437  0.0181 -0.0238
   65MOL   C24720855   0.997   6.301   4.338  0.7158  0.7945 -0.6839
   65MOL   H24820856   1.033   6.590   4.533 -1.0141  0.0976 -0.1834
   65MOL   H24920857   0.875   6.538   4.522  0.6998  0.6826  1.2431
   65MOL   H25020858   0.829   6.646   4.313  0.7978 -0.5593 -1.5039
   65MOL   H25120859   0.821   6.407   4.349  1.9395  1.6505  1.0035
   65MOL   H25220860   0.796   6.461   4.110 -1.2452 -0.7268 -0.8116
   65MOL   H25320861   0.931   6.341   4.074 -1.1766 -0.3579 -0.7525
   65MOL   H25420862   0.789   6.282   4.151 -1.2999  0.3785 -1.6642
   65MOL   H25520863   1.091   6.294   4.283  0.9693 -1.0367 -0.0644
   65MOL   H25620864   1.021   6.322   4.442  3.3835 -3.5105 -0.3130
   65MOL   H25720865   0.958   6.200   4.323 -0.8909  1.2580  0.2497
   65MOL   C25820866   1.003   6.752   4.285 -0.4024 -0.5006 -0.1145
   65MOL   C25920867   0.971   6.787   4.139 -0.2050 -0.2916  0.1179
   65MOL   O26020868   1.076   6.874   4.090  0.2473  0.2569 -0.1472
   65MOL   C26120869   1.196   6.812   4.051 -0.0442 -0.4018 -1.5433
   65MOL   C26220870   1.181   6.760   3.906  0.3151 -0.1458 -0.0345
   65MOL   C26320871   1.299   6.930   4.049  0.3060  0.4127 -0.8976
   65MOL   H26420872   0.980   6.841   4.344 -0.7818 -0.8360  0.2438
   65MOL   H26520873   1.110   6.730   4.281 -0.6093 -1.5782 -0.0109
   65MOL   H26620874   0.966   6.698   4.077  0.6359 -0.3684  0.1517
   65MOL   H26720875   1.224   6.732   4.120  1.3823  2.4557  1.3190
   65MOL   H26820876   1.117   6.672   3.909  1.9922 -1.3516  2.2306
   65MOL   H26920877   1.280   6.730   3.872  0.3481  0.1290 -0.1844
   65MOL   H27020878   1.136   6.827   3.833  0.6431  0.7955  0.6027
   65MOL   H27120879   1.402   6.895   4.049  0.5563  1.1547 -2.1990
   65MOL   H27220880   1.298   6.983   3.954  0.2627 -0.3894 -1.3476
   65MOL   H27320881   1.289   7.007   4.126 -1.3450  0.9081 -1.5891
   65MOL   C27420882   0.841   6.869   4.129 -0.1184  0.7055 -0.1802
   65MOL   C27520883   0.760   6.844   4.004  0.1350  0.3261 -0.6067
   65MOL   O27620884   0.738   6.704   3.984  0.1831 -0.2474 -0.1740
   65MOL   C27720885   0.727   6.663   3.847  0.2692  0.0824  0.0767
   65MOL   C27820886   0.601   6.571   3.853  0.2781  0.1830  0.2440
   65MOL   C27920887   0.853   6.581   3.801  0.5951 -0.3253  0.1731
   65MOL   H28020888   0.776   6.825   4.204 -0.4656  0.2701 -0.7361
   65MOL   H28120889   0.858   6.975   4.146 -1.2581  0.6765  1.2793
   65MOL   H28220890   0.818   6.882   3.919 -0.5794  1.4391 -0.6182
   65MOL   H28320891   0.718   6.740   3.770 -0.6461 -0.5288 -0.4380
   65MOL   H28420892   0.625   6.488   3.919  0.0708 -0.1442 -0.0942
   65MOL   H28520893   0.515   6.628   3.890 -0.7648  0.0164 -1.8258
   65MOL   H28620894   0.570   6.538   3.754  0.3776 -1.1846  0.6646
   65MOL   H28720895   0.939   6.643   3.774  0.2120 -0.3208 -1.0970
   65MOL   H28820896   0.826   6.517   3.717  0.4479  1.0089 -0.8245
   65MOL   H28920897   0.898   6.522   3.881  1.4828 -1.4639 -1.1369
   65MOL   C29020898   0.612   6.893   4.017  0.8063 -0.0491 -0.0986
   65MOL   C29120899   0.591   7.045   4.031 -1.0734  0.3910  0.7301
   65MOL   O29220900   0.640   7.099   3.909  0.2186 -0.5302  0.1007
   65MOL   C29320901   0.693   7.228   3.908 -0.0139  0.1271  0.8870
   65MOL   C29420902   0.678   7.277   3.764  0.0785  0.3215 -0.3029
   65MOL   C29520903   0.843   7.227   3.962  0.6909 -0.1531 -0.0484
   65MOL   H29620904   0.563   6.842   4.099 -0.0413  0.4266 -0.3024
   65MOL   H29720905   0.553   6.848   3.938  0.6323  0.1446 -0.0809
   65MOL   H29820906   0.663   7.078   4.106  2.4300 -1.2940 -1.7364
   65MOL   H29920907   0.640   7.300   3.971 -0.8638  0.8633 -0.6461
   65MOL   H30020908   0.581   7.254   3.722  0.7530 -1.1507 -1.0672
   65MOL   H30120909   0.698   7.385   3.759 -2.6403  0.8861  0.2404
   65MOL   H30220910   0.744   7.217   3.702 -1.7727  0.3077 -2.3316
   65MOL   H30320911   0.883   7.326   3.944 -1.0648  0.0395 -3.1844
   65MOL   H30420912   0.848   7.211   4.070  2.2640 -1.3462 -0.2772
   65MOL   H30520913   0.905   7.156   3.908  2.3335  0.7384  0.6179
   65MOL   C30620914   0.448   7.090   4.064 -0.1361 -0.2887  0.8676
   65MOL   C30720915   0.420   7.072   4.214 -0.4654  0.2988  0.1106
   65MOL   O30820916   0.287   7.092   4.233 -0.0604  0.3671 -0.1438
   65MOL   C30920917   0.244   7.118   4.371 -0.3185 -0.0265  0.6395
   65MOL   C31020918   0.085   7.141   4.369  0.5030  0.3297  0.0001
   65MOL   C31120919   0.299   7.018   4.475  0.3370 -0.4757 -0.2311
   65MOL   H31220920   0.377   7.052   3.990  0.5630  0.3219 -0.1280
   65MOL   H31320921   0.438   7.196   4.041  0.3332 -0.5373 -0.5182
   65MOL   H31420922   0.429   6.969   4.249  0.2447 -0.2124 -1.5246
   65MOL   H31520923   0.285   7.215   4.400 -1.1229  0.5462 -0.1149
   65MOL   H31620924   0.068   7.232   4.311 -0.8471  0.1338  0.0749
   65MOL   H31720925   0.060   7.155   4.474  0.9281 -1.4723  0.3733
   65MOL   H31820926   0.052   7.051   4.318  1.2180  0.0647 -0.0123
   65MOL   H31920927   0.224   6.940   4.490  0.1827 -0.2129  0.3941
   65MOL   H32020928   0.325   7.064   4.571 -0.7909 -1.9488  0.8136
   65MOL   H32120929   0.392   6.967   4.451 -0.0310 -1.5120  0.5139
   65MOL   H32220930   0.479   7.134   4.282 -1.8536  1.2566  0.4436
   66MOL     C120931   1.268   7.439   0.735 -0.0894  0.2340  0.2142
   66MOL     C220932   1.197   7.454   0.870 -0.2695  0.2990 -0.7925
   66MOL     O320933   1.102   7.567   0.854 -0.8166  0.0835  0.2712
   66MOL     C420934   1.080   7.637   0.974  0.3841 -0.5283 -0.7622
   66MOL     C520935   0.941   7.676   0.970  0.2559  0.3583 -0.3018
   66MOL     C620936   1.178   7.755   0.974  0.4410  0.5836  0.1248
   66MOL     H720937   1.316   7.534   0.710  2.4016 -1.0818 -0.1945
   66MOL     H820938   1.343   7.361   0.737 -0.5230 -0.2076 -0.4787
   66MOL     H920939   1.279   7.469   0.941  1.1867 -0.5617 -2.2549
   66MOL    H1020940   1.104   7.579   1.063 -0.3691  0.7383  0.2816
   66MOL    H1120941   0.874   7.591   0.982 -0.2744  0.8465  0.2865
   66MOL    H1220942   0.916   7.748   1.048  3.0569  0.1999  0.7886
   66MOL    H1320943   0.920   7.722   0.873  0.2526 -0.3239 -0.6307
   66MOL    H1420944   1.279   7.716   0.962  0.2923 -0.4553  1.9596
   66MOL    H1520945   1.163   0.006   0.893 -2.4449 -0.4533 -0.3395
   66MOL    H1620946   1.184   7.808   1.069  0.3298 -0.7221  0.8741
   66MOL    H1720947   1.204   7.418   0.649 -0.0567 -1.5748  0.6211
   66MOL    C1820948   1.108   7.329   0.907  0.3420 -0.3770 -0.1973
   66MOL    C1920949   1.182   7.199   0.926 -0.6833  0.1943  0.3233
   66MOL    O2020950   1.086   7.099   0.898 -0.1028  0.2619  0.3120
   66MOL    C2120951   1.082   7.055   0.760  0.0441 -0.5942 -0.3385
   66MOL    C2220952   0.978   7.127   0.677 -0.0502  0.5242 -0.9636
   66MOL    C2320953   1.049   6.908   0.758 -0.1623 -0.9580 -0.7680
   66MOL    H2420954   1.051   7.336   0.999  1.1834 -1.2544  0.4000
   66MOL    H2520955   1.035   7.322   0.826  3.0295  0.7350 -2.8045
   66MOL    H2620956   1.271   7.188   0.864  0.4598 -0.4558  2.0445
   66MOL    H2720957   1.172   7.083   0.706  1.0938  3.3130  3.2491
   66MOL    H2820958   0.894   7.154   0.741 -1.2094 -0.3329 -2.0850
   66MOL    H2920959   1.008   7.222   0.634 -0.3061  0.7203 -0.7085
   66MOL    H3020960   0.937   7.062   0.599  3.0385 -1.5753 -0.9230
   66MOL    H3120961   0.944   6.906   0.789  0.4834  1.2162  1.8186
   66MOL    H3220962   1.107   6.846   0.826 -0.5978 -1.9436 -1.2796
   66MOL    H3320963   1.054   6.860   0.661  0.4179 -1.1607 -0.6354
   66MOL    C3420964   1.235   7.194   1.074 -0.5622  0.2893 -0.2670
   66MOL    C3520965   1.347   7.091   1.101  0.4699  0.6457 -0.3770
   66MOL    O3620966   1.444   7.093   0.994 -0.0741 -0.4462 -0.2196
   66MOL    C3720967   1.522   6.978   0.967  0.0806  0.5676  0.0696
   66MOL    C3820968   1.445   6.870   0.893 -0.2873 -0.1481 -0.0584
   66MOL    C3920969   1.651   7.009   0.888 -0.1695  0.0885 -0.4372
   66MOL    H4020970   1.145   7.170   1.131  0.0034  0.9371  0.9123
   66MOL    H4120971   1.270   7.286   1.119  0.5120 -0.9206  1.4180
   66MOL    H4220972   1.299   6.994   1.094  0.3365  0.9039 -3.9901
   66MOL    H4320973   1.553   6.936   1.062  2.6165  0.2518 -0.8478
   66MOL    H4420974   1.401   6.907   0.800  0.4321  1.8849  0.3991
   66MOL    H4520975   1.364   6.831   0.954 -0.3848  0.2613  0.0712
   66MOL    H4620976   1.512   6.790   0.860  1.8301  1.3320  0.5161
   66MOL    H4720977   1.710   7.073   0.954  1.8230 -1.4791 -0.6578
   66MOL    H4820978   1.707   6.918   0.869  0.8285  0.7705 -0.8010
   66MOL    H4920979   1.645   7.059   0.791  0.5612 -0.7339 -0.9036
   66MOL    C5020980   1.409   7.111   1.241 -0.0553 -0.6009 -0.2829
   66MOL    C5120981   1.328   7.062   1.363 -0.3177  0.4213  0.3968
   66MOL    O5220982   1.338   7.147   1.476 -1.1327 -0.4426 -0.6250
   66MOL    C5320983   1.247   7.254   1.491  0.3891  0.4275  0.1073
   66MOL    C5420984   1.312   7.368   1.568 -0.4497 -0.4895  0.5223
   66MOL    C5520985   1.110   7.217   1.551 -0.3063  0.2348 -0.6813
   66MOL    H5620986   1.514   7.079   1.240 -0.1721 -0.9597 -0.8915
   66MOL    H5720987   1.421   7.218   1.253  4.5911 -1.0720  0.2419
   66MOL    H5820988   1.224   7.056   1.331 -0.2619  0.0111  0.2968
   66MOL    H5920989   1.240   7.289   1.388 -2.4483  2.1531  0.8365
   66MOL    H6020990   1.251   7.458   1.576 -0.9391 -0.6883 -0.9024
   66MOL    H6120991   1.411   7.391   1.530 -0.6284 -2.1254 -1.0081
   66MOL    H6220992   1.319   7.334   1.672 -1.3113  1.5677  1.2802
   66MOL    H6320993   1.110   7.185   1.656 -1.3080  0.3027 -0.6574
   66MOL    H6420994   1.042   7.156   1.492 -0.1020 -0.6670 -0.0136
   66MOL    H6520995   1.053   7.308   1.565 -0.2748 -0.2955  3.6793
   66MOL    C6620996   1.375   6.922   1.406 -0.0773  0.6488 -0.1016
   66MOL    C6720997   1.329   6.812   1.300  0.3066 -0.0193  1.3207
   66MOL    O6820998   1.189   6.812   1.294 -0.3047  0.1336 -0.4250
   66MOL    C6920999   1.122   6.748   1.191 -0.1384 -0.6624 -0.0031
   66MOL    C7021000   1.052   6.623   1.254  0.2645  0.0160 -0.3871
   66MOL    C7121001   1.019   6.846   1.136  0.8839 -0.4787  0.7581
   66MOL    H7221002   1.483   6.929   1.419 -0.1669  1.1303  0.4279
   66MOL    H7321003   1.321   6.896   1.497  1.6388 -1.0686  0.4457
   66MOL    H7421004   1.361   6.828   1.197  0.8667 -1.5987  1.2462
   66MOL    H7521005   1.184   6.727   1.104  0.1268  0.3706 -0.0654
   66MOL    H7621006   1.118   6.543   1.287 -1.3435 -0.2915  2.1848
   66MOL    H7721007   0.998   6.665   1.339 -0.9406  0.6995 -1.4676
   66MOL    H7821008   0.990   6.588   1.172  1.7042 -0.5351 -1.2530
   66MOL    H7921009   0.971   6.891   1.223 -1.6575 -0.7306 -0.4539
   66MOL    H8021010   0.942   6.804   1.071  0.7155  1.7432 -0.5276
   66MOL    H8121011   1.062   6.936   1.093 -2.1963  0.3816 -0.6538
   66MOL    C8221012   1.382   6.672   1.338 -0.6019 -0.9152  0.1625
   66MOL    C8321013   1.533   6.640   1.325 -0.3136  0.0218 -0.2047
   66MOL    O8421014   1.558   6.532   1.412  0.4349  0.7134  0.0744
   66MOL    C8521015   1.618   6.571   1.536 -0.9228  0.0644  0.1532
   66MOL    C8621016   1.688   6.443   1.585  0.7693 -0.1768  0.0145
   66MOL    C8721017   1.527   6.637   1.636  0.4897  0.3012 -0.1409
   66MOL    H8821018   1.350   6.650   1.440  0.1540 -1.8379  0.2047
   66MOL    H8921019   1.319   6.597   1.288 -0.7085 -1.1869  0.6944
   66MOL    H9021020   1.587   6.734   1.340  0.1035 -0.4338  1.2516
   66MOL    H9121021   1.690   6.648   1.509 -3.0568  0.8393 -3.6010
   66MOL    H9221022   1.760   6.449   1.665  0.8407 -0.8102 -0.0018
   66MOL    H9321023   1.619   6.368   1.624  2.7281 -1.2949  1.3893
   66MOL    H9421024   1.742   6.400   1.500 -0.0805  1.4843 -1.4002
   66MOL    H9521025   1.576   6.649   1.732  0.9030 -3.6933  0.2336
   66MOL    H9621026   1.503   6.736   1.598  2.8495  0.5105 -1.2059
   66MOL    H9721027   1.439   6.576   1.657 -0.7941  2.1126 -0.1579
   66MOL    C9821028   1.578   6.580   1.186  0.0840  0.1679  0.0736
   66MOL    C9921029   1.728   6.589   1.164  0.2138  0.4147  0.5489
   66MOL   O10021030   1.755   6.721   1.123 -0.1214 -0.3386 -0.1812
   66MOL   C10121031   1.890   6.767   1.144 -0.0778 -0.0660 -0.0850
   66MOL   C10221032   1.876   6.849   1.273 -0.1105 -0.0507  0.4219
   66MOL   C10321033   1.947   6.855   1.031 -0.0891  0.0402  0.2489
   66MOL   H10421034   1.543   6.477   1.190 -3.2434  1.1910 -0.8940
   66MOL   H10521035   1.530   6.619   1.096 -0.3688 -0.4688  0.0381
   66MOL   H10621036   1.779   6.564   1.257  1.5206 -0.3776 -0.3631
   66MOL   H10721037   1.951   6.680   1.165 -1.8476 -1.2230  0.3589
   66MOL   H10821038   1.972   6.889   1.306 -0.1035  0.0993  0.2251
   66MOL   H10921039   1.838   6.791   1.357  0.0620 -0.1588  0.4264
   66MOL   H11021040   1.821   6.939   1.247 -2.3351 -1.6687 -0.6851
   66MOL   H11121041   2.054   6.869   1.048 -0.0378 -0.0129 -0.0326
   66MOL   H11221042   1.897   6.952   1.034 -0.8468 -0.3144 -0.6770
   66MOL   H11321043   1.941   6.811   0.931  1.0528  0.4886 -0.0199
   66MOL   C11421044   1.786   6.480   1.066  0.6275  0.0670  0.1762
   66MOL   C11521045   1.748   6.472   0.913 -0.8755 -0.2562 -0.3408
   66MOL   O11621046   1.837   6.391   0.838 -0.2834 -0.0035 -0.6458
   66MOL   C11721047   1.962   6.451   0.798 -0.0397 -0.2941 -0.4939
   66MOL   C11821048   1.974   6.452   0.644  0.1542 -0.2407  0.5892
   66MOL   C11921049   2.069   6.356   0.856 -0.0460 -0.0666  0.2006
   66MOL   H12021050   1.767   6.380   1.104 -2.6755  0.8824  0.7731
   66MOL   H12121051   1.895   6.481   1.081  0.8285 -0.8968 -1.1495
   66MOL   H12221052   1.733   6.574   0.877  1.8514  0.7509  1.2260
   66MOL   H12321053   1.976   6.550   0.841 -1.3365 -0.5194  0.5051
   66MOL   H12421054   1.900   6.520   0.604 -0.2610 -0.7366  0.5157
   66MOL   H12521055   1.965   6.352   0.602  1.1134  1.0074 -2.7297
   66MOL   H12621056   2.067   6.492   0.602 -0.5034  0.3167 -0.3465
   66MOL   H12721057   2.044   6.354   0.962  0.9352  1.5327  0.4723
   66MOL   H12821058   2.172   6.392   0.850 -0.9650  2.4653 -0.9406
   66MOL   H12921059   2.067   6.256   0.813 -0.4778 -0.9838  2.2878
   66MOL   C13021060   1.618   6.402   0.892 -0.1582 -0.0266 -0.4569
   66MOL   C13121061   1.543   6.442   0.761  0.1982 -0.5595 -0.0830
   66MOL   O13221062   1.410   6.402   0.780 -0.0196 -0.1919  0.0196
   66MOL   C13321063   1.308   6.492   0.724 -0.6183  0.0990 -0.0461
   66MOL   C13421064   1.253   6.399   0.615 -0.4233 -0.6939 -0.0135
   66MOL   C13521065   1.193   6.531   0.816 -0.7351 -0.0799  0.1394
   66MOL   H13621066   1.549   6.416   0.976  2.5367  3.1961  1.3305
   66MOL   H13721067   1.626   6.293   0.889  1.1596  0.0914 -1.6944
   66MOL   H13821068   1.544   6.551   0.756 -1.5436 -0.4821  0.8057
   66MOL   H13921069   1.348   6.588   0.693  0.7987 -0.6896 -0.7049
   66MOL   H14021070   1.323   6.395   0.533 -0.5436  0.1217 -0.1606
   66MOL   H14121071   1.161   6.429   0.565 -1.0552 -4.1679 -1.1089
   66MOL   H14221072   1.230   6.298   0.650 -2.2753  0.9332  3.8138
   66MOL   H14321073   1.117   6.588   0.763 -0.3302  0.9540  0.6420
   66MOL   H14421074   1.139   6.446   0.857  1.5518 -2.0453 -0.8399
   66MOL   H14521075   1.228   6.587   0.903 -0.1946  1.7136 -1.1910
   66MOL   C14621076   1.593   6.389   0.625 -0.2567 -0.4984  0.2622
   66MOL   C14721077   1.582   6.485   0.499  0.2864 -0.2477 -0.3688
   66MOL   O14821078   1.688   6.580   0.506  0.3892 -0.1044 -0.0690
   66MOL   C14921079   1.651   6.719   0.506  0.3588  0.1054 -0.0283
   66MOL   C15021080   1.602   6.752   0.362  0.0187  0.1826  0.4230
   66MOL   C15121081   1.775   6.791   0.562 -0.0439  0.4192 -0.0271
   66MOL   H15221082   1.552   6.291   0.601 -1.3550  0.3989 -1.6570
   66MOL   H15321083   1.699   6.371   0.645  0.0586 -0.0610 -0.9630
   66MOL   H15421084   1.490   6.544   0.503  1.6919  1.9685  0.1311
   66MOL   H15521085   1.567   6.744   0.571 -2.0230  0.3542 -3.1231
   66MOL   H15621086   1.520   6.685   0.335 -0.9916  2.0728 -1.3562
   66MOL   H15721087   1.683   6.744   0.289 -0.8120  0.2070 -0.5102
   66MOL   H15821088   1.562   6.854   0.360  0.5243  0.4008  1.3613
   66MOL   H15921089   1.790   6.764   0.667  0.9392  1.8380  0.2160
   66MOL   H16021090   1.771   6.900   0.559  0.4019  0.4070 -1.1590
   66MOL   H16121091   1.862   6.756   0.507 -0.9366  0.0234 -1.1868
   66MOL   C16221092   1.574   6.401   0.371  0.0943  0.2006 -0.4364
   66MOL   C16321093   1.703   6.338   0.307  0.6885  0.3229  0.0847
   66MOL   O16421094   1.669   6.225   0.216 -0.3751  0.0473 -0.2481
   66MOL   C16521095   1.712   6.097   0.249 -0.1061  0.1748  0.2786
   66MOL   C16621096   1.700   6.024   0.121  0.0283  0.4578  0.4006
   66MOL   C16721097   1.627   6.044   0.364 -0.2554  0.0941  0.0683
   66MOL   H16821098   1.514   6.316   0.403  2.8168 -1.7141 -0.2705
   66MOL   H16921099   1.517   6.446   0.290 -1.1625 -0.8294 -0.1361
   66MOL   H17021100   1.767   6.296   0.384  0.3673  0.8967  0.6630
   66MOL   H17121101   1.818   6.109   0.272 -0.0409 -0.3307  0.2376
   66MOL   H17221102   1.742   6.090   0.045  0.2539  2.4042  2.1946
   66MOL   H17321103   1.598   6.012   0.083  0.3301 -4.0509  0.7771
   66MOL   H17421104   1.753   5.930   0.138 -0.2431  0.5653  1.8513
   66MOL   H17521105   1.625   6.102   0.456  0.7355 -1.6719  1.2248
   66MOL   H17621106   1.661   5.944   0.393 -2.4536 -1.2372 -1.7655
   66MOL   H17721107   1.521   6.050   0.340 -0.3403  0.4319  0.5194
   66MOL   C17821108   1.787   6.448   0.238  0.5848 -0.1792  0.0776
   66MOL   C17921109   1.919   6.400   0.159 -0.3178 -0.1479  0.3753
   66MOL   O18021110   1.998   6.486   0.077 -0.3411 -1.1250 -0.1201
   66MOL   C18121111   1.930   6.568   7.799 -0.6108  0.1973  1.2466
   66MOL   C18221112   1.886   6.489   7.673 -0.1112  0.3204  0.7033
   66MOL   C18321113   2.029   6.677   7.763  1.0410 -0.0569 -0.2048
   66MOL   H18421114   1.824   6.526   0.305 -0.5897 -0.4933  1.1114
   66MOL   H18521115   1.731   6.496   0.158 -0.0705 -0.1644  0.5460
   66MOL   H18621116   1.890   6.320   0.090 -0.8337 -0.0236  0.4402
   66MOL   H18721117   1.848   6.614   0.035 -0.9230  0.2386  0.7592
   66MOL   H18821118   1.818   6.538   7.604 -1.3066 -3.1685 -0.6974
   66MOL   H18921119   1.829   6.403   7.705 -0.5822 -0.3252 -1.7857
   66MOL   H19021120   1.970   6.444   7.621  0.0014  1.2453  0.0639
   66MOL   H19121121   1.987   6.746   7.690  1.0739  0.7212  0.5027
   66MOL   H19221122   2.123   6.638   7.722 -0.0583 -1.5228 -1.3809
   66MOL   H19321123   2.060   6.744   0.024  1.0996  0.8178 -0.9368
   66MOL   C19421124   2.028   6.346   0.260 -0.3767  0.1679 -0.2783
   66MOL   C19521125   2.149   6.277   0.199 -0.0309  0.2244 -0.2569
   66MOL   O19621126   2.139   6.130   0.215  0.3441  0.3593  0.2524
   66MOL   C19721127   2.215   6.059   0.116 -0.5248 -0.2625  0.0566
   66MOL   C19821128   2.275   5.940   0.190 -0.6112  0.1532  0.7940
   66MOL   C19921129   2.124   6.010   0.002  0.9918  0.1779  0.2135
   66MOL   H20021130   2.053   6.422   0.334  0.0335  0.5439 -0.8012
   66MOL   H20121131   1.986   6.273   0.330 -0.0864  0.6882  0.4447
   66MOL   H20221132   2.151   6.302   0.093  1.1673  0.3034 -0.2291
   66MOL   H20321133   2.292   6.124   0.074 -1.6068 -0.1444 -1.7934
   66MOL   H20421134   2.319   5.979   0.282 -2.4211 -0.2600  1.8478
   66MOL   H20521135   2.192   5.874   0.217 -1.5485  0.8588 -0.3306
   66MOL   H20621136   2.354   5.892   0.131 -1.1113 -0.5256  0.6631
   66MOL   H20721137   2.056   5.931   0.033  0.0612  1.0074  0.3354
   66MOL   H20821138   2.063   6.091   7.782  0.1244 -0.4696  0.2149
   66MOL   H20921139   2.189   5.971   7.745 -0.6385  1.0114 -1.6251
   66MOL   C21021140   2.283   6.335   0.247  0.6687 -0.3967 -0.1599
   66MOL   C21121141   2.309   6.476   0.195  0.0220  0.8646 -0.4159
   66MOL   O21221142   2.297   6.567   0.308  0.3933  0.2580  0.4230
   66MOL   C21321143   2.251   6.700   0.273  0.5363  0.3863 -0.0611
   66MOL   C21421144   2.105   6.703   0.304  0.1676 -0.1762 -0.1175
   66MOL   C21521145   2.343   6.806   0.355  0.4435 -0.2917 -0.0896
   66MOL   H21621146   2.373   6.282   0.217  0.6829 -1.5067  1.8011
   66MOL   H21721147   2.287   6.324   0.355 -0.8191 -0.9312 -0.1428
   66MOL   H21821148   2.225   6.508   0.134 -1.4756 -0.5532  0.8526
   66MOL   H21921149   2.254   6.720   0.166  0.6236 -0.2591 -0.1863
   66MOL   H22021150   2.041   6.637   0.246  0.6143  0.8526 -1.8228
   66MOL   H22121151   2.063   6.804   0.300  1.3049  0.4046  1.7732
   66MOL   H22221152   2.088   6.665   0.405 -1.3178 -0.6807 -0.5438
   66MOL   H22321153   2.447   6.781   0.332  0.4416  0.6223 -1.1089
   66MOL   H22421154   2.332   6.799   0.463  0.3439  0.2698 -0.0599
   66MOL   H22521155   2.314   6.906   0.324 -0.2383 -1.0523 -1.9506
   66MOL   C22621156   2.448   6.490   0.128  0.0836  0.1771 -0.5290
   66MOL   C22721157   2.448   6.467   7.799  0.4418  0.5748 -0.0249
   66MOL   O22821158   2.403   6.330   7.764 -0.1604  0.3692 -0.0138
   66MOL   C22921159   2.362   6.324   7.630  0.2820 -0.5468  0.6406
   66MOL   C23021160   2.211   6.314   7.623 -0.3613 -0.6294  0.4395
   66MOL   C23121161   2.418   6.196   7.562  0.1999 -0.1275 -0.2793
   66MOL   H23221162   2.520   6.424   0.177 -2.2572 -1.0745  1.3724
   66MOL   H23321163   2.483   6.592   0.139  0.4739 -0.0732  0.6655
   66MOL   H23421164   2.382   6.548   7.771 -1.1342 -0.6781  0.0020
   66MOL   H23521165   2.394   6.407   7.567 -0.2615 -1.9809 -1.5971
   66MOL   H23621166   2.166   6.378   7.699  1.1137  0.5926  0.3083
   66MOL   H23721167   2.177   6.328   7.521  0.8228 -2.2299 -0.2029
   66MOL   H23821168   2.177   6.217   7.660 -0.8612 -0.5773  0.1136
   66MOL   H23921169   2.527   6.195   7.558  0.1455 -0.4034 -2.2884
   66MOL   H24021170   2.384   6.191   7.458 -0.4439 -1.6173 -0.0017
   66MOL   H24121171   2.385   6.110   7.619  0.8358  0.9940  1.8592
   66MOL   C24221172   2.590   6.489   7.742 -0.4863 -0.5414  0.7987
   66MOL   C24321173   2.627   6.634   7.717 -0.0535 -0.1194  0.6957
   66MOL   O24421174   2.552   6.692   7.607  0.3448  0.1702 -0.1634
   66MOL   C24521175   2.521   6.833   7.628 -0.0456  0.2074 -0.2242
   66MOL   C24621176   2.526   6.887   7.491 -0.3053 -0.1729  0.0550
   66MOL   C24721177   2.378   6.845   7.687  0.0420 -0.0317  0.1668
   66MOL   H24821178   2.662   6.434   7.803  0.4630 -0.4907 -0.2682
   66MOL   H24921179   2.598   6.439   7.646 -0.3556 -1.3532  1.2244
   66MOL   H25021180   2.604   6.695   7.805  1.0597  2.2362 -0.6129
   66MOL   H25121181   2.594   6.889   7.686 -0.1300  0.8962 -0.7774
   66MOL   H25221182   2.459   6.833   7.424  0.0715 -2.0667  1.1757
   66MOL   H25321183   2.488   6.989   7.491  1.5456  0.5539  2.3520
   66MOL   H25421184   2.627   6.883   7.449 -0.1425  0.1614  0.4098
   66MOL   H25521185   2.306   6.828   7.607 -0.5352  2.0164  0.2133
   66MOL   H25621186   2.361   6.781   7.774  0.3579 -1.0316 -0.5033
   66MOL   H25721187   2.347   6.942   7.727 -3.6137 -0.7276 -0.8007
   66MOL   C25821188   2.782   6.657   7.698 -0.0181  0.0225  1.2308
   66MOL   C25921189   2.851   6.796   7.693  0.1536 -0.3927  0.3423
   66MOL   O26021190   2.978   6.776   7.628  0.2862 -0.4621  0.6364
   66MOL   C26121191   3.016   6.866   7.521 -0.1427  0.4185  0.0584
   66MOL   C26221192   3.172   6.875   7.513  0.5695 -0.2033 -0.0929
   66MOL   C26321193   2.960   6.794   7.395 -0.2951  0.3311  0.1703
   66MOL   H26421194   2.828   6.606   7.783 -3.3605 -2.7094  1.4824
   66MOL   H26521195   2.817   6.602   7.611  3.2363  1.9239  1.2561
   66MOL   H26621196   2.792   6.866   7.634  1.3139 -1.0356 -1.6469
   66MOL   H26721197   2.969   6.964   7.526 -3.2143 -1.0729  1.1107
   66MOL   H26821198   3.209   6.934   7.597  0.2054  1.3636 -1.0139
   66MOL   H26921199   3.204   6.926   7.422 -2.0917  3.8487  1.0876
   66MOL   H27021200   3.223   6.780   7.527 -0.0398 -0.5037  0.1027
   66MOL   H27121201   2.851   6.788   7.395 -0.4296  2.5161  1.3864
   66MOL   H27221202   2.984   6.843   7.301 -3.2678 -0.4677 -1.0596
   66MOL   H27321203   3.014   6.699   7.394  0.3619  0.7141 -0.6732
   66MOL   C27421204   2.871   6.847   0.018  0.6503 -0.2884  0.4213
   66MOL   C27521205   2.912   6.998   0.016  0.5985 -0.7853 -0.0925
   66MOL   O27621206   2.786   7.062   7.803  0.3965  0.3091  0.4605
   66MOL   C27721207   2.781   7.197   7.763 -0.2570 -0.2075 -0.0631
   66MOL   C27821208   2.731   7.285   0.058  0.2217  0.5636 -0.1954
   66MOL   C27921209   2.678   7.207   7.651  0.2512 -0.3745  0.0109
   66MOL   H28021210   2.777   6.827   0.070  0.5694 -1.6854 -0.2285
   66MOL   H28121211   2.943   6.777   0.061  3.7801  3.6986  2.0878
   66MOL   H28221212   2.986   7.007   7.757  0.7397 -3.2055 -0.2747
   66MOL   H28321213   2.874   7.237   7.723 -0.6156  0.4024 -0.2929
   66MOL   H28421214   2.709   7.380   0.010 -1.2805 -0.2225 -1.0918
   66MOL   H28521215   2.634   7.256   0.100  0.1535  0.5902 -0.3333
   66MOL   H28621216   2.791   7.304   0.147 -1.0992  0.0303  0.8408
   66MOL   H28721217   2.718   7.128   7.587  2.6398 -0.3964  1.4748
   66MOL   H28821218   2.681   7.298   7.592  3.8469 -2.0791 -2.6179
   66MOL   H28921219   2.573   7.187   7.672 -0.3990  2.4004 -0.4298
   66MOL   C29021220   2.975   7.056   0.143  0.7728 -0.2762 -0.8555
   66MOL   C29121221   3.105   6.997   0.200  0.5651 -0.7366 -0.1460
   66MOL   O29221222   3.183   6.937   0.093  0.1365 -0.4956 -0.5674
   66MOL   C29321223   3.281   6.841   0.139 -0.5538 -0.1648  0.9693
   66MOL   C29421224   3.414   6.877   0.079  0.7071 -0.4733 -0.4355
   66MOL   C29521225   3.232   6.705   0.086  0.3680  0.5075 -0.3610
   66MOL   H29621226   2.906   7.059   0.228 -0.0134  1.5373 -1.5364
   66MOL   H29721227   2.996   7.160   0.118  0.1776  0.1441  0.3280
   66MOL   H29821228   3.078   6.924   0.277 -1.0863 -0.1151 -0.1180
   66MOL   H29921229   3.290   6.838   0.247  3.4134 -1.9523  0.6630
   66MOL   H30021230   3.446   6.978   0.104  0.9549 -0.6880  0.1087
   66MOL   H30121231   3.482   6.805   0.124 -2.1959 -2.6282  0.6871
   66MOL   H30221232   3.408   6.872   7.791 -0.6117 -1.0237 -0.3501
   66MOL   H30321233   3.302   6.637   0.133 -1.1399  0.1685  1.4512
   66MOL   H30421234   3.131   6.685   0.122  0.0890 -1.3389 -2.0518
   66MOL   H30521235   3.240   6.706   7.797  3.0072 -0.2207 -0.2097
   66MOL   C30621236   3.188   7.103   0.273  0.2702 -0.8612 -0.6053
   66MOL   C30721237   3.132   7.149   0.407 -0.3721  0.5513 -0.5925
   66MOL   O30821238   3.135   7.043   0.499 -0.2450  0.1234 -0.1335
   66MOL   C30921239   3.127   7.100   0.631 -0.3779 -0.5893 -0.4226
   66MOL   C31021240   2.981   7.097   0.685  0.1378  0.1675 -0.5057
   66MOL   C31121241   3.200   6.999   0.717  0.6147 -0.1585 -0.0678
   66MOL   H31221242   3.204   7.190   0.210  0.4643  0.9805  1.8895
   66MOL   H31321243   3.288   7.061   0.285  0.0370 -1.7193 -1.6201
   66MOL   H31421244   3.187   7.238   0.439 -0.6771  0.0814  1.3169
   66MOL   H31521245   3.186   7.192   0.634 -0.2338 -0.6193 -2.0442
   66MOL   H31621246   2.916   7.165   0.630  1.1679  0.7634 -1.0034
   66MOL   H31721247   2.978   7.118   0.792  2.2176  1.8524 -0.7403
   66MOL   H31821248   2.937   6.999   0.665  1.8339 -0.5500 -0.7885
   66MOL   H31921249   3.301   6.994   0.677  0.8805 -0.6057  0.6426
   66MOL   H32021250   3.158   6.899   0.706 -3.0135  1.2204  0.6416
   66MOL   H32121251   3.199   7.033   0.820 -2.2245  0.3416 -0.2142
   66MOL   H32221252   3.030   7.186   0.400 -1.3108 -1.9245 -0.2942
   67MOL     C121253   2.908   5.287   4.302  0.2468  0.2231 -0.0716
   67MOL     C221254   2.792   5.390   4.306  0.0388  0.3543 -0.2041
   67MOL     O321255   2.801   5.477   4.410  0.0609  0.2414  0.3189
   67MOL     C421256   2.792   5.435   4.543  0.2415 -0.1217 -0.1060
   67MOL     C521257   2.654   5.455   4.616  0.2736  0.6749 -0.0796
   67MOL     C621258   2.890   5.520   4.621 -0.4272 -0.3291 -0.2212
   67MOL     H721259   2.932   5.229   4.391  0.1897 -1.1926 -0.9640
   67MOL     H821260   2.890   5.212   4.226  0.2592  0.0583  0.0895
   67MOL     H921261   2.698   5.339   4.325  0.6668 -0.1480  1.7088
   67MOL    H1021262   2.817   5.329   4.547  0.0460 -0.2495 -2.1630
   67MOL    H1121263   2.666   5.432   4.722  1.9033 -2.8825 -0.9562
   67MOL    H1221264   2.627   5.560   4.612 -0.9332  0.4456  1.5578
   67MOL    H1321265   2.572   5.396   4.576 -1.0175  2.5858 -0.3016
   67MOL    H1421266   2.874   5.521   4.729 -2.8403  1.2615 -0.5669
   67MOL    H1521267   2.994   5.485   4.623  0.2908  1.7335  1.0692
   67MOL    H1621268   2.906   5.625   4.595  1.1823 -0.0488  1.7058
   67MOL    H1721269   2.997   5.337   4.261  0.3793  0.9658  1.1071
   67MOL    C1821270   2.797   5.469   4.177 -0.1330  0.1510  0.4328
   67MOL    C1921271   2.692   5.585   4.169 -0.0716 -1.3666 -0.6174
   67MOL    O2021272   2.568   5.530   4.174  0.8377  0.0409  0.1183
   67MOL    C2121273   2.478   5.544   4.276 -0.5200 -0.3955  0.4339
   67MOL    C2221274   2.376   5.433   4.267  0.2731 -0.7167 -0.3618
   67MOL    C2321275   2.411   5.676   4.256  0.1274  0.5014 -0.0689
   67MOL    H2421276   2.898   5.509   4.165 -0.0780 -0.3080 -0.6502
   67MOL    H2521277   2.791   5.394   4.098 -0.5015  1.3699 -0.7168
   67MOL    H2621278   2.708   5.652   4.254 -0.6541  0.0183 -1.5823
   67MOL    H2721279   2.525   5.535   4.373  1.3008  3.1497 -0.0316
   67MOL    H2821280   2.424   5.336   4.280  0.7315 -0.5196 -0.5892
   67MOL    H2921281   2.321   5.446   4.361  0.8444 -0.9623  0.0073
   67MOL    H3021282   2.315   5.436   4.177 -0.3246  0.2554  0.0640
   67MOL    H3121283   2.347   5.700   4.341 -0.3504 -1.9715  0.3100
   67MOL    H3221284   2.345   5.681   4.169 -0.3737 -1.3660  0.1904
   67MOL    H3321285   2.476   5.763   4.246 -0.4888  1.2162  1.8781
   67MOL    C3421286   2.700   5.675   4.048  0.2930  0.3216 -0.9893
   67MOL    C3521287   2.823   5.767   4.037 -0.0895 -0.3564 -0.0039
   67MOL    O3621288   2.897   5.719   3.929  0.1129 -0.3433 -0.5581
   67MOL    C3721289   3.045   5.716   3.938  0.0755 -1.1162  0.3681
   67MOL    C3821290   3.087   5.574   3.934 -0.7627  0.1935  0.1609
   67MOL    C3921291   3.109   5.785   3.821 -0.5581  0.2494 -0.5434
   67MOL    H4021292   2.604   5.727   4.048 -0.5288 -1.1734 -0.2342
   67MOL    H4121293   2.694   5.602   3.966 -0.9858  1.8162 -2.2579
   67MOL    H4221294   2.866   5.778   4.136  0.2796  2.4861 -0.4334
   67MOL    H4321295   3.084   5.770   4.024  2.7438 -0.5448 -1.1652
   67MOL    H4421296   3.195   5.570   3.952 -0.5179  1.8667 -0.8771
   67MOL    H4521297   3.065   5.512   3.847  1.1198  0.4521 -0.5261
   67MOL    H4621298   3.042   5.528   4.022  1.1921  0.5768  1.4235
   67MOL    H4721299   3.218   5.775   3.819 -0.6407 -0.6978 -0.1361
   67MOL    H4821300   3.093   5.717   3.738  0.5901 -0.6067 -0.0790
   67MOL    H4921301   3.078   5.886   3.793  1.9373  0.3393 -3.1820
   67MOL    C5021302   2.790   5.911   4.001 -0.2300  0.2559  0.1165
   67MOL    C5121303   2.686   5.992   4.091 -0.3293 -0.4081  0.4224
   67MOL    O5221304   2.635   6.103   4.013 -0.1289 -0.1941  0.5822
   67MOL    C5321305   2.495   6.088   3.983 -0.1081 -0.2224 -0.7809
   67MOL    C5421306   2.469   5.990   3.868 -0.0607  0.1391  0.1474
   67MOL    C5521307   2.427   6.220   3.952 -0.2990 -0.1149  0.3292
   67MOL    H5621308   2.886   5.961   3.994 -0.7890  1.5098  1.1354
   67MOL    H5721309   2.752   5.910   3.899  0.4348  1.7837 -0.1647
   67MOL    H5821310   2.613   5.925   4.137 -0.7987 -0.8054 -0.8868
   67MOL    H5921311   2.444   6.050   4.072 -1.2321 -1.1957 -1.8143
   67MOL    H6021312   2.513   5.894   3.895  0.2119  0.8706  2.3453
   67MOL    H6121313   2.511   6.023   3.772 -0.6358 -1.2438 -0.5935
   67MOL    H6221314   2.365   5.958   3.855  0.6581 -2.4226  0.4261
   67MOL    H6321315   2.453   6.295   4.027  1.7773 -0.4272 -0.0317
   67MOL    H6421316   2.319   6.206   3.948 -0.0092 -2.1126 -1.3811
   67MOL    H6521317   2.445   6.253   3.850 -0.5957  1.7870  0.8710
   67MOL    C6621318   2.765   6.062   4.211  0.1265 -0.0551  0.4158
   67MOL    C6721319   2.672   6.103   4.329 -0.0073 -0.0991  0.7573
   67MOL    O6821320   2.731   6.204   4.402 -0.1150  0.9519  0.6982
   67MOL    C6921321   2.703   6.349   4.375  0.5405  0.6532 -0.1531
   67MOL    C7021322   2.657   6.426   4.503 -0.1143 -0.1003 -0.4828
   67MOL    C7121323   2.844   6.398   4.344 -0.0638 -0.2230  0.2650
   67MOL    H7221324   2.850   6.003   4.245  1.1807  0.4524 -1.2673
   67MOL    H7321325   2.801   6.155   4.167 -0.5912 -0.5574 -1.2862
   67MOL    H7421326   2.573   6.132   4.294 -0.7156 -1.0137  1.9787
   67MOL    H7521327   2.628   6.370   4.298 -0.7156 -3.6726 -0.2342
   67MOL    H7621328   2.555   6.398   4.528  0.1486 -0.3751  0.2705
   67MOL    H7721329   2.726   6.422   4.587 -0.8390  0.3940  0.1461
   67MOL    H7821330   2.647   6.533   4.482  1.3936  0.4216  1.3906
   67MOL    H7921331   2.868   6.354   4.247  2.5087  0.8347  0.3941
   67MOL    H8021332   2.921   6.356   4.407 -0.7848  1.0867  2.0645
   67MOL    H8121333   2.848   6.507   4.348  1.0261 -0.2726  0.5440
   67MOL    C8221334   2.646   5.988   4.432 -0.3424  0.4813 -0.4642
   67MOL    C8321335   2.512   6.011   4.505 -0.2415 -0.2563 -0.2997
   67MOL    O8421336   2.406   6.015   4.411  0.2470 -0.3448  0.1958
   67MOL    C8521337   2.288   6.085   4.444  0.6179 -0.3662 -0.0075
   67MOL    C8621338   2.176   6.004   4.386  0.5235  0.1623 -0.0361
   67MOL    C8721339   2.295   6.225   4.378  0.4878 -0.0106 -0.2847
   67MOL    H8821340   2.622   5.893   4.385  1.5415 -0.8480  1.1561
   67MOL    H8921341   2.734   5.971   4.494 -0.4146  1.5402 -0.0638
   67MOL    H9021342   2.530   6.102   4.562  0.6782 -0.3129 -0.5023
   67MOL    H9121343   2.278   6.086   4.552  1.8826  1.8170  0.1354
   67MOL    H9221344   2.085   6.026   4.441 -1.3666  0.1188 -3.0448
   67MOL    H9321345   2.163   6.008   4.277  0.0849 -2.6951 -0.1293
   67MOL    H9421346   2.198   5.898   4.396 -1.6672 -0.3555 -0.5014
   67MOL    H9521347   2.262   6.219   4.275 -2.8014 -2.9755  0.8568
   67MOL    H9621348   2.228   6.299   4.422  0.0206 -0.5980 -0.0036
   67MOL    H9721349   2.400   6.254   4.376  0.5625 -0.3575 -2.6196
   67MOL    C9821350   2.488   5.910   4.612 -0.3744  0.3995 -0.2079
   67MOL    C9921351   2.577   5.926   4.739 -0.3268 -0.5013 -0.5848
   67MOL   O10021352   2.703   5.876   4.712  0.0421  0.3983  0.0800
   67MOL   C10121353   2.817   5.947   4.763  0.1928 -0.1403 -0.0861
   67MOL   C10221354   2.937   5.878   4.710  0.1119  0.1087 -0.1854
   67MOL   C10321355   2.828   5.960   4.912  0.3170 -0.5535  0.7174
   67MOL   H10421356   2.382   5.914   4.640 -0.4012 -1.1871 -0.0703
   67MOL   H10521357   2.498   5.813   4.564 -1.2912  2.0740 -4.0172
   67MOL   H10621358   2.579   6.031   4.767 -1.2827 -0.9028  1.0725
   67MOL   H10721359   2.823   6.047   4.721  1.6202 -0.3238 -0.3436
   67MOL   H10821360   2.940   5.771   4.733  1.3464 -0.6379 -3.5518
   67MOL   H10921361   3.028   5.924   4.748 -1.7538  4.0851 -0.2754
   67MOL   H11021362   2.943   5.891   4.602  0.8521 -0.1408 -0.1737
   67MOL   H11121363   2.743   6.019   4.945  1.7323  2.2995 -0.5036
   67MOL   H11221364   2.918   6.019   4.929 -0.7374  1.5402 -0.6774
   67MOL   H11321365   2.837   5.862   4.960  0.8794 -1.3718 -1.0159
   67MOL   C11421366   2.519   5.836   4.850 -0.1532 -0.4416  0.2568
   67MOL   C11521367   2.402   5.891   4.926 -0.1996 -0.5991 -0.2054
   67MOL   O11621368   2.354   5.782   5.004 -0.4896 -0.2431  0.1180
   67MOL   C11721369   2.249   5.706   4.944 -0.3015  0.4297 -0.8889
   67MOL   C11821370   2.114   5.785   4.953 -0.2710 -0.0213 -0.2203
   67MOL   C11921371   2.257   5.574   5.016 -0.4635 -0.0793  0.1438
   67MOL   H12021372   2.596   5.799   4.917  2.4020  0.3148 -2.1889
   67MOL   H12121373   2.493   5.745   4.796 -1.7459  0.0199  0.2263
   67MOL   H12221374   2.329   5.934   4.858 -0.4724  1.1461  1.1529
   67MOL   H12321375   2.274   5.694   4.839  1.8111  0.9275 -0.4512
   67MOL   H12421376   2.097   5.863   4.878  0.0873  1.6180  1.3687
   67MOL   H12521377   2.129   5.861   5.030  2.0725  3.2290 -3.6610
   67MOL   H12621378   2.028   5.726   4.982  0.2848 -0.3987  0.6707
   67MOL   H12721379   2.232   5.585   5.121  1.3832 -0.2219  0.6239
   67MOL   H12821380   2.351   5.522   4.998 -0.1379 -0.2788  2.2867
   67MOL   H12921381   2.176   5.509   4.983 -0.6849  0.6023 -0.6636
   67MOL   C13021382   2.454   5.999   5.025  0.2998 -0.2988 -0.0197
   67MOL   C13121383   2.359   6.120   5.031  0.1629  0.1684 -0.1088
   67MOL   O13221384   2.370   6.185   4.902  0.1566 -0.1505  0.3558
   67MOL   C13321385   2.286   6.290   4.851 -0.0766 -0.2583 -0.6028
   67MOL   C13421386   2.349   6.344   4.718 -0.3372  0.2243 -0.1989
   67MOL   C13521387   2.141   6.234   4.817  0.6933  0.4414 -0.3891
   67MOL   H13621388   2.553   6.032   4.992  1.1466 -2.8526 -0.1999
   67MOL   H13721389   2.477   5.950   5.120 -0.7793  1.4566  1.1676
   67MOL   H13821390   2.255   6.087   5.023 -0.2002  1.8325 -3.0723
   67MOL   H13921391   2.275   6.369   4.925 -0.3240  2.2416 -3.1881
   67MOL   H14021392   2.444   6.397   4.728  0.1682 -0.5286 -0.9619
   67MOL   H14121393   2.283   6.423   4.682  0.4971  0.9099 -0.2489
   67MOL   H14221394   2.359   6.276   4.634  0.4388  0.3271 -0.1973
   67MOL   H14321395   2.099   6.207   4.914  0.7453  1.1142 -0.1754
   67MOL   H14421396   2.081   6.314   4.775  1.1346  0.8821 -0.1780
   67MOL   H14521397   2.146   6.140   4.762 -0.9601 -1.6002  2.7660
   67MOL   C14621398   2.380   6.201   5.156  0.0377  0.1664  0.0434
   67MOL   C14721399   2.523   6.258   5.195  0.5677  0.3779 -0.4234
   67MOL   O14821400   2.555   6.374   5.116  0.3464  0.1738  0.7145
   67MOL   C14921401   2.685   6.383   5.064  0.2737 -0.8780  0.5377
   67MOL   C15021402   2.698   6.533   5.071 -0.6393 -0.0387 -0.0707
   67MOL   C15121403   2.703   6.328   4.918 -0.0322 -0.2026  0.1112
   67MOL   H15221404   2.347   6.131   5.233 -2.8647 -1.0468 -2.1747
   67MOL   H15321405   2.308   6.283   5.153 -0.5497 -0.2800  1.5036
   67MOL   H15421406   2.604   6.187   5.177  1.9317  1.9087 -0.3537
   67MOL   H15521407   2.750   6.340   5.140  0.7375  0.6374  1.0235
   67MOL   H15621408   2.806   6.549   5.068 -0.6299 -0.1443 -0.2878
   67MOL   H15721409   2.646   6.578   5.155  2.2098 -1.8538  2.7795
   67MOL   H15821410   2.663   6.588   4.983  0.9459  0.9360 -0.1180
   67MOL   H15921411   2.661   6.385   4.836  1.5520  0.8921  0.0530
   67MOL   H16021412   2.661   6.228   4.903  1.3369 -0.5346 -1.6936
   67MOL   H16121413   2.810   6.318   4.897 -0.0622  2.1491 -1.3310
   67MOL   C16221414   2.543   6.296   5.344  0.1157  0.0196 -0.4294
   67MOL   C16321415   2.577   6.181   5.443  0.1871  0.5650  0.2121
   67MOL   O16421416   2.713   6.149   5.426 -0.0233 -0.3065 -0.5070
   67MOL   C16521417   2.746   6.017   5.376  0.8334  0.2768 -0.5171
   67MOL   C16621418   2.759   5.925   5.493 -0.0591  0.7182 -0.1021
   67MOL   C16721419   2.869   6.062   5.297  0.6888  0.2594  0.4538
   67MOL   H16821420   2.620   6.372   5.350 -0.3725  0.3427  2.4269
   67MOL   H16921421   2.454   6.345   5.383 -0.2816 -1.0160 -0.0215
   67MOL   H17021422   2.508   6.101   5.414  0.3451  0.5897 -0.2336
   67MOL   H17121423   2.672   5.966   5.314 -2.1452  0.8186  2.4102
   67MOL   H17221424   2.786   5.821   5.476 -0.6858  0.4192  0.7071
   67MOL   H17321425   2.671   5.927   5.557 -0.0440  1.8277 -0.1153
   67MOL   H17421426   2.841   5.951   5.559  0.3308 -2.2238  0.6566
   67MOL   H17521427   2.917   6.126   5.371 -0.1189  0.2488  0.9953
   67MOL   H17621428   2.869   6.112   5.200 -0.0454 -1.3225 -0.3845
   67MOL   H17721429   2.929   5.975   5.269 -1.9966 -1.5281  0.0261
   67MOL   C17821430   2.547   6.223   5.590  0.3420  0.3664  0.0237
   67MOL   C17921431   2.396   6.220   5.632  0.3796 -0.2532  0.0954
   67MOL   O18021432   2.326   6.340   5.597 -0.4918 -0.3390  0.2330
   67MOL   C18121433   2.263   6.405   5.710  0.0878 -0.0833 -0.6856
   67MOL   C18221434   2.180   6.515   5.640  0.1213  0.3561 -0.1407
   67MOL   C18321435   2.371   6.466   5.804  0.2232 -0.8036 -0.1987
   67MOL   H18421436   2.587   6.319   5.622 -0.5139  0.2041  1.6482
   67MOL   H18521437   2.593   6.146   5.654 -0.3114  0.5607  0.7345
   67MOL   H18621438   2.385   6.217   5.741 -2.4433  1.0543 -0.0848
   67MOL   H18721439   2.196   6.335   5.759 -0.4879 -0.4357 -1.9860
   67MOL   H18821440   2.235   6.597   5.593 -0.2944  0.7040 -0.0242
   67MOL   H18921441   2.099   6.549   5.705 -0.7229 -0.5251 -0.7297
   67MOL   H19021442   2.120   6.470   5.562 -0.1487 -1.5700  1.1369
   67MOL   H19121443   2.409   6.559   5.763 -1.9040  0.1712 -0.0541
   67MOL   H19221444   2.457   6.399   5.813 -0.7330 -1.7862  2.0256
   67MOL   H19321445   2.327   6.467   5.904 -2.7485 -3.7568 -1.3648
   67MOL   C19421446   2.316   6.092   5.595  0.8917  0.1441  0.6961
   67MOL   C19521447   2.364   5.954   5.633 -0.1974 -0.3749  0.2320
   67MOL   O19621448   2.272   5.863   5.565 -0.4362  0.0352  0.0768
   67MOL   C19721449   2.342   5.765   5.480 -0.4592 -0.2761  0.2814
   67MOL   C19821450   2.305   5.616   5.511 -0.5044  0.1045 -0.0130
   67MOL   C19921451   2.299   5.798   5.338 -0.2414 -0.0777 -0.8778
   67MOL   H20021452   2.220   6.106   5.644  0.7622 -0.9549  0.7708
   67MOL   H20121453   2.295   6.089   5.489  2.2782 -2.1475  0.4391
   67MOL   H20221454   2.471   5.954   5.613  0.1811  1.5175  2.0011
   67MOL   H20321455   2.450   5.771   5.495 -0.7397  0.3404  2.2464
   67MOL   H20421456   2.341   5.572   5.604 -0.2294 -0.4557 -0.3859
   67MOL   H20521457   2.196   5.613   5.518 -0.5897  2.2720  0.0140
   67MOL   H20621458   2.329   5.550   5.428  1.7545  0.6560  0.1641
   67MOL   H20721459   2.326   5.900   5.309  2.0494 -0.4522 -0.1566
   67MOL   H20821460   2.353   5.729   5.273  0.4929 -0.7531  0.4239
   67MOL   H20921461   2.191   5.792   5.332 -0.3013 -2.0475  1.4617
   67MOL   C21021462   2.362   5.922   5.787 -0.5242  0.1969  0.3301
   67MOL   C21121463   2.425   5.788   5.826 -0.2051 -0.4394  0.1394
   67MOL   O21221464   2.564   5.767   5.778 -0.1423 -0.6144  0.7681
   67MOL   C21321465   2.631   5.643   5.808  0.5769 -0.3091 -0.1619
   67MOL   C21421466   2.640   5.559   5.684  0.4673 -0.2552 -0.6113
   67MOL   C21521467   2.761   5.695   5.861 -0.6203 -0.1479  0.1731
   67MOL   H21621468   2.258   5.913   5.818  0.1028 -1.8867  1.9220
   67MOL   H21721469   2.396   6.002   5.854 -0.2624  0.6784 -0.3727
   67MOL   H21821470   2.364   5.713   5.775 -0.5546  0.0725 -0.2042
   67MOL   H21921471   2.576   5.585   5.882 -0.1022  0.8126  0.2251
   67MOL   H22021472   2.705   5.473   5.700 -0.0277 -0.3497  0.9481
   67MOL   H22121473   2.653   5.620   5.594 -1.8400 -0.2590 -0.9891
   67MOL   H22221474   2.544   5.516   5.656 -0.7289  1.1517  1.2257
   67MOL   H22321475   2.747   5.760   5.948  1.4904 -0.3378  0.6647
   67MOL   H22421476   2.806   5.757   5.784 -2.5083  0.2973 -0.5943
   67MOL   H22521477   2.822   5.613   5.899 -1.3363 -0.5406  0.4986
   67MOL   C22621478   2.429   5.765   5.977 -0.0716 -0.1658  0.3068
   67MOL   C22721479   2.379   5.630   6.028 -0.9096  0.3230  0.1614
   67MOL   O22821480   2.243   5.643   6.082 -0.1011  0.2831 -0.0082
   67MOL   C22921481   2.145   5.605   5.984  0.6238  0.5549 -0.7964
   67MOL   C23021482   2.004   5.656   6.030  0.0445  0.0777 -0.3683
   67MOL   C23121483   2.154   5.453   5.980 -0.3003  0.0127 -0.2045
   67MOL   H23221484   2.375   5.829   6.047  1.6540  1.1575  0.4535
   67MOL   H23321485   2.530   5.778   6.017  1.1178  0.9056 -2.8739
   67MOL   H23421486   2.385   5.551   5.953  1.0784 -1.6849  2.3828
   67MOL   H23521487   2.167   5.651   5.888  0.1430 -2.5468 -2.4382
   67MOL   H23621488   1.933   5.629   5.952 -1.3901  1.9246  0.2445
   67MOL   H23721489   1.972   5.606   6.122 -0.4432  0.7853 -0.1497
   67MOL   H23821490   2.013   5.764   6.037 -0.8361  0.2390 -1.6613
   67MOL   H23921491   2.157   5.418   6.083 -1.9674  1.0319  0.2144
   67MOL   H24021492   2.233   5.417   5.913 -0.0905 -1.4958  0.8319
   67MOL   H24121493   2.067   5.412   5.929 -0.9156 -1.2926  1.8437
   67MOL   C24221494   2.461   5.580   6.143  0.0928  0.2975 -0.0620
   67MOL   C24321495   2.473   5.662   6.277  0.7248  0.5320  0.0406
   67MOL   O24421496   2.583   5.605   6.346 -0.4764 -0.0297  0.0075
   67MOL   C24521497   2.696   5.685   6.381  0.8562  0.1774 -1.0130
   67MOL   C24621498   2.738   5.625   6.511 -0.6028  0.3837 -0.0239
   67MOL   C24721499   2.802   5.676   6.258  0.4726 -0.0220  0.1977
   67MOL   H24821500   2.420   5.483   6.173 -0.6540  0.0351 -1.8550
   67MOL   H24921501   2.553   5.542   6.098 -0.6301  1.2250 -2.3884
   67MOL   H25021502   2.491   5.767   6.258  1.8999  0.2061 -0.6657
   67MOL   H25121503   2.670   5.790   6.395  1.1782  0.2656 -1.0752
   67MOL   H25221504   2.839   5.660   6.533 -0.3693 -0.3944  0.1540
   67MOL   H25321505   2.667   5.662   6.585 -2.6931  2.0629 -2.7561
   67MOL   H25421506   2.740   5.516   6.510 -0.0612  0.3933 -0.0626
   67MOL   H25521507   2.746   5.717   6.174 -0.5078 -0.4890  0.6104
   67MOL   H25621508   2.897   5.727   6.271  0.6400  0.1434 -1.4697
   67MOL   H25721509   2.810   5.571   6.228 -1.6633 -0.6468  1.7113
   67MOL   C25821510   2.350   5.641   6.368  0.4745  0.0189 -0.2294
   67MOL   C25921511   2.344   5.732   6.492 -0.8960  0.1902  0.9792
   67MOL   O26021512   2.228   5.701   6.569  0.7520  0.5888 -0.4625
   67MOL   C26121513   2.264   5.592   6.659 -0.0333  0.4335  0.2897
   67MOL   C26221514   2.299   5.666   6.785 -0.3789  0.2974  0.8412
   67MOL   C26321515   2.143   5.506   6.682 -0.6121 -0.4590 -0.3635
   67MOL   H26421516   2.256   5.655   6.314  0.9424  0.8058 -0.8686
   67MOL   H26521517   2.347   5.534   6.388  2.5145 -0.1901 -0.8906
   67MOL   H26621518   2.440   5.721   6.542  0.0658 -1.2290 -1.0953
   67MOL   H26721519   2.334   5.520   6.616 -0.4612 -0.4734  1.1145
   67MOL   H26821520   2.221   5.735   6.817 -0.3807  1.5973 -1.8206
   67MOL   H26921521   2.391   5.724   6.787  0.3456 -0.8834  2.0025
   67MOL   H27021522   2.319   5.588   6.858  2.5933  1.0250  0.8795
   67MOL   H27121523   2.176   5.417   6.734 -1.2216 -0.9304 -0.7702
   67MOL   H27221524   2.072   5.568   6.737  1.0962  1.6084 -0.4324
   67MOL   H27321525   2.106   5.463   6.589  1.0459 -1.2007 -0.6861
   67MOL   C27421526   2.336   5.880   6.470  0.6837  0.2308 -0.5452
   67MOL   C27521527   2.223   5.935   6.373 -0.2532 -0.6508  0.0976
   67MOL   O27621528   2.102   5.943   6.461 -0.5323 -0.2520  0.8216
   67MOL   C27721529   1.998   5.848   6.436  0.3687  1.0434 -0.0801
   67MOL   C27821530   1.903   5.913   6.325  0.6659 -0.0569 -0.1753
   67MOL   C27921531   1.901   5.820   6.552  0.4902  0.1922  0.2096
   67MOL   H28021532   2.336   5.921   6.570  0.1850  2.2768 -1.3597
   67MOL   H28121533   2.429   5.910   6.421  0.3712 -1.1759 -2.0664
   67MOL   H28221534   2.211   5.863   6.292  1.1825 -0.2977 -0.4381
   67MOL   H28321535   2.046   5.760   6.394 -0.0222 -0.2321  2.0466
   67MOL   H28421536   1.970   5.924   6.240  0.6510  1.0675 -0.0469
   67MOL   H28521537   1.820   5.850   6.295  0.0663  0.3363  0.6562
   67MOL   H28621538   1.860   6.008   6.356 -0.9212 -0.4460 -1.1358
   67MOL   H28721539   1.814   5.763   6.519 -1.3251  2.0627  1.6282
   67MOL   H28821540   1.859   5.913   6.590  0.4855  1.0528 -1.8396
   67MOL   H28921541   1.941   5.750   6.626 -0.0399 -0.5790 -0.2306
   67MOL   C29021542   2.259   6.076   6.328  0.0656 -0.2340  0.7541
   67MOL   C29121543   2.162   6.151   6.225 -0.4610 -0.3382 -0.2268
   67MOL   O29221544   2.195   6.291   6.207 -0.4891  0.1654 -0.0873
   67MOL   C29321545   2.162   6.377   6.313 -0.0383  0.0812  0.0176
   67MOL   C29421546   2.018   6.425   6.290  0.2051 -0.0508  0.5769
   67MOL   C29521547   2.265   6.489   6.316 -0.2864 -0.5261  0.7657
   67MOL   H29621548   2.356   6.072   6.277 -2.0471 -1.2045 -3.4932
   67MOL   H29721549   2.267   6.128   6.423  0.7100 -0.2972  0.7358
   67MOL   H29821550   2.068   6.144   6.281  0.3862  0.1442  1.2871
   67MOL   H29921551   2.162   6.326   6.410  1.7043 -2.4778 -1.2642
   67MOL   H30021552   2.014   6.453   6.184  1.7649 -3.2163 -0.3761
   67MOL   H30121553   1.960   6.336   6.311  0.1175  0.0717  0.8631
   67MOL   H30221554   1.974   6.495   6.361 -1.0212 -0.6452  0.4174
   67MOL   H30321555   2.236   6.553   6.399 -1.7878 -1.3049  0.8773
   67MOL   H30421556   2.365   6.452   6.335  0.9561  1.9558 -0.7529
   67MOL   H30521557   2.270   6.543   6.222  1.7379 -0.4377  0.9034
   67MOL   C30621558   2.152   6.093   6.089 -0.1646 -0.1615 -0.8089
   67MOL   C30721559   2.019   6.110   6.027  0.2734  0.3832  1.1530
   67MOL   O30821560   2.012   6.047   5.897  0.6045 -0.1124  0.1114
   67MOL   C30921561   1.878   6.054   5.836 -0.2210 -0.5721 -0.2985
   67MOL   C31021562   1.883   6.029   5.688 -0.3544 -0.4333 -0.2933
   67MOL   C31121563   1.788   5.948   5.905 -0.1707 -0.2645  0.5224
   67MOL   H31221564   2.173   5.987   6.083  0.1237 -0.1723  0.4173
   67MOL   H31321565   2.230   6.128   6.021  2.6028 -0.9880  1.8483
   67MOL   H31421566   1.941   6.082   6.098 -0.8732  0.1669 -0.1848
   67MOL   H31521567   1.833   6.151   5.855 -2.4294 -1.7675  0.8075
   67MOL   H31621568   1.785   6.013   5.643 -0.4801  3.8072 -1.7792
   67MOL   H31721569   1.928   5.931   5.669  0.8411  0.1212 -0.3769
   67MOL   H31821570   1.936   6.112   5.641 -0.4668 -0.0207  0.2967
   67MOL   H31921571   1.834   5.851   5.887 -1.4458 -0.7543 -0.1754
   67MOL   H32021572   1.692   5.941   5.854 -0.2768  0.0569  0.6733
   67MOL   H32121573   1.768   5.962   6.012 -2.8121 -0.8780  0.1455
   67MOL   H32221574   2.015   6.218   6.015  1.6998  0.2047 -1.3204
   68MOL     C121575   3.185   7.233   6.750  0.9155  0.1979 -0.0217
   68MOL     C221576   3.064   7.303   6.692  0.4659 -0.3415  0.4925
   68MOL     O321577   3.014   7.219   6.587 -0.3716  0.4272 -0.1913
   68MOL     C421578   3.039   7.255   6.453  0.2086  0.0137 -0.5845
   68MOL     C521579   2.962   7.381   6.419  0.4264  0.3315  0.5364
   68MOL     C621580   3.016   7.140   6.359 -0.0402  0.4155  0.8462
   68MOL     H721581   3.264   7.257   6.679  0.4878  0.1563 -0.5082
   68MOL     H821582   3.216   7.286   6.841 -1.4775  0.4358  0.6995
   68MOL     H921583   3.095   7.402   6.659  2.5262 -0.6830  1.3245
   68MOL    H1021584   3.141   7.291   6.440  0.8015 -1.4364 -0.0125
   68MOL    H1121585   2.994   7.469   6.475 -0.4656  1.2814 -0.4147
   68MOL    H1221586   2.976   7.421   6.318  2.1401  0.0808  0.6710
   68MOL    H1321587   2.855   7.368   6.436  0.3090  2.8152  2.0592
   68MOL    H1421588   3.064   7.148   6.261  0.9072  0.2752  1.2892
   68MOL    H1521589   3.079   7.058   6.396  0.9582  0.7306 -0.1245
   68MOL    H1621590   2.915   7.105   6.339  0.7612  0.2893 -3.3855
   68MOL    H1721591   3.172   7.126   6.767 -0.3180  0.5879  1.6989
   68MOL    C1821592   2.953   7.306   6.804 -0.7399  0.4160  0.4245
   68MOL    C1921593   2.833   7.404   6.775  0.6899  0.2104  0.5763
   68MOL    O2021594   2.847   7.521   6.856  0.0248 -0.2151 -0.4155
   68MOL    C2121595   2.952   7.614   6.828 -0.3506 -0.2877 -0.2020
   68MOL    C2221596   2.985   7.681   6.960  0.1083  0.1506  0.2665
   68MOL    C2321597   2.895   7.706   6.721 -0.5201 -0.4589  0.5336
   68MOL    H2421598   2.918   7.204   6.819 -0.5865  0.0141 -1.7267
   68MOL    H2521599   2.998   7.338   6.898 -0.5052  0.0044  0.4517
   68MOL    H2621600   2.819   7.423   6.669  0.4745  1.1224  0.7613
   68MOL    H2721601   3.044   7.566   6.797  0.0777  1.0140 -0.9752
   68MOL    H2821602   2.997   7.601   7.033 -0.8258  0.5665  0.8867
   68MOL    H2921603   3.078   7.738   6.954  0.3432 -0.1425  1.0754
   68MOL    H3021604   2.914   7.756   6.997 -0.1782  0.8449 -1.6202
   68MOL    H3121605   2.875   7.649   6.630 -2.3883  0.2321  0.5103
   68MOL    H3221606   2.973   7.776   6.691 -2.1276  0.5248 -1.4316
   68MOL    H3321607   2.814   7.772   6.750  0.0446  1.7670 -2.7105
   68MOL    C3421608   2.693   7.336   6.830  0.4766  1.2228  0.2056
   68MOL    C3521609   2.563   7.404   6.785  0.0553 -0.8833 -0.7714
   68MOL    O3621610   2.526   7.378   6.650 -0.5324  0.0669  0.0165
   68MOL    C3721611   2.445   7.462   6.585 -0.0888 -0.2523  0.0386
   68MOL    C3821612   2.522   7.591   6.547  0.1202 -0.6354  0.1337
   68MOL    C3921613   2.394   7.381   6.465  0.4371  0.5488  0.0176
   68MOL    H4021614   2.701   7.325   6.938  0.2654 -1.7262 -0.0574
   68MOL    H4121615   2.690   7.232   6.801  0.6861  0.4442  2.8111
   68MOL    H4221616   2.590   7.509   6.791 -1.5879 -0.5621  1.8777
   68MOL    H4321617   2.362   7.490   6.650 -0.2082 -0.4670 -0.0223
   68MOL    H4421618   2.617   7.554   6.508  1.0721  0.2511  1.5661
   68MOL    H4521619   2.535   7.653   6.636 -1.3410  0.8591 -0.6691
   68MOL    H4621620   2.469   7.644   6.468 -0.7102 -2.8919 -0.8846
   68MOL    H4721621   2.319   7.306   6.493 -0.5899  0.6932 -2.2723
   68MOL    H4821622   2.340   7.450   6.400  0.3684  0.7968  0.3371
   68MOL    H4921623   2.473   7.332   6.409  0.6351  1.4850 -0.5375
   68MOL    C5021624   2.447   7.366   6.888 -0.3408 -0.4702  0.7124
   68MOL    C5121625   2.464   7.440   7.019  0.2279 -0.8028 -1.3080
   68MOL    O5221626   2.363   7.395   7.117  0.5935  0.2122  0.5504
   68MOL    C5321627   2.390   7.275   7.184 -0.0503 -0.0145 -0.3451
   68MOL    C5421628   2.263   7.195   7.172  0.1501 -1.4874 -0.4886
   68MOL    C5521629   2.429   7.302   7.335 -0.7214 -0.1894 -0.0606
   68MOL    H5621630   2.347   7.383   6.850 -0.0966  0.2002  0.3775
   68MOL    H5721631   2.443   7.257   6.895  0.2118 -0.5395  0.0190
   68MOL    H5821632   2.564   7.422   7.059 -0.4244  1.6221  1.5100
   68MOL    H5921633   2.472   7.220   7.139 -0.9651 -1.2523 -0.5416
   68MOL    H6021634   2.216   7.190   7.073  0.2480  0.8665 -0.6836
   68MOL    H6121635   2.180   7.232   7.232  0.1808 -1.3830 -0.5104
   68MOL    H6221636   2.287   7.094   7.205  0.3360 -1.1030  0.5405
   68MOL    H6321637   2.337   7.332   7.385 -1.1979 -1.1513 -0.3361
   68MOL    H6421638   2.523   7.356   7.348 -1.4064  0.2829  3.5436
   68MOL    H6521639   2.455   7.210   7.389  1.0420  0.6543  0.5708
   68MOL    C6621640   2.428   7.590   7.010  0.1708 -0.3974 -0.2194
   68MOL    C6721641   2.477   7.674   7.129  0.4273 -0.1615  0.0100
   68MOL    O6821642   2.414   7.799   7.117 -0.5041 -0.9163 -0.2738
   68MOL    C6921643   2.311   0.006   7.215  0.0032 -0.5482  0.5443
   68MOL    C7021644   2.281   0.154   7.216 -0.2492 -0.9014  0.6363
   68MOL    C7121645   2.192   7.736   7.192 -0.3917 -0.6714  0.6415
   68MOL    H7221646   2.476   7.632   6.921 -0.0242 -1.9800 -1.0885
   68MOL    H7321647   2.322   7.599   6.987 -0.0090 -0.1993  0.6663
   68MOL    H7421648   2.453   7.638   7.229 -1.5384 -2.3942 -1.2125
   68MOL    H7521649   2.344   7.796   7.314  1.1703  1.3475  0.7679
   68MOL    H7621650   2.375   0.195   7.252 -1.4512  0.1658  2.6829
   68MOL    H7721651   2.254   0.171   7.112 -0.9095  1.0081  1.0936
   68MOL    H7821652   2.201   0.185   7.283 -2.1035  1.0372 -2.3949
   68MOL    H7921653   2.210   7.630   7.212 -1.2712 -1.1083 -0.8433
   68MOL    H8021654   2.157   7.734   7.089 -1.8226  0.2713  1.0905
   68MOL    H8121655   2.118   7.783   7.257  1.6864 -0.4200  2.9380
   68MOL    C8221656   2.630   7.700   7.127  0.1517  0.5330  0.3393
   68MOL    C8321657   2.669   7.793   7.245  0.1488 -0.1532 -0.8015
   68MOL    O8421658   2.793   7.741   7.298  0.2944 -0.9194 -0.5880
   68MOL    C8521659   2.781   7.638   7.397  0.0741  0.1931  0.2153
   68MOL    C8621660   2.833   7.693   7.532  0.2534 -0.0883 -0.0054
   68MOL    C8721661   2.878   7.527   7.342 -0.1588 -0.7408  0.3073
   68MOL    H8821662   2.687   7.608   7.130 -1.5260 -0.5276  0.4380
   68MOL    H8921663   2.668   7.740   7.033 -0.7843 -0.1552 -0.3375
   68MOL    H9021664   2.588   7.797   7.318 -1.0675 -0.0111 -2.1391
   68MOL    H9121665   2.684   7.590   7.407  0.6927 -1.5172 -1.6648
   68MOL    H9221666   2.770   7.771   7.574 -2.9186 -2.3309 -0.3458
   68MOL    H9321667   2.834   7.605   7.596 -1.4205  0.1155  0.3198
   68MOL    H9421668   2.930   7.740   7.519  0.5169 -0.6293 -0.0215
   68MOL    H9521669   2.970   7.578   7.313 -1.4498  1.5449  0.0711
   68MOL    H9621670   2.926   7.465   7.417  0.9988  0.1908  0.3549
   68MOL    H9721671   2.824   7.460   7.276 -0.1928  1.3158 -1.8046
   68MOL    C9821672   2.697   0.121   7.197  0.4668 -0.2116  0.1318
   68MOL    C9921673   2.721   0.222   7.305  0.3096 -0.9773 -0.0264
   68MOL   O10021674   2.592   0.260   7.356 -0.0589 -0.3162 -0.2212
   68MOL   C10121675   2.593   0.314   7.490  0.0377 -0.4289 -0.0290
   68MOL   C10221676   2.527   0.209   7.582 -0.1873 -0.9181 -0.4148
   68MOL   C10321677   2.509   0.447   7.484  0.0755  0.5854 -1.1800
   68MOL   H10421678   2.788   0.120   7.138 -0.1230 -0.8502 -0.7829
   68MOL   H10521679   2.613   0.152   7.135  1.4659 -1.6703 -2.0265
   68MOL   H10621680   2.783   0.168   7.378 -0.4169 -0.0936  1.2656
   68MOL   H10721681   2.691   0.339   7.529  0.4679 -0.2238 -1.2304
   68MOL   H10821682   2.596   0.125   7.586 -1.1263 -1.7501 -1.3542
   68MOL   H10921683   2.435   0.158   7.550 -1.4704  0.6388  0.7041
   68MOL   H11021684   2.519   0.237   7.687 -1.9379  0.4674 -0.9002
   68MOL   H11121685   2.508   0.490   7.584  1.3510 -1.0955 -0.4158
   68MOL   H11221686   2.407   0.431   7.447 -1.3393 -3.1420  3.6703
   68MOL   H11321687   2.555   0.523   7.423  3.4547  0.0870  0.6380
   68MOL   C11421688   2.791   0.351   7.246  0.0537  0.0238 -0.1131
   68MOL   C11521689   2.942   0.336   7.239 -0.1580  0.0647 -0.0271
   68MOL   O11621690   3.001   0.439   7.164 -0.2790 -0.1202 -0.5793
   68MOL   C11721691   3.042   0.390   7.041 -0.4257 -0.2474  0.0146
   68MOL   C11821692   3.118   0.500   6.960 -0.1853 -0.2026 -0.7010
   68MOL   C11921693   2.925   0.336   6.943 -1.2652  0.2541 -0.0666
   68MOL   H12021694   2.756   0.444   7.290  0.5675  0.7925 -1.3075
   68MOL   H12121695   2.757   0.363   7.143  0.6846  1.3731 -0.1681
   68MOL   H12221696   2.959   0.237   7.197 -1.4465  1.6690 -4.6685
   68MOL   H12321697   3.114   0.313   7.070  0.3352  0.1610 -0.7589
   68MOL   H12421698   3.198   0.544   7.020 -0.7857 -0.0107 -0.0300
   68MOL   H12521699   3.056   0.581   6.922 -0.6898 -1.4018 -2.5032
   68MOL   H12621700   3.167   0.454   6.874  1.3678 -1.1989  0.6985
   68MOL   H12721701   2.847   0.412   6.931 -0.3292  1.0755 -1.0957
   68MOL   H12821702   2.868   0.249   6.974  0.1591 -1.3832 -1.9195
   68MOL   H12921703   2.965   0.306   6.846  0.3204  3.0733 -0.3391
   68MOL   C13021704   3.008   0.353   7.379  0.5915  0.7659 -0.1940
   68MOL   C13121705   3.142   0.280   7.394  0.5694 -0.1632  0.3685
   68MOL   O13221706   3.118   0.141   7.410 -0.2713  0.2174  0.2580
   68MOL   C13321707   3.215   0.041   7.371 -0.3090  0.1888 -0.4284
   68MOL   C13421708   3.234   7.750   7.476  0.1256  0.4618  0.6668
   68MOL   C13521709   3.157   7.811   7.237  0.0935  0.3443  0.0056
   68MOL   H13621710   2.939   0.326   7.459  0.3166 -1.1213 -1.0440
   68MOL   H13721711   3.026   0.460   7.393  0.4706  0.9594 -1.4598
   68MOL   H13821712   3.205   0.285   7.306 -2.8484  0.8009 -2.1383
   68MOL   H13921713   3.316   0.074   7.344  0.1646  0.7845  1.9560
   68MOL   H14021714   3.256   7.794   7.573 -0.8559  1.8419  0.2635
   68MOL   H14121715   3.309   7.682   7.435 -2.0326  0.4190 -3.5502
   68MOL   H14221716   3.144   7.691   7.493 -0.6571  1.2599 -0.5952
   68MOL   H14321717   3.214   7.727   7.196 -1.7663 -0.2960 -1.3968
   68MOL   H14421718   3.051   7.787   7.250 -0.2496  1.9249  0.2251
   68MOL   H14521719   3.169   0.075   7.169  0.2644 -0.3341 -0.8158
   68MOL   C14621720   3.205   0.326   7.522  0.2211 -0.0474  0.1549
   68MOL   C14721721   3.325   0.427   7.500  0.2724 -0.1497  0.4573
   68MOL   O14821722   3.357   0.505   7.616 -0.1627 -0.1297  0.2069
   68MOL   C14921723   3.274   0.622   7.648  0.1439  0.3480 -0.3368
   68MOL   C15021724   3.322   0.751   7.577  0.0588 -0.0201  0.4840
   68MOL   C15121725   3.276   0.641   7.803  0.0427  0.4627 -0.2383
   68MOL   H15221726   3.244   0.235   7.567  1.9600 -0.4113 -2.0358
   68MOL   H15321727   3.140   0.374   7.596  0.2078  0.5308 -0.2273
   68MOL   H15421728   3.297   0.487   7.414 -1.9054  1.6010  2.3214
   68MOL   H15521729   3.166   0.608   7.638  0.5390 -2.3193 -1.1897
   68MOL   H15621730   3.294   0.758   7.472  0.4014 -0.4960  0.3600
   68MOL   H15721731   3.429   0.740   7.597  0.0245 -1.1447  0.1183
   68MOL   H15821732   3.293   0.840   7.632 -0.7776 -1.0438  1.7505
   68MOL   H15921733   3.373   0.673   0.020 -1.8676  4.7712  1.3546
   68MOL   H16021734   3.260   0.540   0.021  1.9253  0.2995  0.1637
   68MOL   H16121735   3.196   0.706   0.018 -0.2526  0.2299 -0.4724
   68MOL   C16221736   3.462   0.357   7.467  0.7210 -0.2094 -0.3283
   68MOL   C16321737   3.574   0.443   7.412 -0.0753 -0.6302 -0.3169
   68MOL   O16421738   3.687   0.361   7.409 -0.6631  0.1874 -0.0619
   68MOL   C16521739   3.809   0.416   7.455  0.2547  0.4481  0.8388
   68MOL   C16621740   3.914   0.341   7.383 -0.1715 -0.1429  0.3221
   68MOL   C16721741   3.808   0.382   7.603  0.4221 -0.0318 -0.0306
   68MOL   H16821742   3.496   0.305   7.556  1.1416  0.2451 -0.2235
   68MOL   H16921743   3.426   0.289   7.389  2.4605 -1.2690 -0.2181
   68MOL   H17021744   3.589   0.533   7.473  0.9865 -1.6840  1.0048
   68MOL   H17121745   3.817   0.523   7.435 -1.1475  0.5369  0.7101
   68MOL   H17221746   4.016   0.360   7.418 -1.2386  0.4384  3.2916
   68MOL   H17321747   3.933   0.351   7.276  1.3990 -0.6466  0.5314
   68MOL   H17421748   3.892   0.235   7.395  1.5540 -0.5296  0.2627
   68MOL   H17521749   3.775   0.281   7.626 -0.1667  0.5623  1.7921
   68MOL   H17621750   3.733   0.445   7.651 -0.5975 -1.3276  0.0842
   68MOL   H17721751   3.903   0.409   7.651  0.2121  3.0420 -1.2067
   68MOL   C17821752   3.551   0.483   7.263  0.0055 -0.5074  0.2204
   68MOL   C17921753   3.657   0.580   7.208  0.2243  0.3924  0.5808
   68MOL   O18021754   3.602   0.602   7.076 -0.4229  0.6034 -0.1029
   68MOL   C18121755   3.694   0.580   6.975 -0.1041 -0.0609  0.6641
   68MOL   C18221756   3.632   0.649   6.856  0.0339 -0.3315 -0.4056
   68MOL   C18321757   3.696   0.430   6.945  0.0119  0.9614  0.0301
   68MOL   H18421758   3.447   0.514   7.256  0.0826 -0.1991  0.4089
   68MOL   H18521759   3.560   0.394   7.201 -0.5794 -0.9546  0.7771
   68MOL   H18621760   3.744   0.516   7.220 -1.6944 -2.1065  1.6352
   68MOL   H18721761   3.790   0.625   6.996  1.2508 -3.2985  1.8329
   68MOL   H18821762   3.702   0.643   6.772 -0.2327 -1.1991 -0.5682
   68MOL   H18921763   3.604   0.750   6.885 -0.3317 -0.2517 -1.0219
   68MOL   H19021764   3.543   0.601   6.816 -0.6196 -0.3441  1.0376
   68MOL   H19121765   3.726   0.377   7.035  0.1293 -0.9536 -1.0985
   68MOL   H19221766   3.763   0.400   6.864  0.5663  0.6716  0.5896
   68MOL   H19321767   3.600   0.387   6.917  0.7876 -0.6107 -0.2949
   68MOL   C19421768   3.647   0.716   7.281 -0.8069  0.1181  0.2114
   68MOL   C19521769   3.749   0.823   7.231 -0.0839  0.2405  0.8163
   68MOL   O19621770   3.867   0.778   7.298 -0.3164  0.2152  0.5711
   68MOL   C19721771   3.988   0.743   7.228  0.1877 -0.2756  0.1410
   68MOL   C19821772   4.043   0.866   7.160 -0.4537  0.8456  0.0672
   68MOL   C19921773   4.092   0.688   7.329  0.1626 -0.3304  0.0261
   68MOL   H20021774   3.549   0.758   7.258 -0.9885  0.3056  1.3273
   68MOL   H20121775   3.657   0.712   7.389 -0.8172 -0.0020  0.2077
   68MOL   H20221776   3.755   0.819   7.122 -0.6133  4.4860  0.5484
   68MOL   H20321777   3.965   0.660   7.162 -0.3221 -0.1051  0.1011
   68MOL   H20421778   4.055   0.946   7.233 -1.0430  1.0384 -0.0480
   68MOL   H20521779   4.142   0.859   7.114 -0.0938 -0.4535  0.9833
   68MOL   H20621780   3.970   0.903   7.089 -1.1552  0.2836  0.4894
   68MOL   H20721781   4.131   0.771   7.387  0.1473  1.0852 -1.9215
   68MOL   H20821782   4.044   0.613   7.391 -0.5742 -1.0996 -1.4499
   68MOL   H20921783   4.177   0.645   7.275  0.5689 -0.6991  0.9424
   68MOL   C21021784   3.709   0.968   7.268 -0.5305  0.0448 -0.4998
   68MOL   C21121785   3.593   1.021   7.186  0.2170 -0.3664  0.8033
   68MOL   O21221786   3.536   1.134   7.258  0.2420 -0.0550  0.6282
   68MOL   C21321787   3.423   1.107   7.334  0.2928 -0.5781 -0.3897
   68MOL   C21421788   3.447   1.042   7.477  0.2539  0.5407  0.7361
   68MOL   C21521789   3.355   1.244   7.339  0.1410 -0.2535 -0.2816
   68MOL   H21621790   3.795   1.032   7.248 -1.5179  1.2856 -0.8248
   68MOL   H21721791   3.690   0.981   7.375  0.5007  1.7142 -0.4947
   68MOL   H21821792   3.519   0.943   7.169 -2.0167  1.5474  1.3272
   68MOL   H21921793   3.352   1.048   7.276  1.2639 -0.6103 -1.5394
   68MOL   H22021794   3.484   0.940   7.465  0.4149  0.6240  0.5149
   68MOL   H22121795   3.351   1.041   7.528  0.6314 -1.1412  1.4425
   68MOL   H22221796   3.518   1.089   7.545  0.2805 -1.5097  2.1721
   68MOL   H22321797   3.250   1.223   7.357 -0.3175  1.4587 -0.8513
   68MOL   H22421798   3.363   1.291   7.240 -0.9779 -0.5639 -0.5211
   68MOL   H22521799   3.389   1.308   7.420 -2.7291 -1.5781  2.0332
   68MOL   C22621800   3.648   1.061   7.044 -0.4389  0.6631 -0.0258
   68MOL   C22721801   3.541   1.129   6.957  0.4994  0.4117  0.9334
   68MOL   O22821802   3.464   1.027   6.902  0.5495  0.4890 -0.1288
   68MOL   C22921803   3.330   0.997   6.950 -0.2863 -0.5988 -0.3206
   68MOL   C23021804   3.299   0.847   6.906  0.1026 -0.2183  0.4602
   68MOL   C23121805   3.211   1.091   6.898  0.6341 -0.4150 -0.6315
   68MOL   H23221806   3.697   0.978   6.992 -2.1693  0.1201 -0.8312
   68MOL   H23321807   3.722   1.140   7.056  1.5690 -0.8705 -1.7701
   68MOL   H23421808   3.471   1.188   7.015 -1.5735 -0.2369 -0.8651
   68MOL   H23521809   3.319   1.001   7.059 -0.0651 -1.5502 -0.2505
   68MOL   H23621810   3.195   0.816   6.916 -0.0548 -0.3119 -1.4581
   68MOL   H23721811   3.333   0.824   6.805  1.1443  0.2040  0.6988
   68MOL   H23821812   3.356   0.793   6.982  0.6470 -1.6032 -0.9038
   68MOL   H23921813   3.248   1.187   6.933 -2.2075  0.3794  0.3302
   68MOL   H24021814   3.112   1.070   6.939  0.2213  2.3244 -0.1179
   68MOL   H24121815   3.203   1.077   6.791 -3.6053 -1.1861 -0.2849
   68MOL   C24221816   3.621   1.211   6.849  0.3989 -0.0964  0.2067
   68MOL   C24321817   3.532   1.297   6.762  0.0246  0.5704 -0.8083
   68MOL   O24421818   3.596   1.357   6.650 -0.1123 -0.0643 -0.3989
   68MOL   C24521819   3.626   1.270   6.534  0.0790 -0.0716  0.1178
   68MOL   C24621820   3.498   1.224   6.454  0.2007 -0.3628  0.1644
   68MOL   C24721821   3.723   1.362   6.455 -0.0270 -0.1171  0.4788
   68MOL   H24821822   3.698   1.274   6.893 -0.4695  0.6951  0.5883
   68MOL   H24921823   3.678   1.144   6.784  1.0456  1.3333 -0.7104
   68MOL   H25021824   3.455   1.226   6.733  0.8540 -0.7286  0.1019
   68MOL   H25121825   3.662   1.174   6.571 -0.9449 -1.1367 -1.6093
   68MOL   H25221826   3.412   1.203   6.518 -0.2891  0.9640 -0.0269
   68MOL   H25321827   3.461   1.303   6.388  2.5999  0.8869  0.2643
   68MOL   H25421828   3.502   1.125   6.409  0.3472 -1.3943  2.4075
   68MOL   H25521829   3.767   1.318   6.365 -0.2686 -0.5157  0.5560
   68MOL   H25621830   3.682   1.457   6.422 -2.4104 -1.1309  0.4635
   68MOL   H25721831   3.805   1.397   6.518 -0.4670  0.9666  0.4654
   68MOL   C25821832   3.478   1.418   6.835 -0.6245 -0.7522 -0.4140
   68MOL   C25921833   3.384   1.516   6.753 -0.5616  0.0924  0.2694
   68MOL   O26021834   3.328   1.624   6.831  0.3503  0.0631 -0.5203
   68MOL   C26121835   3.404   1.733   6.879 -0.1629  0.1962 -0.1359
   68MOL   C26221836   3.435   1.839   6.759  0.5288 -0.4544 -0.6206
   68MOL   C26321837   3.319   1.800   6.978 -0.1308  0.1587 -0.6488
   68MOL   H26421838   3.409   1.378   6.910 -2.3681  0.0629 -1.5614
   68MOL   H26521839   3.549   1.468   6.900  2.0579 -2.1902 -2.1386
   68MOL   H26621840   3.440   1.563   6.673 -1.2218  0.3441 -0.0450
   68MOL   H26721841   3.495   1.693   6.923  0.3292  1.2545 -0.1681
   68MOL   H26821842   3.477   1.798   6.668 -2.2787 -2.4711 -1.0606
   68MOL   H26921843   3.502   1.922   6.782  0.2844  0.2085 -2.2393
   68MOL   H27021844   3.341   1.888   6.736 -0.2854 -2.1906 -1.1020
   68MOL   H27121845   3.373   1.879   7.030  0.6595 -1.3054  0.8357
   68MOL   H27221846   3.236   1.847   6.925 -1.8782 -0.9986  1.0038
   68MOL   H27321847   3.288   1.740   7.063 -2.8383  2.9405  0.4276
   68MOL   C27421848   3.266   1.431   6.692  0.1645 -0.3111 -0.1093
   68MOL   C27521849   3.161   1.499   6.604 -0.0662 -0.5611 -1.0891
   68MOL   O27621850   3.204   1.524   6.474 -0.2311 -0.2366  0.0242
   68MOL   C27721851   3.163   1.648   6.413  0.5840 -0.4063 -0.7336
   68MOL   C27821852   3.198   1.627   6.267  0.5674  0.3704 -0.0029
   68MOL   C27921853   3.241   1.766   6.474  0.4206  0.1786 -0.1703
   68MOL   H28021854   3.310   1.355   6.628  1.0309  1.7375 -2.0108
   68MOL   H28121855   3.216   1.380   6.774  0.0063 -1.3506 -0.8382
   68MOL   H28221856   3.131   1.590   6.656  0.3554 -0.8470 -0.3357
   68MOL   H28321857   3.057   1.671   6.418  0.0618 -2.8985  0.8510
   68MOL   H28421858   3.170   1.713   6.207 -0.0261 -1.3582 -2.2663
   68MOL   H28521859   3.306   1.628   6.253  0.5828 -1.2583 -0.1174
   68MOL   H28621860   3.164   1.527   6.237 -2.6798  1.6917 -0.9836
   68MOL   H28721861   3.344   1.764   6.439  0.4315  1.6913 -0.2648
   68MOL   H28821862   3.230   1.767   6.583  0.8808  0.2415 -0.1220
   68MOL   H28921863   3.203   1.864   6.444 -0.1996 -0.3428 -1.0909
   68MOL   C29021864   3.036   1.403   6.584 -0.8440  0.3481 -0.6623
   68MOL   C29121865   2.957   1.359   6.708 -0.2389  0.1041  0.1400
   68MOL   O29221866   2.910   1.478   6.770  0.6426  0.1853  0.0393
   68MOL   C29321867   2.972   1.515   6.890 -0.0164 -0.8147 -0.5428
   68MOL   C29421868   2.925   1.420   7.000 -0.2541 -0.1349 -0.4180
   68MOL   C29521869   2.952   1.659   6.924 -0.1534  0.2013 -0.1100
   68MOL   H29621870   3.075   1.309   6.545  1.2976 -0.1831  2.5363
   68MOL   H29721871   2.968   1.445   6.510  0.2054  3.0077 -0.1669
   68MOL   H29821872   3.016   1.300   6.778  1.5867  0.7253 -0.8384
   68MOL   H29921873   3.081   1.515   6.883  0.0430  2.2145 -0.5005
   68MOL   H30021874   2.954   1.318   6.975 -1.5086 -1.0340  1.7009
   68MOL   H30121875   2.980   1.442   7.091 -0.9686  1.3709 -0.3185
   68MOL   H30221876   2.821   1.436   7.028 -0.5072  0.3853 -1.5941
   68MOL   H30321877   2.849   1.691   6.940 -0.1408 -0.7618  1.9790
   68MOL   H30421878   2.996   1.687   7.020 -1.3759 -2.1332  1.1560
   68MOL   H30521879   2.990   1.724   6.845 -0.4544  1.2877  0.6268
   68MOL   C30621880   2.852   1.257   6.654  0.2939 -0.1318 -0.1860
   68MOL   C30721881   2.760   1.197   6.763  0.9378  0.4169 -0.0091
   68MOL   O30821882   2.680   1.097   6.697  0.0111  0.3403  0.4466
   68MOL   C30921883   2.556   1.066   6.758 -0.3335 -0.6831 -0.7512
   68MOL   C31021884   2.493   0.971   6.661 -0.2844 -0.7707  0.1344
   68MOL   C31121885   2.587   0.993   6.890 -0.3298 -0.5494 -0.4272
   68MOL   H31221886   2.900   1.178   6.596 -1.4007 -0.7041 -0.8499
   68MOL   H31321887   2.793   1.302   6.574  0.2039 -0.6421 -0.4116
   68MOL   H31421888   2.812   1.146   6.845 -2.0677 -0.8203  1.2305
   68MOL   H31521889   2.495   1.155   6.762  1.3133  0.4414 -0.0442
   68MOL   H31621890   2.486   1.007   6.558 -0.3027 -2.1209 -0.3535
   68MOL   H31721891   2.388   0.947   6.680 -0.3540 -0.8436 -0.3408
   68MOL   H31821892   2.557   0.886   6.639 -0.4733 -0.5755 -1.1998
   68MOL   H31921893   2.644   1.053   6.961 -1.4358 -1.5601  1.3460
   68MOL   H32021894   2.620   0.890   6.876  0.9475 -0.0770 -1.0375
   68MOL   H32121895   2.486   0.982   6.928 -0.8951  1.0880 -1.4381
   68MOL   H32221896   2.691   1.268   6.809  2.8972  1.5347  1.2796
   69MOL     C121897   4.853   1.930   3.836  0.0370 -0.1833  0.7963
   69MOL     C221898   4.739   1.864   3.914 -0.3506  0.8077  0.0035
   69MOL     O321899   4.744   1.930   4.042 -0.0296 -0.0385  0.0696
   69MOL     C421900   4.682   1.854   4.141 -0.8647  0.0886 -0.1412
   69MOL     C521901   4.622   1.963   4.239 -0.2901 -0.6470 -0.0797
   69MOL     C621902   4.786   1.760   4.216  0.0569  0.2445  0.2291
   69MOL     H721903   4.954   1.936   3.875  0.6485  0.2143 -0.8271
   69MOL     H821904   4.864   1.880   3.740 -1.3134  0.4568  0.2945
   69MOL     H921905   4.754   1.756   3.916  1.0658  0.9961  1.4908
   69MOL    H1021906   4.599   1.798   4.098 -0.4180 -1.6193  1.1907
   69MOL    H1121907   4.560   1.935   4.324 -1.1475  1.2431 -0.0507
   69MOL    H1221908   4.708   2.013   4.283  0.3679 -1.4265 -0.4751
   69MOL    H1321909   4.571   2.044   4.186  1.5818  0.6019 -0.0118
   69MOL    H1421910   4.866   1.816   4.265  1.6459 -0.7298 -1.2175
   69MOL    H1521911   4.735   1.717   4.302  0.0356 -0.9111 -0.3653
   69MOL    H1621912   4.813   1.680   4.148 -0.9037  0.5615 -0.5382
   69MOL    H1721913   4.831   2.035   3.816 -0.6826 -0.1988  1.4395
   69MOL    C1821914   4.603   1.901   3.843 -0.3649 -0.5057 -0.7393
   69MOL    C1921915   4.584   1.836   3.700  0.0127  0.0422 -0.6804
   69MOL    O2021916   4.571   1.937   3.603 -0.2855 -0.5710 -0.2214
   69MOL    C2121917   4.607   1.901   3.465 -0.3206  0.0557 -0.5707
   69MOL    C2221918   4.753   1.931   3.426  0.6319 -0.0876 -0.3970
   69MOL    C2321919   4.507   1.970   3.377 -0.4151  0.4423 -0.2393
   69MOL    H2421920   4.513   1.878   3.900  0.6208 -2.6310  0.0085
   69MOL    H2521921   4.590   2.009   3.837 -2.7940 -0.6133  1.4700
   69MOL    H2621922   4.669   1.773   3.675 -1.0286 -1.6132 -0.1510
   69MOL    H2721923   4.575   1.797   3.453 -0.0147 -0.0716 -0.2963
   69MOL    H2821924   4.779   1.922   3.320 -0.5396 -0.1525 -0.6921
   69MOL    H2921925   4.771   2.037   3.440  0.2659  0.4132 -3.3051
   69MOL    H3021926   4.826   1.876   3.485 -0.5336  1.4678  2.5663
   69MOL    H3121927   4.516   2.078   3.387  1.2911  0.0423  3.2971
   69MOL    H3221928   4.407   1.939   3.407  0.2191 -0.5361  0.9035
   69MOL    H3321929   4.525   1.945   3.273  0.6553 -2.4340  0.5997
   69MOL    C3421930   4.450   1.758   3.699 -0.3007 -0.0608 -0.3135
   69MOL    C3521931   4.460   1.621   3.770  0.6804  0.0787  0.4353
   69MOL    O3621932   4.328   1.582   3.799 -0.4706  0.0374  0.3685
   69MOL    C3721933   4.308   1.539   3.933 -0.3350  0.3405 -0.4995
   69MOL    C3821934   4.291   1.657   4.026 -0.0791 -0.2754  0.0245
   69MOL    C3921935   4.189   1.443   3.952 -0.2421  0.0454 -0.0401
   69MOL    H4021936   4.422   1.735   3.597 -1.1292  1.4319 -0.4481
   69MOL    H4121937   4.363   1.815   3.733  0.1352  0.5379 -0.1829
   69MOL    H4221938   4.518   1.634   3.861  2.6982 -1.5091 -0.5742
   69MOL    H4321939   4.397   1.489   3.972 -0.8570  0.7010  1.2330
   69MOL    H4421940   4.198   1.712   4.012 -0.4746 -0.7459  0.7366
   69MOL    H4521941   4.380   1.719   4.024 -0.1262 -0.1781  0.6564
   69MOL    H4621942   4.284   1.611   4.125 -0.6107  1.8832  1.0173
   69MOL    H4721943   4.177   1.361   3.881 -1.1427  0.2281 -0.0992
   69MOL    H4821944   4.175   1.405   4.053  0.8659  0.5901  0.3272
   69MOL    H4921945   4.104   1.505   3.923  1.2825  1.8222 -0.8516
   69MOL    C5021946   4.521   1.513   3.680  0.2332 -0.6234 -0.1709
   69MOL    C5121947   4.557   1.379   3.747 -0.0663  0.0999 -0.1131
   69MOL    O5221948   4.676   1.390   3.818  0.2450 -0.0068 -0.2876
   69MOL    C5321949   4.705   1.303   3.925 -0.0330 -0.4127 -0.7718
   69MOL    C5421950   4.623   1.327   4.049 -0.9193  0.0275 -0.1702
   69MOL    C5521951   4.853   1.329   3.950  0.7405  0.7658 -0.4852
   69MOL    H5621952   4.453   1.496   3.597  1.1506  1.2721 -1.3515
   69MOL    H5721953   4.617   1.549   3.643  0.0308 -0.8207 -0.9094
   69MOL    H5821954   4.479   1.359   3.821 -0.2904  1.3369 -0.0088
   69MOL    H5921955   4.691   1.198   3.898  2.1740 -0.3206 -2.3830
   69MOL    H6021956   4.516   1.309   4.033 -1.7310  2.1057  2.6950
   69MOL    H6121957   4.615   1.427   4.091 -1.4293 -0.6202  1.3039
   69MOL    H6221958   4.659   1.261   4.128 -1.2424 -0.2354 -0.2375
   69MOL    H6321959   4.911   1.287   3.867  2.2206  0.7901  0.5109
   69MOL    H6421960   4.886   1.287   4.045  0.2568 -1.3704 -1.2219
   69MOL    H6521961   4.866   1.436   3.962  2.3012  0.4909  0.3779
   69MOL    C6621962   4.568   1.255   3.653  0.1850  0.9805  0.3477
   69MOL    C6721963   4.455   1.148   3.675 -0.0229  0.1796 -0.1491
   69MOL    O6821964   4.490   1.032   3.598 -0.2066 -0.3591  0.5009
   69MOL    C6921965   4.475   0.904   3.663  0.5031  0.6939  0.7518
   69MOL    C7021966   4.490   0.799   3.543 -0.4913 -0.2246 -0.0114
   69MOL    C7121967   4.592   0.875   3.760  1.0322  0.3897  0.1830
   69MOL    H7221968   4.566   1.290   3.550 -0.9989 -0.7708 -0.2538
   69MOL    H7321969   4.659   1.196   3.661 -0.7042 -0.2299  1.9064
   69MOL    H7421970   4.438   1.127   3.781 -0.6954 -4.3095 -1.0399
   69MOL    H7521971   4.385   0.907   3.724  1.1332 -1.8620  1.8387
   69MOL    H7621972   4.593   0.816   3.511  0.3762 -0.2336  2.5831
   69MOL    H7721973   4.478   0.699   3.584  2.7533 -0.1557  1.2686
   69MOL    H7821974   4.422   0.804   3.458  0.0085  0.6996 -0.3630
   69MOL    H7921975   4.687   0.884   3.707  0.7435 -1.1821 -0.6313
   69MOL    H8021976   4.589   0.773   3.799 -0.6869  0.5581  0.5099
   69MOL    H8121977   4.585   0.942   3.846  2.9770  0.4534  0.3237
   69MOL    C8221978   4.327   1.200   3.618  0.7464  0.0515  0.2761
   69MOL    C8321979   4.191   1.117   3.636 -0.8615  0.0366  0.7668
   69MOL    O8421980   4.171   1.124   3.777  0.0621 -0.1830  0.5618
   69MOL    C8521981   4.067   1.033   3.826  0.1365  0.1732 -0.6531
   69MOL    C8621982   4.001   1.102   3.942  0.0771  0.1263 -0.1773
   69MOL    C8721983   4.141   0.903   3.877 -0.0618 -0.2870 -0.4167
   69MOL    H8821984   4.313   1.294   3.672  1.0967  0.6926 -0.7420
   69MOL    H8921985   4.335   1.225   3.513  0.3677  1.2739  0.5279
   69MOL    H9021986   4.197   1.012   3.607  2.5218  0.3460  0.1505
   69MOL    H9121987   3.994   1.014   3.748  0.8406 -2.3620 -0.7456
   69MOL    H9221988   4.074   1.142   4.011 -1.2098 -0.1258  1.3548
   69MOL    H9321989   3.936   1.185   3.915  0.2645  0.0254 -0.9743
   69MOL    H9421990   3.939   1.037   4.004  1.0839 -0.6391  0.0291
   69MOL    H9521991   4.208   0.856   3.804  1.5175  0.3647  0.5994
   69MOL    H9621992   4.195   0.904   3.971 -0.5834  1.3782 -0.1227
   69MOL    H9721993   4.059   0.837   3.905  1.5564 -2.3147 -0.3669
   69MOL    C9821994   4.082   1.185   3.546  0.3119 -0.1799  0.4465
   69MOL    C9921995   4.007   1.101   3.443 -0.4733 -0.1051  0.1382
   69MOL   O10021996   3.955   0.988   3.506 -0.3324  0.8387  1.0162
   69MOL   C10121997   3.816   0.979   3.519  0.5112  0.2572 -0.4063
   69MOL   C10221998   3.755   1.078   3.622 -0.2198  0.0907  0.2430
   69MOL   C10321999   3.767   0.838   3.555 -0.9022 -0.5641  0.2398
   69MOL   H10422000   4.004   1.230   3.607 -1.2687 -0.2948 -1.4490
   69MOL   H10522001   4.123   1.271   3.493 -2.7843  0.9980 -0.1124
   69MOL   H10622002   3.934   1.171   3.403 -0.4369  0.6066  1.3003
   69MOL   H10722003   3.772   1.005   3.423  1.3245 -0.8095 -1.0858
   69MOL   H10822004   3.647   1.090   3.617 -0.1193  0.4384 -1.2253
   69MOL   H10922005   3.804   1.175   3.610 -1.7888  0.8126 -0.3666
   69MOL   H11022006   3.764   1.034   3.721 -3.0612 -0.8406  0.1419
   69MOL   H11122007   3.792   0.775   3.470  1.1855  0.5909 -0.0357
   69MOL   H11222008   3.662   0.830   3.583 -0.5731  0.8524  1.9767
   69MOL   H11322009   3.806   0.791   3.646 -1.8594  0.9390  1.4631
   69MOL   C11422010   4.100   1.046   3.332 -0.4330  0.3942 -0.3758
   69MOL   C11522011   4.172   1.153   3.246  0.0968  0.2820  0.2352
   69MOL   O11622012   4.262   1.085   3.154 -0.3413  0.0291 -0.3898
   69MOL   C11722013   4.393   1.055   3.193  0.3137  0.7111  0.3954
   69MOL   C11822014   4.491   1.139   3.115  0.1004 -0.1225 -0.3109
   69MOL   C11922015   4.426   0.907   3.162 -0.1543  0.5442  0.9259
   69MOL   H12022016   4.026   0.992   3.272 -1.3234 -0.9369  1.8509
   69MOL   H12122017   4.177   0.976   3.364 -1.4520 -1.1039 -1.1179
   69MOL   H12222018   4.225   1.221   3.313  1.4613  1.6471 -2.1552
   69MOL   H12322019   4.410   1.066   3.300  1.3839 -0.9571  0.4136
   69MOL   H12422020   4.498   1.239   3.157  1.2185 -0.2630 -0.1315
   69MOL   H12522021   4.481   1.129   3.007  0.9203 -1.4477 -0.2795
   69MOL   H12622022   4.595   1.111   3.132 -0.3039  0.0755  2.8762
   69MOL   H12722023   4.420   0.893   3.054  0.9868 -0.5613  0.9880
   69MOL   H12822024   4.351   0.844   3.210 -0.3660  0.9684  1.1573
   69MOL   H12922025   4.524   0.875   3.198  0.0581 -2.1209 -1.8478
   69MOL   C13022026   4.086   1.240   3.154 -0.2237 -0.1480 -0.3666
   69MOL   C13122027   4.140   1.380   3.129 -0.0252 -0.3385 -0.0592
   69MOL   O13222028   4.133   1.453   3.249 -0.5876  0.4535  0.3220
   69MOL   C13322029   4.233   1.556   3.271  1.0094 -0.5620 -0.3167
   69MOL   C13422030   4.173   1.664   3.356  0.0458  0.0137 -0.1503
   69MOL   C13522031   4.346   1.493   3.352  0.3851  0.3377 -0.3933
   69MOL   H13622032   3.984   1.251   3.191 -0.5469  0.6935 -1.4900
   69MOL   H13722033   4.076   1.184   3.061  0.8978 -0.2147 -0.4489
   69MOL   H13822034   4.245   1.371   3.100 -0.4390 -3.6767 -0.6818
   69MOL   H13922035   4.275   1.593   3.178 -0.0700 -1.0850 -1.0193
   69MOL   H14022036   4.126   1.631   3.448  0.0959  1.4024  0.3848
   69MOL   H14122037   4.093   1.712   3.300 -0.0306 -0.1464 -0.1788
   69MOL   H14222038   4.247   1.739   3.382 -0.3018 -0.6136  2.8993
   69MOL   H14322039   4.304   1.460   3.447  0.1702  1.3286 -0.1339
   69MOL   H14422040   4.391   1.404   3.309 -0.1998 -0.7924  1.3314
   69MOL   H14522041   4.425   1.566   3.371  0.4386  0.6360 -1.7223
   69MOL   C14622042   4.076   1.450   3.000 -0.0227  0.0497 -0.0043
   69MOL   C14722043   3.935   1.491   3.014  0.2881 -0.3705 -0.2390
   69MOL   O14822044   3.908   1.600   2.924 -0.2176  0.5548 -0.2803
   69MOL   C14922045   3.891   1.736   2.976  0.3605  0.2141  0.9413
   69MOL   C15022046   3.784   1.812   2.893 -0.4384  0.0902 -0.8092
   69MOL   C15122047   4.032   1.800   2.997 -0.2157  0.7461 -0.7108
   69MOL   H15222048   4.081   1.400   2.904  0.4782  0.6415 -0.2918
   69MOL   H15322049   4.126   1.547   2.996  0.6087 -0.2933 -0.4521
   69MOL   H15422050   3.912   1.522   3.116 -0.8922  0.7814 -0.8378
   69MOL   H15522051   3.841   1.715   3.071 -1.1861 -0.8385 -0.0643
   69MOL   H15622052   3.745   1.888   2.960  0.7100  1.1722 -1.3468
   69MOL   H15722053   3.702   1.745   2.868 -0.0224  0.0947 -2.2630
   69MOL   H15822054   3.824   1.864   2.806  2.1876 -1.3517 -0.5322
   69MOL   H15922055   4.081   1.756   3.085 -1.2180  1.9948  0.4853
   69MOL   H16022056   4.025   1.904   3.028 -3.6905  0.6871 -1.1352
   69MOL   H16122057   4.093   1.788   2.908  0.1980  1.3180 -0.5047
   69MOL   C16222058   3.834   1.383   2.973  0.2646  0.2623 -0.2229
   69MOL   C16322059   3.684   1.406   2.992 -0.3815  0.3462 -0.1655
   69MOL   O16422060   3.599   1.315   2.918 -0.0015 -0.1998 -0.8417
   69MOL   C16522061   3.594   1.324   2.777 -0.1734  0.2549  0.1895
   69MOL   C16622062   3.498   1.437   2.726  0.0847 -0.2638 -0.7809
   69MOL   C16722063   3.556   1.188   2.711  0.0805 -0.0204  0.5719
   69MOL   H16822064   3.855   1.366   2.867 -0.7731 -0.4760 -0.3209
   69MOL   H16922065   3.858   1.285   3.016  0.5801  0.3165 -0.2764
   69MOL   H17022066   3.652   1.506   2.960 -0.6610 -0.2591 -1.8159
   69MOL   H17122067   3.695   1.351   2.749 -0.7063  0.0983 -2.0165
   69MOL   H17222068   3.393   1.426   2.753  0.1198 -0.5156 -0.7495
   69MOL   H17322069   3.501   1.448   2.618 -1.2961  4.3259 -0.4625
   69MOL   H17422070   3.536   1.533   2.763 -1.0602  0.9663 -2.7342
   69MOL   H17522071   3.551   1.195   2.602  3.6046 -0.4891  0.3437
   69MOL   H17622072   3.457   1.160   2.748  0.1404 -0.2176  0.5822
   69MOL   H17722073   3.634   1.114   2.731 -1.6927 -2.7375 -1.9903
   69MOL   C17822074   3.641   1.394   3.131 -0.2045 -0.1859 -0.5782
   69MOL   C17922075   3.501   1.445   3.157  0.1903 -0.1780 -0.2038
   69MOL   O18022076   3.491   1.447   3.299  0.0801 -0.1666  0.7686
   69MOL   C18122077   3.395   1.344   3.337 -0.6604  0.3439  0.0851
   69MOL   C18222078   3.369   1.362   3.488  0.1741  0.4100  0.5722
   69MOL   C18322079   3.447   1.204   3.318  0.3322  0.0968  0.3118
   69MOL   H18422080   3.706   1.441   3.204 -1.1463 -2.3425  1.7211
   69MOL   H18522081   3.660   1.297   3.178 -1.7828 -0.0850  0.3090
   69MOL   H18622082   3.433   1.376   3.107 -0.8872  0.6361  0.1142
   69MOL   H18722083   3.299   1.358   3.288 -0.6396  0.0750 -0.0326
   69MOL   H18822084   3.463   1.345   3.539 -0.3734 -0.9496  1.1352
   69MOL   H18922085   3.306   1.282   3.526  2.2453 -1.5224  0.0650
   69MOL   H19022086   3.330   1.462   3.509  1.6884  1.0875  0.2094
   69MOL   H19122087   3.548   1.186   3.356  0.3521 -0.0310  0.2000
   69MOL   H19222088   3.455   1.182   3.211  0.5465  0.9372  0.1546
   69MOL   H19322089   3.380   1.136   3.369  1.3689 -0.8179  0.4908
   69MOL   C19422090   3.465   1.590   3.101 -0.2376  1.0496  0.2782
   69MOL   C19522091   3.337   1.660   3.165 -0.0450  0.2619  0.3333
   69MOL   O19622092   3.219   1.643   3.086  0.0836  0.4341  0.2225
   69MOL   C19722093   3.158   1.517   3.094 -0.5817 -0.9619 -0.0540
   69MOL   C19822094   3.054   1.522   3.214 -0.6479  0.1755 -0.3507
   69MOL   C19922095   3.085   1.487   2.963  0.2812 -0.2584  0.1704
   69MOL   H20022096   3.557   1.639   3.132 -0.3353  0.9867  0.6804
   69MOL   H20122097   3.466   1.595   2.993  1.5184  0.0510  0.2367
   69MOL   H20222098   3.326   1.617   3.265 -0.7705  2.0079  1.0147
   69MOL   H20322099   3.225   1.431   3.102 -1.2168 -1.5053 -0.5622
   69MOL   H20422100   3.104   1.524   3.311 -1.3558 -1.4606  0.0535
   69MOL   H20522101   2.982   1.603   3.207 -0.0929  0.7964  0.9278
   69MOL   H20622102   2.986   1.438   3.204  0.8003 -1.0690 -0.0040
   69MOL   H20722103   3.033   1.393   2.983  2.2406 -1.6229 -0.9716
   69MOL   H20822104   3.018   1.565   2.929 -1.2727 -1.2472  0.9117
   69MOL   H20922105   3.156   1.476   2.880 -0.2462 -0.6223 -0.2352
   69MOL   C21022106   3.358   1.814   3.177 -0.0811  0.0149  0.1593
   69MOL   C21122107   3.449   1.856   3.295 -0.2747  0.6698  0.7776
   69MOL   O21222108   3.484   1.999   3.295  0.0353  0.7262  0.4238
   69MOL   C21322109   3.593   2.040   3.213 -0.7842 -0.8897 -0.2727
   69MOL   C21422110   3.552   2.141   3.101 -0.6160 -0.3847 -0.8014
   69MOL   C21522111   3.689   2.127   3.300 -0.7285 -0.3150 -0.2387
   69MOL   H21622112   3.259   1.856   3.196  0.1059  1.0564 -1.1426
   69MOL   H21722113   3.383   1.867   3.085 -2.0482  0.0148 -0.3991
   69MOL   H21822114   3.538   1.794   3.286 -0.1358  1.1917 -2.0431
   69MOL   H21922115   3.638   1.952   3.167  0.0683 -0.3669 -0.4573
   69MOL   H22022116   3.511   2.234   3.140  0.7110 -0.5355  0.9901
   69MOL   H22122117   3.468   2.099   3.044 -1.5167  0.1846  0.0874
   69MOL   H22222118   3.626   2.170   3.027  2.3208 -0.9391  1.8324
   69MOL   H22322119   3.641   2.208   3.356 -0.9052 -1.1982  0.8938
   69MOL   H22422120   3.768   2.164   3.234 -1.1749  1.4270  0.1572
   69MOL   H22522121   3.726   2.063   3.379 -0.8022  0.4258  0.4064
   69MOL   C22622122   3.390   1.823   3.433 -0.6515  0.3042  0.4702
   69MOL   C22722123   3.499   1.803   3.537  0.5655 -0.0479  0.4860
   69MOL   O22822124   3.551   1.672   3.518  0.1632 -0.3776  0.5741
   69MOL   C22922125   3.693   1.669   3.535  0.1957  0.1689 -0.3226
   69MOL   C23022126   3.765   1.689   3.406 -0.3338 -0.0175 -0.3685
   69MOL   C23122127   3.723   1.526   3.588 -0.2335  0.7942 -0.2649
   69MOL   H23222128   3.328   1.734   3.441  0.6597 -0.4176  2.9161
   69MOL   H23322129   3.332   1.912   3.457 -0.1818  0.6785  0.2233
   69MOL   H23422130   3.573   1.879   3.511  0.4522 -0.0365  0.1950
   69MOL   H23522131   3.723   1.746   3.606  1.7581 -1.5782  0.9641
   69MOL   H23622132   3.708   1.641   3.327  0.0493  1.3265 -1.4783
   69MOL   H23722133   3.763   1.797   3.394  2.8888  0.1329  0.1074
   69MOL   H23822134   3.857   1.636   3.381 -1.5595 -1.2091 -2.4233
   69MOL   H23922135   3.710   1.455   3.507  0.1721  0.5653 -0.1296
   69MOL   H24022136   3.666   1.509   3.679 -0.3664  1.3125 -0.2491
   69MOL   H24122137   3.829   1.518   3.612 -0.2916 -1.5170 -0.6524
   69MOL   C24222138   3.454   1.831   3.685  0.3323 -0.5572  0.0220
   69MOL   C24322139   3.348   1.737   3.746 -0.5826  0.5243  0.2615
   69MOL   O24422140   3.331   1.796   3.873 -0.0529 -0.1461  0.0550
   69MOL   C24522141   3.215   1.868   3.894 -0.0812  0.4910 -0.2861
   69MOL   C24622142   3.212   1.916   4.037 -0.3774 -0.5122 -0.4048
   69MOL   C24722143   3.190   1.989   3.802 -0.0167  0.2187 -0.7082
   69MOL   H24822144   3.549   1.824   3.740 -0.1269  1.1387  1.0840
   69MOL   H24922145   3.428   1.936   3.676  1.7231 -0.0402  1.6953
   69MOL   H25022146   3.256   1.734   3.688 -0.9665 -1.7480  0.9550
   69MOL   H25122147   3.131   1.800   3.882 -1.1360  1.2257  2.4653
   69MOL   H25222148   3.215   1.831   4.106 -0.1006  0.7071  1.1141
   69MOL   H25322149   3.303   1.972   4.058  0.1465 -0.8025 -1.8635
   69MOL   H25422150   3.126   1.981   4.050  1.9551  2.6078  0.0470
   69MOL   H25522151   3.098   2.039   3.831  0.3761  0.1524  0.7174
   69MOL   H25622152   3.275   2.058   3.806  1.2256 -1.3790  2.0013
   69MOL   H25722153   3.178   1.953   3.700  1.6164 -2.2064 -0.0924
   69MOL   C25822154   3.408   1.600   3.773 -0.4475  0.6459  0.0025
   69MOL   C25922155   3.318   1.498   3.853 -0.0697  0.5869  0.3250
   69MOL   O26022156   3.358   1.360   3.851 -0.5413 -0.0731  0.4321
   69MOL   C26122157   3.482   1.327   3.910 -0.5733 -0.3236 -0.2243
   69MOL   C26222158   3.488   1.330   4.066 -0.1018  0.3182 -0.2808
   69MOL   C26322159   3.529   1.187   3.855  0.2384 -0.0899  0.4255
   69MOL   H26422160   3.418   1.557   3.673 -1.2104  1.0120 -0.2351
   69MOL   H26522161   3.497   1.621   3.831 -2.1180  1.6349  2.2751
   69MOL   H26622162   3.311   1.543   3.953  0.2197 -0.6584  0.9157
   69MOL   H26722163   3.558   1.397   3.876  1.2970 -1.8136  0.7839
   69MOL   H26822164   3.586   1.314   4.111 -1.2977 -0.1113  2.2495
   69MOL   H26922165   3.419   1.262   4.115 -1.1506  2.6111  1.5186
   69MOL   H27022166   3.451   1.426   4.103  1.6218  1.4156 -1.2867
   69MOL   H27122167   3.514   1.190   3.747  0.2549 -0.0129  0.4248
   69MOL   H27222168   3.630   1.160   3.884  0.9537 -0.0890 -1.9095
   69MOL   H27322169   3.467   1.103   3.884 -0.5369  0.4706  0.4205
   69MOL   C27422170   3.182   1.492   3.789 -0.0040 -0.0490  0.8159
   69MOL   C27522171   3.076   1.422   3.881  0.0634  0.8056 -0.3843
   69MOL   O27622172   3.056   1.504   3.996  0.2523  0.3429  0.1889
   69MOL   C27722173   3.036   1.428   4.115 -0.0767 -0.4159 -0.2132
   69MOL   C27822174   2.933   1.498   4.207  0.3461  0.1478 -0.1066
   69MOL   C27922175   3.168   1.404   4.185 -0.4585 -0.4088 -0.9566
   69MOL   H28022176   3.144   1.589   3.759 -0.7819 -0.8993 -1.0141
   69MOL   H28122177   3.185   1.440   3.693 -0.3514  2.2902 -0.4908
   69MOL   H28222178   3.112   1.324   3.910  0.2750  0.9003 -0.3272
   69MOL   H28322179   2.994   1.330   4.095  1.6002 -1.8741  3.1251
   69MOL   H28422180   2.909   1.438   4.295 -1.7272  1.5159  0.2972
   69MOL   H28522181   2.959   1.599   4.237  0.4962  0.3067 -0.7756
   69MOL   H28622182   2.832   1.497   4.165 -0.2655  0.4285  1.3291
   69MOL   H28722183   3.215   1.500   4.206 -0.2931 -0.7694  0.3996
   69MOL   H28822184   3.228   1.342   4.118  0.0521 -0.6265 -0.3050
   69MOL   H28922185   3.155   1.342   4.274  2.9193 -0.8073 -0.6508
   69MOL   C29022186   2.942   1.388   3.807  0.2258  0.4872 -0.2459
   69MOL   C29122187   2.946   1.275   3.705  0.1224 -0.0122  0.0086
   69MOL   O29222188   2.938   1.143   3.762  0.3692  0.1108 -0.0994
   69MOL   C29322189   3.040   1.056   3.714  0.1588 -0.0517 -0.2332
   69MOL   C29422190   2.989   0.906   3.721 -0.0002 -0.3325 -0.6462
   69MOL   C29522191   3.173   1.068   3.788  0.1034 -0.2207  0.5239
   69MOL   H29622192   2.891   1.478   3.774  0.2666  0.3693 -0.6297
   69MOL   H29722193   2.869   1.341   3.872  0.7508 -3.6021 -2.4347
   69MOL   H29822194   3.019   1.305   3.630  0.2897  0.4726  0.3686
   69MOL   H29922195   3.055   1.081   3.609 -2.5872  0.4507 -0.5368
   69MOL   H30022196   3.056   0.839   3.668  0.1219 -2.0748  1.6455
   69MOL   H30122197   2.970   0.870   3.822 -2.0683  0.8824 -0.5700
   69MOL   H30222198   2.893   0.893   3.671  1.3000 -2.4927 -2.7114
   69MOL   H30322199   3.214   1.168   3.778 -1.3511  0.4618  1.2500
   69MOL   H30422200   3.169   1.047   3.895  0.6606 -5.2256 -0.2829
   69MOL   H30522201   3.247   0.997   3.752 -0.7182 -0.1315 -1.4085
   69MOL   C30622202   2.820   1.288   3.613  0.6873 -0.5438  0.2909
   69MOL   C30722203   2.821   1.181   3.500  0.1509  0.1303  0.4780
   69MOL   O30822204   2.903   1.211   3.389 -0.1735  0.1793  0.1828
   69MOL   C30922205   2.934   1.097   3.311  0.6331 -0.5386 -0.0995
   69MOL   C31022206   2.812   1.041   3.240 -0.2583  0.1260 -0.1980
   69MOL   C31122207   3.030   1.143   3.200  0.4979 -0.0387 -0.0447
   69MOL   H31222208   2.832   1.382   3.560  1.4359 -0.6631  0.2472
   69MOL   H31322209   2.730   1.293   3.674  1.4435  0.6738  1.3343
   69MOL   H31422210   2.834   1.079   3.536  0.2678  0.4375  1.3232
   69MOL   H31522211   2.981   1.015   3.364  1.6393 -0.9235 -1.5638
   69MOL   H31622212   2.761   1.122   3.187  1.7001 -0.0688 -2.4254
   69MOL   H31722213   2.739   1.003   3.312 -1.8036  1.4990 -0.9989
   69MOL   H31822214   2.833   0.964   3.167  0.6615 -0.4694  0.6878
   69MOL   H31922215   3.037   1.071   3.119  0.0060 -0.0562 -0.0728
   69MOL   H32022216   3.131   1.157   3.240  0.8203 -0.2123 -0.7996
   69MOL   H32122217   2.984   1.231   3.156  0.3648  0.4932  1.1431
   69MOL   H32222218   2.722   1.179   3.456  1.0798  0.5336 -1.6619
   70MOL     C122219   4.718   4.829   6.260  0.5017  0.0295  0.3590
   70MOL     C222220   4.741   4.745   6.137  0.5388  0.8500 -0.3101
   70MOL     O322221   4.629   4.656   6.146 -0.1066 -0.2971 -0.1841
   70MOL     C422222   4.661   4.520   6.115  0.1460  0.1693 -0.4462
   70MOL     C522223   4.698   4.487   5.970 -0.4125 -0.1604  0.5471
   70MOL     C622224   4.534   4.447   6.150 -0.9708  0.6083  0.0485
   70MOL     H722225   4.754   4.783   6.352  2.6426 -0.1661 -0.5428
   70MOL     H822226   4.765   4.927   6.261 -0.3734  0.6450 -4.4625
   70MOL     H922227   4.842   4.705   6.152  0.5805  1.8492  2.2543
   70MOL    H1022228   4.738   4.493   6.187  2.3696  0.8053 -2.5152
   70MOL    H1122229   4.639   4.546   5.899  0.6230 -0.1737 -0.3450
   70MOL    H1222230   4.802   4.507   5.944 -1.1404  1.5218 -1.2611
   70MOL    H1322231   4.686   4.382   5.944  1.6753 -0.0182 -1.1718
   70MOL    H1422232   4.500   4.465   6.252  0.4494 -2.9181  1.2267
   70MOL    H1522233   4.463   4.471   6.071 -2.5851 -1.6241  0.7541
   70MOL    H1622234   4.560   4.341   6.140  3.4462  1.5995  0.0652
   70MOL    H1722235   4.613   4.851   6.277  0.8338 -0.1514  2.7282
   70MOL    C1822236   4.724   4.835   6.020 -0.1078  0.1990  0.2266
   70MOL    C1922237   4.842   4.934   5.996  0.3649 -0.6188  0.2387
   70MOL    O2022238   4.798   5.058   5.946  0.0921 -0.5849 -0.9508
   70MOL    C2122239   4.744   5.154   6.035  0.2574 -0.4449  0.4823
   70MOL    C2222240   4.653   5.247   5.944 -0.1044  0.2640  0.4337
   70MOL    C2322241   4.848   5.243   6.096  0.2766 -0.0419  0.1580
   70MOL    H2422242   4.720   4.766   5.936  0.7376 -0.0306  0.3722
   70MOL    H2522243   4.623   4.877   6.012 -0.0234  0.1987 -0.9326
   70MOL    H2622244   4.909   4.937   6.081  1.6745 -1.1921 -0.7476
   70MOL    H2722245   4.683   5.099   6.107 -1.1515 -1.9066 -1.7675
   70MOL    H2822246   4.706   5.272   5.853 -0.2518  0.5523  0.4279
   70MOL    H2922247   4.571   5.189   5.902 -0.2049  1.9694 -1.7897
   70MOL    H3022248   4.605   5.334   5.990  2.3562  0.9677  1.7677
   70MOL    H3122249   4.919   5.284   6.025 -1.8982  2.1534 -0.8097
   70MOL    H3222250   4.908   5.180   6.162  1.4456  2.6330  1.7166
   70MOL    H3322251   4.794   5.319   6.152  0.9086  1.4094 -1.1672
   70MOL    C3422252   4.934   4.883   5.881 -0.3264 -0.0004  0.8150
   70MOL    C3522253   5.060   4.965   5.860  0.1232  0.2699  0.1392
   70MOL    O3622254   5.164   4.932   5.949 -0.7946  0.5503 -0.2309
   70MOL    C3722255   5.257   5.037   5.973  0.0518  0.3249  0.7722
   70MOL    C3822256   5.211   5.133   6.091 -0.0168 -0.5890 -0.1815
   70MOL    C3922257   5.390   4.974   6.012  0.4148  0.5063  0.5432
   70MOL    H4022258   4.878   4.870   5.789 -0.2039  0.2002  0.7124
   70MOL    H4122259   4.965   4.784   5.912 -2.1585 -0.4049  1.3914
   70MOL    H4222260   5.028   5.068   5.874 -0.2643  0.1775 -0.0573
   70MOL    H4322261   5.272   5.098   5.884  0.7329 -1.5744 -0.4482
   70MOL    H4422262   5.109   5.166   6.077  0.3286  0.3372 -0.5428
   70MOL    H4522263   5.273   5.223   6.095  1.5703 -1.7252  2.1057
   70MOL    H4622264   5.210   5.090   6.191  1.1170  1.5017  0.7751
   70MOL    H4722265   5.425   4.907   5.933 -0.8188 -0.7639  1.0588
   70MOL    H4822266   5.464   5.050   6.036  1.5938  0.1490 -1.8389
   70MOL    H4922267   5.382   4.906   6.096 -2.4467  2.5934  2.0239
   70MOL    C5022268   5.110   4.943   5.711  0.5208 -0.5633  0.2402
   70MOL    C5122269   5.029   5.030   5.612 -0.4455 -0.6645  0.5354
   70MOL    O5222270   4.919   4.955   5.571  0.1037 -0.4233 -0.1238
   70MOL    C5322271   4.820   5.032   5.510  0.1686  0.4676  0.1760
   70MOL    C5422272   4.706   5.038   5.614 -0.4074 -0.2808 -0.0570
   70MOL    C5522273   4.758   4.957   5.387  0.2497  0.0071  0.9223
   70MOL    H5622274   5.214   4.976   5.715 -0.1247  1.4809  0.9680
   70MOL    H5722275   5.103   4.837   5.686  0.5705 -0.0719 -1.9555
   70MOL    H5822276   4.984   5.120   5.654 -3.4922 -1.3950 -1.0403
   70MOL    H5922277   4.851   5.135   5.494  0.1860  0.7367  1.8901
   70MOL    H6022278   4.731   5.085   5.709  0.2102 -0.4142 -0.1507
   70MOL    H6122279   4.682   4.937   5.646 -1.4907  0.1373  0.4902
   70MOL    H6222280   4.616   5.086   5.575 -1.1466 -0.7454  1.0575
   70MOL    H6322281   4.680   5.021   5.346 -1.3500 -2.2974  0.2894
   70MOL    H6422282   4.722   4.858   5.414 -0.7157  0.4174  1.1691
   70MOL    H6522283   4.835   4.939   5.312  0.8378  1.9056  1.0465
   70MOL    C6622284   5.116   5.057   5.490  0.4194  0.2487  0.3928
   70MOL    C6722285   5.212   5.178   5.523 -0.3442  0.6114 -0.7430
   70MOL    O6822286   5.125   5.288   5.513 -0.2433 -0.3715  0.8954
   70MOL    C6922287   5.156   5.404   5.592  0.7954 -0.4498 -0.2479
   70MOL    C7022288   5.077   5.516   5.526  0.0352  0.2589  0.0442
   70MOL    C7122289   5.114   5.384   5.736  0.4535 -0.4660 -0.1772
   70MOL    H7222290   5.168   4.966   5.464  1.0779  1.1117 -1.3857
   70MOL    H7322291   5.061   5.076   5.398 -2.8886 -0.7486  2.0998
   70MOL    H7422292   5.263   5.166   5.619 -3.1683  0.7208  0.8150
   70MOL    H7522293   5.262   5.429   5.591  0.2593  1.8749 -2.2350
   70MOL    H7622294   5.100   5.536   5.421  0.5103  0.6963  0.2256
   70MOL    H7722295   4.978   5.471   5.525  0.2544 -0.2187 -1.7479
   70MOL    H7822296   5.074   5.604   5.590  1.7265 -1.9451  3.2704
   70MOL    H7922297   5.007   5.368   5.752  0.2950 -0.9455 -1.6677
   70MOL    H8022298   5.149   5.461   5.805 -0.0291 -1.4806  1.2315
   70MOL    H8122299   5.162   5.297   5.780 -2.0166 -0.9767  1.6271
   70MOL    C8222300   5.327   5.194   5.419 -0.0544  0.0366 -0.0519
   70MOL    C8322301   5.422   5.075   5.419  0.1550  0.3735  0.5473
   70MOL    O8422302   5.496   5.065   5.299 -0.7640  0.0669  0.3263
   70MOL    C8522303   5.431   5.026   5.184  0.0471  0.0588 -0.2501
   70MOL    C8622304   5.462   4.875   5.148 -0.2112  0.0700 -0.5833
   70MOL    C8722305   5.463   5.110   5.059 -0.3624  0.2716  0.1963
   70MOL    H8822306   5.271   5.194   5.325  0.5720 -0.5437 -0.4292
   70MOL    H8922307   5.387   5.284   5.424  1.5481 -0.8260 -2.5904
   70MOL    H9022308   5.367   4.982   5.432 -2.3684  1.7213 -0.0412
   70MOL    H9122309   5.323   5.034   5.199  0.0650  0.0348 -0.1044
   70MOL    H9222310   5.569   4.861   5.160  0.0436  1.7650 -0.8292
   70MOL    H9322311   5.411   4.799   5.206 -0.9177 -0.1434 -1.4647
   70MOL    H9422312   5.437   4.853   5.044 -0.9915  1.1821 -0.6370
   70MOL    H9522313   5.567   5.105   5.027 -0.0050 -0.0389  1.3487
   70MOL    H9622314   5.427   5.062   4.969  0.6461  1.3847 -0.8144
   70MOL    H9722315   5.426   5.212   5.068  0.6819  0.7357 -0.6629
   70MOL    C9822316   5.517   5.073   5.546 -0.1493  0.1049 -0.0345
   70MOL    C9922317   5.599   4.946   5.566 -0.7260 -0.4971  0.0693
   70MOL   O10022318   5.519   4.846   5.616  0.0840 -0.4527  0.1313
   70MOL   C10122319   5.547   4.710   5.585 -0.5373  0.1031  0.2808
   70MOL   C10222320   5.482   4.665   5.454  0.4575  0.7588 -0.2361
   70MOL   C10322321   5.507   4.626   5.705  0.4377 -0.3844 -0.5277
   70MOL   H10422322   5.580   5.161   5.527  1.5423 -1.3278 -1.3138
   70MOL   H10522323   5.462   5.096   5.637  0.1310  0.9705 -0.0722
   70MOL   H10622324   5.652   4.924   5.473  1.2559 -0.2651  1.1050
   70MOL   H10722325   5.656   4.707   5.591 -0.4967  2.0578  1.0861
   70MOL   H10822326   5.540   4.684   5.363  0.6339  0.9336 -0.0859
   70MOL   H10922327   5.381   4.700   5.432  1.8910  2.3546 -4.9114
   70MOL   H11022328   5.480   4.556   5.453 -0.7624  0.7785 -1.2338
   70MOL   H11122329   5.402   4.645   5.731  0.1789 -0.6389 -1.3708
   70MOL   H11222330   5.568   4.646   5.794 -0.1650  0.2758 -0.2506
   70MOL   H11322331   5.513   4.520   5.684  0.7157 -0.5284  0.2618
   70MOL   C11422332   5.716   4.976   5.663 -0.1350 -0.1050  0.1777
   70MOL   C11522333   5.837   5.050   5.614  0.2913 -0.2754 -0.4719
   70MOL   O11622334   5.818   5.186   5.588  0.7268 -0.2160  0.1384
   70MOL   C11722335   5.830   5.238   5.456 -0.7502  0.4532  0.0312
   70MOL   C11822336   5.975   5.251   5.416 -0.5832 -0.5688 -0.0862
   70MOL   C11922337   5.759   5.374   5.459 -0.3865  0.8606  0.2326
   70MOL   H12022338   5.751   4.879   5.698  1.6025  0.0913 -0.9223
   70MOL   H12122339   5.676   5.040   5.742 -0.5572  1.2847 -1.1228
   70MOL   H12222340   5.859   5.007   5.516 -1.8379  1.0529 -1.5758
   70MOL   H12322341   5.783   5.161   5.394  1.1203 -1.0032  0.3750
   70MOL   H12422342   6.037   5.280   5.501  0.5353 -1.5648 -0.5472
   70MOL   H12522343   5.998   5.298   5.320  0.1953 -2.3539 -0.7951
   70MOL   H12622344   6.016   5.151   5.398 -0.9703 -0.7493  0.0368
   70MOL   H12722345   5.651   5.358   5.451 -0.2381 -0.1282  0.1832
   70MOL   H12822346   5.781   5.452   5.386  0.6813  0.9620  0.6561
   70MOL   H12922347   5.778   5.419   5.556  0.6783  1.8595 -0.4177
   70MOL   C13022348   5.957   5.051   5.710 -0.2839 -1.2072 -0.3334
   70MOL   C13122349   6.030   4.914   5.731  0.0019  0.6874  0.8511
   70MOL   O13222350   6.150   4.934   5.814 -0.2926 -0.4420 -0.4475
   70MOL   C13322351   6.133   4.954   5.956  0.0680 -0.3451  0.1116
   70MOL   C13422352   6.188   4.829   6.024 -0.1700 -0.0629 -0.3083
   70MOL   C13522353   6.189   5.089   5.989  0.1906 -0.2534  0.1850
   70MOL   H13622354   5.929   5.092   5.807 -1.7965 -2.4808 -0.2219
   70MOL   H13722355   6.031   5.121   5.671 -1.6025  1.0970  1.1824
   70MOL   H13822356   5.960   4.841   5.772 -0.9796  2.5526  2.5939
   70MOL   H13922357   6.027   4.962   5.979  0.1767  2.9412 -0.3477
   70MOL   H14022358   6.191   4.834   6.133  0.3973 -1.3612 -0.2578
   70MOL   H14122359   6.287   4.805   5.985 -0.6789 -0.7298 -1.2026
   70MOL   H14222360   6.130   4.743   5.991 -0.2477 -0.1911  0.1583
   70MOL   H14322361   6.164   5.169   5.919  0.4822 -0.0150  0.3528
   70MOL   H14422362   6.158   5.136   6.081 -0.3544  0.9032 -0.5819
   70MOL   H14522363   6.296   5.068   5.980 -0.0324 -1.5120  0.3121
   70MOL   C14622364   6.089   4.853   5.603  0.0264 -0.3813 -0.3384
   70MOL   C14722365   6.098   4.702   5.597  0.2263 -0.1571 -0.4986
   70MOL   O14822366   5.970   4.652   5.544  0.3161 -0.6174  0.1999
   70MOL   C14922367   5.953   4.512   5.576 -0.5564 -0.2061  0.3616
   70MOL   C15022368   5.871   4.464   5.459 -0.3927  0.0009  0.4247
   70MOL   C15122369   5.884   4.480   5.712 -0.2132 -0.4977 -0.5383
   70MOL   H15222370   6.186   4.893   5.577 -0.6160  3.0894  2.2875
   70MOL   H15322371   6.032   4.881   5.514 -1.0075 -1.1587  0.0602
   70MOL   H15422372   6.125   4.660   5.694 -2.4601 -0.4881  0.1552
   70MOL   H15522373   6.045   4.455   5.565 -1.6104 -1.3220 -3.9099
   70MOL   H15622374   5.851   4.357   5.460 -2.8636  0.4053 -0.9151
   70MOL   H15722375   5.918   4.488   5.364 -2.3200 -1.2136 -0.8618
   70MOL   H15822376   5.775   4.517   5.459 -0.3280  0.1235 -0.5355
   70MOL   H15922377   5.873   4.372   5.728  2.1702 -0.5010  1.3086
   70MOL   H16022378   5.791   4.534   5.732  0.4524  0.7334 -0.7374
   70MOL   H16122379   5.954   4.513   5.789 -1.8313  2.5406 -0.2886
   70MOL   C16222380   6.210   4.662   5.494 -0.2235 -0.2597 -0.2940
   70MOL   C16322381   6.345   4.641   5.556 -0.3127 -0.2119  0.5171
   70MOL   O16422382   6.348   4.521   5.630  0.0926 -0.7889 -0.4608
   70MOL   C16522383   6.447   4.518   5.729  0.4314 -0.0079  0.0536
   70MOL   C16622384   6.479   4.371   5.763  0.5043 -0.0916  0.5106
   70MOL   C16722385   6.403   4.602   5.854  0.5475  0.3190 -0.3484
   70MOL   H16822386   6.178   4.574   5.439  0.4172 -1.7887  1.7063
   70MOL   H16922387   6.206   4.730   5.409  2.6307  0.9324  0.4767
   70MOL   H17022388   6.361   4.729   5.619 -0.4127  0.7559 -0.7820
   70MOL   H17122389   6.542   4.564   5.702 -0.0362  0.7253 -0.3555
   70MOL   H17222390   6.407   4.301   5.805  0.0664  0.1080  0.0996
   70MOL   H17322391   6.558   4.372   5.838 -0.8630  0.0834  1.9832
   70MOL   H17422392   6.510   4.320   5.672 -0.0063  0.6937 -0.1129
   70MOL   H17522393   6.417   4.708   5.832  0.3334  0.3161 -0.5006
   70MOL   H17622394   6.483   4.575   5.922 -0.6043  0.6903  1.1754
   70MOL   H17722395   6.305   4.563   5.882  0.9022 -1.6968 -1.7602
   70MOL   C17822396   6.452   4.639   5.449 -0.4393  0.1546 -0.0399
   70MOL   C17922397   6.513   4.776   5.419 -0.4573 -0.1481 -0.2504
   70MOL   O18022398   6.616   4.793   5.519  0.4588 -0.9860 -0.0400
   70MOL   C18122399   6.648   4.931   5.544  0.9886  0.3604  0.5963
   70MOL   C18222400   6.794   4.937   5.584  0.4109 -0.5578 -0.3406
   70MOL   C18322401   6.558   4.999   5.654 -0.8054 -0.1272 -0.0898
   70MOL   H18422402   6.417   4.577   5.366 -2.2296  1.6780 -0.4721
   70MOL   H18522403   6.530   4.582   5.499 -0.2046 -0.2614 -0.8752
   70MOL   H18622404   6.449   4.863   5.429  0.3144  0.3380  0.4797
   70MOL   H18722405   6.636   4.999   5.460 -0.0648  2.5234  2.4421
   70MOL   H18822406   6.851   4.908   5.496  1.7261 -1.3427  0.7335
   70MOL   H18922407   6.806   4.860   5.661  1.3473  0.1420  0.2254
   70MOL   H19022408   6.819   5.036   5.622 -1.1168 -0.7856  1.3425
   70MOL   H19122409   6.455   5.013   5.621 -0.6296  1.3511 -0.0230
   70MOL   H19222410   6.596   5.097   5.680 -0.9800 -0.0461 -0.1406
   70MOL   H19322411   6.542   4.938   5.743  0.5199  0.0447  0.2817
   70MOL   C19422412   6.574   4.760   5.277  0.4016  0.1288 -0.0118
   70MOL   C19522413   6.465   4.766   5.159  0.8008 -0.6071 -0.5749
   70MOL   O19622414   6.510   4.726   5.030 -0.4041 -0.1787 -0.4463
   70MOL   C19722415   6.512   4.589   4.997 -0.0334  1.0074  0.8428
   70MOL   C19822416   6.370   4.545   4.975  0.3089  0.5351  0.0979
   70MOL   C19922417   6.610   4.562   4.879  0.1836 -0.6777  0.1174
   70MOL   H20022418   6.632   4.851   5.261  0.1991 -0.0930 -2.1381
   70MOL   H20122419   6.635   4.670   5.266 -0.2273 -0.1275 -1.6131
   70MOL   H20222420   6.389   4.700   5.200  2.7963 -2.3060  0.4545
   70MOL   H20322421   6.549   4.535   5.084  0.4354 -1.7484 -1.0183
   70MOL   H20422422   6.346   4.460   4.910 -0.2582  0.5505  0.2812
   70MOL   H20522423   6.318   4.512   5.065 -0.1543 -0.1328 -0.4114
   70MOL   H20622424   6.311   4.625   4.930 -2.2277  0.9498  3.9424
   70MOL   H20722425   6.691   4.635   4.875 -0.5370  0.1169 -0.4306
   70MOL   H20822426   6.637   4.457   4.871 -3.2028 -1.4027 -3.2490
   70MOL   H20922427   6.567   4.592   4.783  1.0114 -2.0110 -0.6715
   70MOL   C21022428   6.408   4.911   5.134  0.2478  0.2646  1.1491
   70MOL   C21122429   6.277   4.924   5.050  0.0480  0.3843  0.3044
   70MOL   O21222430   6.177   4.876   5.139 -0.6034 -0.4831 -0.3401
   70MOL   C21322431   6.043   4.861   5.094  0.2181 -0.1477 -0.8558
   70MOL   C21422432   6.018   4.710   5.103 -0.5366 -0.7661 -0.4583
   70MOL   C21522433   5.958   4.946   5.187 -0.6336  0.7022 -0.1701
   70MOL   H21622434   6.486   4.979   5.099 -0.8033 -0.3953 -2.7427
   70MOL   H21722435   6.377   4.955   5.229 -1.5268  0.8518  0.3202
   70MOL   H21822436   6.287   4.859   4.964 -1.1594  0.3567  0.1840
   70MOL   H21922437   6.033   4.900   4.992  1.7597 -0.5241 -1.1636
   70MOL   H22022438   5.914   4.679   5.087 -0.1727 -2.3006  0.0786
   70MOL   H22122439   6.031   4.664   5.201 -0.2727 -4.0107 -1.9597
   70MOL   H22222440   6.086   4.660   5.034  2.2786  0.5887  1.2628
   70MOL   H22322441   5.966   5.054   5.178 -0.0278  0.5856 -1.0969
   70MOL   H22422442   5.967   4.919   5.292  0.3040  0.1749 -0.3772
   70MOL   H22522443   5.852   4.928   5.169 -1.1120  1.2973  1.9469
   70MOL   C22622444   6.256   5.071   5.004  0.0309 -0.0603  0.1701
   70MOL   C22722445   6.325   5.094   4.864  0.0147  0.0182 -0.5267
   70MOL   O22822446   6.470   5.081   4.876 -0.3234 -0.0922  0.1673
   70MOL   C22922447   6.536   5.062   4.754 -0.9641  0.4466  0.5069
   70MOL   C23022448   6.603   4.927   4.751  0.1671 -0.8367  0.0540
   70MOL   C23122449   6.641   5.178   4.747 -0.1564 -0.0297  0.2125
   70MOL   H23222450   6.283   5.135   5.088 -1.5008  0.1096  0.5562
   70MOL   H23322451   6.152   5.088   4.977  0.0945  0.0620 -0.0004
   70MOL   H23422452   6.282   5.008   4.813 -2.7667 -0.0820  1.8520
   70MOL   H23522453   6.466   5.065   4.671  0.0940  2.8742 -0.3457
   70MOL   H23622454   6.691   4.932   4.814 -0.8099 -1.0313  1.4650
   70MOL   H23722455   6.543   4.848   4.796  1.8095 -1.1429  1.7576
   70MOL   H23822456   6.641   4.896   4.654  1.1467  0.2061  0.0886
   70MOL   H23922457   6.688   5.157   4.651 -0.7461  0.3648 -0.1662
   70MOL   H24022458   6.717   5.170   4.824  0.8087 -0.0120 -0.7230
   70MOL   H24122459   6.603   5.279   4.730  1.0105  0.1876 -1.2185
   70MOL   C24222460   6.290   5.232   4.796  0.9335 -0.6725  0.9116
   70MOL   C24322461   6.146   5.230   4.737 -0.2143  0.2138 -0.4683
   70MOL   O24422462   6.144   5.144   4.625  0.0640  0.0444  0.1136
   70MOL   C24522463   6.024   5.065   4.598 -0.0129 -0.4220  0.2144
   70MOL   C24622464   6.026   5.039   4.450  0.2154 -0.3039 -1.2703
   70MOL   C24722465   6.047   4.933   4.679  0.3832 -0.2848  0.2071
   70MOL   H24822466   6.302   5.312   4.869  1.5835  0.3057 -0.2531
   70MOL   H24922467   6.368   5.253   4.723  1.3844 -0.9417  1.3114
   70MOL   H25022468   6.072   5.200   4.812 -0.5286  0.3178 -0.7351
   70MOL   H25122469   5.936   5.124   4.625 -0.0889 -1.1128  1.5370
   70MOL   H25222470   5.945   4.979   4.409  0.0573 -0.9029 -0.0887
   70MOL   H25322471   6.009   5.136   4.403  1.3041 -0.5373 -2.1642
   70MOL   H25422472   6.122   4.998   4.421  1.2749  2.2180 -1.4390
   70MOL   H25522473   5.973   4.855   4.662  1.7278 -1.4319 -0.4783
   70MOL   H25622474   6.148   4.894   4.672  0.4169 -0.3672  1.0615
   70MOL   H25722475   6.036   4.973   4.780  0.2779  3.1736 -1.1047
   70MOL   C25822476   6.104   5.373   4.683 -0.0268  0.3085  0.0693
   70MOL   C25922477   6.046   5.471   4.796 -0.1273 -0.2617  0.2125
   70MOL   O26022478   5.921   5.428   4.840  0.7390  0.6608  0.4879
   70MOL   C26122479   5.905   5.336   4.948  0.4187  0.4463  0.4630
   70MOL   C26222480   5.829   5.418   5.056 -0.1108 -0.4047  0.1384
   70MOL   C26322481   5.826   5.205   4.921  0.0505 -0.1056  0.2129
   70MOL   H26422482   6.185   5.415   4.623  1.4961 -1.6614  0.6669
   70MOL   H26522483   6.019   5.366   4.615  1.4689  0.0305 -1.8167
   70MOL   H26622484   6.120   5.477   4.876  0.1110  1.9492 -0.1606
   70MOL   H26722485   6.004   5.322   4.993  0.4900  3.0479  1.1972
   70MOL   H26822486   5.885   5.497   5.105  0.3057 -1.6810  1.7708
   70MOL   H26922487   5.822   5.339   5.131 -2.9661  0.5021  0.8919
   70MOL   H27022488   5.728   5.453   5.037  1.2297  3.0735 -0.8807
   70MOL   H27122489   5.855   5.162   4.825 -3.5801 -1.3547 -0.4048
   70MOL   H27222490   5.841   5.134   5.003  0.3074 -1.2391 -0.8034
   70MOL   H27322491   5.719   5.217   4.905 -0.7102 -3.8513  1.9855
   70MOL   C27422492   6.038   5.617   4.750 -0.7352  0.2592  0.5285
   70MOL   C27522493   6.017   5.711   4.867  0.3847 -0.0683 -1.0764
   70MOL   O27622494   6.141   5.712   4.936  0.1821 -0.1414 -0.0353
   70MOL   C27722495   6.133   5.683   5.079 -0.1611 -0.1850 -0.4689
   70MOL   C27822496   6.050   5.785   5.158  0.1554  0.3056 -0.3042
   70MOL   C27922497   6.280   5.693   5.119  0.1868 -0.0095  0.1274
   70MOL   H28022498   6.125   5.650   4.693 -0.0172  1.5853  2.3523
   70MOL   H28122499   5.960   5.617   4.675  1.7144 -3.8744 -2.2281
   70MOL   H28222500   5.935   5.676   4.930  1.0822  0.1055 -0.0614
   70MOL   H28322501   6.099   5.580   5.079 -0.5060 -0.1057  1.6596
   70MOL   H28422502   6.093   5.885   5.152 -0.1459  0.4033 -0.8774
   70MOL   H28522503   5.944   5.773   5.137  0.1646 -3.1882  1.3228
   70MOL   H28622504   6.057   5.759   5.263  1.5606 -0.1361 -0.4860
   70MOL   H28722505   6.314   5.795   5.103 -1.9988  0.6218 -0.5346
   70MOL   H28822506   6.350   5.632   5.062  2.5245  1.3065  1.4899
   70MOL   H28922507   6.284   5.668   5.226 -0.1342  1.6440  0.5333
   70MOL   C29022508   5.982   5.857   4.811  0.3118 -0.3778  0.0673
   70MOL   C29122509   5.833   5.874   4.769  0.5836 -0.6391 -0.3669
   70MOL   O29222510   5.762   5.892   4.889 -0.2486 -1.2270 -0.3593
   70MOL   C29322511   5.622   5.846   4.876 -0.3474 -0.1108 -0.7370
   70MOL   C29422512   5.524   5.932   4.967  0.3762  0.4689  0.5428
   70MOL   C29522513   5.626   5.693   4.897  0.1303 -0.3623 -0.5604
   70MOL   H29622514   6.040   5.873   4.720 -1.3630  0.7847 -0.8230
   70MOL   H29722515   6.023   5.930   4.881  0.4972 -1.2863  0.9217
   70MOL   H29822516   5.793   5.793   4.708 -1.9848  0.4680 -0.2156
   70MOL   H29922517   5.581   5.849   4.775  1.2286 -0.6670 -1.4317
   70MOL   H30022518   5.552   5.940   5.072  3.3784  0.8313 -0.2265
   70MOL   H30122519   5.526   6.036   4.934 -2.7782  0.6484  0.7751
   70MOL   H30222520   5.422   5.896   4.951  0.6943 -0.1712 -0.0825
   70MOL   H30322521   5.679   5.644   4.815  1.8368 -1.3166  1.0916
   70MOL   H30422522   5.665   5.677   4.997 -0.2416  0.6789 -0.2382
   70MOL   H30522523   5.522   5.659   4.893 -0.0309 -0.1848  1.5251
   70MOL   C30622524   5.811   6.001   4.690 -0.0415 -0.7665  0.1348
   70MOL   C30722525   5.891   6.020   4.561 -0.4368 -0.1449 -0.3098
   70MOL   O30822526   5.903   5.898   4.490 -0.0529  0.1232  0.7080
   70MOL   C30922527   5.999   5.901   4.390 -1.0057 -0.4602 -0.8467
   70MOL   C31022528   6.066   5.756   4.379 -0.0184  0.0248  0.0929
   70MOL   C31122529   5.930   5.949   4.259 -0.8344 -0.3234  0.6490
   70MOL   H31222530   5.832   6.084   4.758 -1.4808  1.2568 -1.8024
   70MOL   H31322531   5.707   6.021   4.665  0.0106 -0.1183  0.4179
   70MOL   H31422532   5.869   6.110   4.503  3.9528  0.3720 -1.3926
   70MOL   H31522533   6.082   5.968   4.412 -0.4857 -1.2401 -0.4221
   70MOL   H31622534   6.020   5.700   4.461  2.1914  0.0818  1.4009
   70MOL   H31722535   6.174   5.767   4.391  0.2926 -0.7599 -1.8656
   70MOL   H31822536   6.038   5.706   4.286  0.3970 -0.4947  0.2431
   70MOL   H31922537   5.882   6.047   4.268  1.5974  1.1876 -1.8660
   70MOL   H32022538   5.869   5.868   4.219  0.8219 -1.0143 -0.5176
   70MOL   H32122539   6.016   5.957   4.193 -0.8728 -2.2079  0.3450
   70MOL   H32222540   5.994   6.048   4.584 -0.7656  2.2681 -1.6319
   71MOL     C122541   4.276   1.314   1.287  0.4645 -0.7878  0.1341
   71MOL     C222542   4.239   1.299   1.139  0.7787 -0.3911  0.4431
   71MOL     O322543   4.272   1.414   1.059  0.0487  0.0311  0.1764
   71MOL     C422544   4.214   1.426   0.932 -1.3412 -0.5775  0.2328
   71MOL     C522545   4.317   1.527   0.862  0.3836 -0.6362  0.4596
   71MOL     C622546   4.076   1.490   0.927  0.2819  0.3199  0.6919
   71MOL     H722547   4.236   1.225   1.337 -0.6873 -0.4987 -0.2483
   71MOL     H822548   4.382   1.299   1.303  0.8188  0.5149 -0.9276
   71MOL     H922549   4.133   1.280   1.128  0.7248  0.6272 -0.8362
   71MOL    H1022550   4.217   1.336   0.870  2.6595 -0.3654 -0.0241
   71MOL    H1122551   4.295   1.542   0.756  0.7701 -1.6401  0.2274
   71MOL    H1222552   4.309   1.625   0.910 -2.9219 -0.0062 -1.1677
   71MOL    H1322553   4.420   1.494   0.859 -0.2091 -2.4831 -0.3187
   71MOL    H1422554   4.066   1.593   0.962 -0.3974  0.7070 -0.5976
   71MOL    H1522555   4.044   1.475   0.824 -1.0213 -1.0943  1.2929
   71MOL    H1622556   4.005   1.432   0.985  0.5546  1.0875  1.8198
   71MOL    H1722557   4.246   1.405   1.337  0.9965  0.0691 -1.0861
   71MOL    C1822558   4.322   1.191   1.070  0.6367 -0.3696 -0.5141
   71MOL    C1922559   4.330   1.053   1.140  0.1760 -0.7084  0.3265
   71MOL    O2022560   4.395   0.962   1.057  0.2250 -0.2129  0.5349
   71MOL    C2122561   4.534   0.988   1.047 -0.2809 -0.3009 -0.2534
   71MOL    C2222562   4.580   0.953   0.908  0.7579 -0.2768 -0.2937
   71MOL    C2322563   4.608   0.896   1.147 -1.0232 -1.4775  0.1089
   71MOL    H2422564   4.293   1.177   0.966 -3.2784  0.9621  0.3260
   71MOL    H2522565   4.419   1.240   1.064  1.3186 -1.8411 -1.8061
   71MOL    H2622566   4.391   1.059   1.230  1.6048 -1.4635 -0.5812
   71MOL    H2722567   4.558   1.094   1.059 -0.3310 -0.3290  0.0965
   71MOL    H2822568   4.525   0.877   0.853  1.5451 -0.0940 -1.3440
   71MOL    H2922569   4.578   1.042   0.844 -0.7874  0.8805  1.3007
   71MOL    H3022570   4.683   0.918   0.912  0.5933 -0.5828  1.5706
   71MOL    H3122571   4.552   0.889   1.240  0.0151 -1.2164  0.7686
   71MOL    H3222572   4.704   0.937   1.179 -2.9022  1.6498  1.9123
   71MOL    H3322573   4.623   0.793   1.113  0.4554 -0.6201 -1.9156
   71MOL    C3422574   4.190   1.000   1.159 -0.6723 -0.3510 -0.3891
   71MOL    C3522575   4.170   0.873   1.239  0.1884  0.4216  0.4521
   71MOL    O3622576   4.043   0.901   1.285  0.6975  0.0098  0.8456
   71MOL    C3722577   3.995   0.848   1.409 -0.0980  0.0309 -0.4140
   71MOL    C3822578   3.997   0.976   1.501 -0.0306  0.5253  0.3670
   71MOL    C3922579   3.852   0.794   1.399 -0.1483 -0.6193 -0.2009
   71MOL    H4022580   4.132   0.990   1.067 -1.4347  0.2589  0.0139
   71MOL    H4122581   4.138   1.078   1.214  2.4257  1.1128  0.5092
   71MOL    H4222582   4.238   0.855   1.322 -0.0666 -2.2740  0.1314
   71MOL    H4322583   4.058   0.765   1.442 -0.1275  0.1640 -0.0239
   71MOL    H4422584   3.911   1.041   1.481 -1.0219 -0.8565  0.0689
   71MOL    H4522585   4.089   1.035   1.494  0.2370  0.4080  2.5075
   71MOL    H4622586   3.984   0.949   1.606  0.9063 -0.0489  0.3399
   71MOL    H4722587   3.842   0.707   1.335 -0.8469 -0.3814 -0.4195
   71MOL    H4822588   3.829   0.757   1.499 -0.7836  1.5258  0.4872
   71MOL    H4922589   3.784   0.870   1.359 -0.1634 -0.6284 -0.1923
   71MOL    C5022590   4.165   0.738   1.167  0.9498 -0.4575 -0.5934
   71MOL    C5122591   4.291   0.656   1.161 -0.3153  0.0780  0.4276
   71MOL    O5222592   4.259   0.551   1.071 -0.1996  0.4752  0.7021
   71MOL    C5322593   4.277   0.577   0.934  2.1423 -0.2011  0.1087
   71MOL    C5422594   4.184   0.491   0.855  0.3984  0.3595 -0.4458
   71MOL    C5522595   4.425   0.543   0.889 -0.1082  0.3389  0.0135
   71MOL    H5622596   4.084   0.675   1.204  0.9970 -1.2221 -1.7678
   71MOL    H5722597   4.133   0.765   1.066  0.0867  5.5827  1.0783
   71MOL    H5822598   4.375   0.716   1.127 -2.9528  2.9630 -1.3611
   71MOL    H5922599   4.256   0.681   0.906  0.8130 -0.5521 -0.2100
   71MOL    H6022600   4.082   0.523   0.878  0.0338  1.0800 -2.9779
   71MOL    H6122601   4.200   0.386   0.880  0.0402  0.3311 -0.3292
   71MOL    H6222602   4.203   0.498   0.748 -1.6474 -0.5111 -0.8944
   71MOL    H6322603   4.499   0.614   0.925  1.7290 -1.9578  0.8740
   71MOL    H6422604   4.435   0.540   0.780 -0.2293 -0.6220  0.0245
   71MOL    H6522605   4.455   0.444   0.922  0.3350  0.4367 -0.0952
   71MOL    C6622606   4.340   0.588   1.298  0.1965  0.2105 -0.3848
   71MOL    C6722607   4.242   0.495   1.362  0.6597  0.4966  0.3173
   71MOL    O6822608   4.289   0.469   1.497  0.1224 -0.3362  0.5327
   71MOL    C6922609   4.214   0.516   1.607  0.6107 -0.4336 -0.0272
   71MOL    C7022610   4.160   0.406   1.697 -0.3063  0.1227  0.0102
   71MOL    C7122611   4.311   0.600   1.697 -0.2128 -0.2700  0.2629
   71MOL    H7222612   4.440   0.547   1.287  0.4402  1.0692 -1.5118
   71MOL    H7322613   4.348   0.671   1.369 -1.8934 -1.7274  2.2533
   71MOL    H7422614   4.142   0.538   1.355 -0.5315 -2.3812 -1.0864
   71MOL    H7522615   4.130   0.577   1.576  0.7320  0.8177  2.0048
   71MOL    H7622616   4.246   0.350   1.733  0.6816  0.8326 -1.2441
   71MOL    H7722617   4.092   0.442   1.774  0.7968 -0.9408  1.5156
   71MOL    H7822618   4.106   0.338   1.631  1.1801 -0.5243 -0.5644
   71MOL    H7922619   4.375   0.532   1.753  0.9741  0.4279 -0.2298
   71MOL    H8022620   4.271   0.669   1.772 -0.0333 -0.9204  0.9651
   71MOL    H8122621   4.364   0.669   1.631 -0.9640  1.8771  1.8293
   71MOL    C8222622   4.220   0.357   1.293 -0.9066  0.0963 -0.3690
   71MOL    C8322623   4.139   0.253   1.365  0.6783 -0.1212  0.8773
   71MOL    O8422624   4.087   0.181   1.247  0.4402 -0.2527 -0.3439
   71MOL    C8522625   3.952   0.201   1.206  0.0290 -0.4861 -0.3426
   71MOL    C8622626   3.915   0.072   1.132 -0.0837  0.1776  0.1048
   71MOL    C8722627   3.942   0.330   1.117  0.6883  0.3575  0.4056
   71MOL    H8822628   4.171   0.381   1.199 -1.8280 -0.4599 -0.0374
   71MOL    H8922629   4.325   0.330   1.279 -0.9323  1.0166 -2.4040
   71MOL    H9022630   4.061   0.298   1.427  0.1409 -2.3067  1.8282
   71MOL    H9122631   3.879   0.222   1.284  1.1740 -1.2286  0.9600
   71MOL    H9222632   3.994   0.044   1.061 -0.5012  0.5810 -0.5155
   71MOL    H9322633   3.920   7.815   1.209 -0.7698  0.3920  0.3642
   71MOL    H9422634   3.815   0.065   1.090 -0.2675  0.8920  0.4279
   71MOL    H9522635   4.021   0.332   1.042  1.8446  3.0265  1.6287
   71MOL    H9622636   3.843   0.336   1.071  0.8088  0.3787  0.1500
   71MOL    H9722637   3.959   0.424   1.170 -0.1205  0.6310  0.2017
   71MOL    C9822638   4.216   0.143   1.445  0.2462  0.5797 -0.1352
   71MOL    C9922639   4.113   0.038   1.512  0.4643  0.4934 -0.2502
   71MOL   O10022640   4.006   0.114   1.571  0.2024 -1.0837 -0.1936
   71MOL   C10122641   3.870   0.079   1.536 -0.6219  0.2609 -0.2118
   71MOL   C10222642   3.772   0.181   1.593 -0.6698  0.3867 -0.7000
   71MOL   C10322643   3.835   7.764   1.602 -0.2988 -0.2132 -0.1405
   71MOL   H10422644   4.280   0.085   1.378 -0.6599 -0.0141 -0.4985
   71MOL   H10522645   4.278   0.182   1.526 -0.0945 -2.3913  1.6077
   71MOL   H10622646   4.073   7.789   1.438 -0.0223  1.4593 -0.9124
   71MOL   H10722647   3.864   0.073   1.428  0.3608  1.4392 -0.3319
   71MOL   H10822648   3.672   0.139   1.592 -0.4647 -0.1225 -2.7185
   71MOL   H10922649   3.774   0.269   1.528 -2.9014  1.8531  1.1555
   71MOL   H11022650   3.783   0.217   1.695  0.1855 -3.0041  0.4841
   71MOL   H11122651   3.905   7.696   1.554 -0.2468  0.3059 -0.8171
   71MOL   H11222652   3.735   7.724   1.589  0.7699 -2.6295 -1.2934
   71MOL   H11322653   3.847   7.766   1.710 -1.1169  1.0597 -0.0587
   71MOL   C11422654   4.167   7.781   1.638  0.0524  0.0734  0.4247
   71MOL   C11522655   4.319   7.748   1.646  0.3940  0.0168  0.3288
   71MOL   O11622656   4.332   7.683   1.767  0.2959 -0.2246 -0.0078
   71MOL   C11722657   4.399   7.756   1.869  0.3339  0.3387  0.3216
   71MOL   C11822658   4.425   7.647   1.980  0.2357  0.0905  0.8261
   71MOL   C11922659   4.310   0.059   1.920 -0.1116 -0.0283 -0.2144
   71MOL   H12022660   4.111   7.688   1.650 -0.1644 -0.0515 -1.3221
   71MOL   H12122661   4.143   0.021   1.725 -2.8926 -1.8232  1.0081
   71MOL   H12222662   4.379   0.017   1.627 -1.6790  1.0108 -1.6827
   71MOL   H12322663   4.490   7.797   1.826  0.6989  0.2024  0.9649
   71MOL   H12422664   4.338   7.581   1.984  0.4225 -0.1666  0.7109
   71MOL   H12522665   4.467   7.697   2.068  1.2590 -0.1049  0.4563
   71MOL   H12622666   4.504   7.589   1.930 -2.2258 -0.3717 -2.7097
   71MOL   H12722667   4.357   0.121   1.997 -2.2972 -0.1079  1.2191
   71MOL   H12822668   4.222   0.017   1.969 -1.8788  0.5811 -2.7536
   71MOL   H12922669   4.284   0.130   1.842  1.6092  1.6614  0.6933
   71MOL   C13022670   4.354   7.641   1.540 -0.2858 -0.1946  0.5949
   71MOL   C13122671   4.504   7.598   1.544  0.2426 -0.1438  0.6991
   71MOL   O13222672   4.595   7.685   1.479  0.1226 -0.3535  0.0710
   71MOL   C13322673   4.700   7.744   1.559  0.4742  0.3625 -0.3608
   71MOL   C13422674   4.792   7.632   1.619  0.0551  0.1443 -0.1335
   71MOL   C13522675   4.778   0.025   1.471 -0.0524 -0.1682 -0.9723
   71MOL   H13622676   4.327   7.669   1.438  0.3584 -2.1722 -0.1471
   71MOL   H13722677   4.302   7.549   1.568  3.4045 -2.7721 -0.6387
   71MOL   H13822678   4.535   7.578   1.646 -0.9560 -2.3326  0.6584
   71MOL   H13922679   4.654   7.799   1.641  2.6558 -1.6574  2.3119
   71MOL   H14022680   4.826   7.561   1.544 -0.8110 -2.3791  1.8137
   71MOL   H14122681   4.736   7.577   1.695 -1.2706 -0.0572 -1.2261
   71MOL   H14222682   4.879   7.676   1.667 -0.7145  2.0335 -0.4278
   71MOL   H14322683   4.717   0.099   1.419  0.9788  1.0010 -0.5490
   71MOL   H14422684   4.847   0.070   1.543  0.0008 -0.7989 -0.6198
   71MOL   H14522685   4.849   7.806   1.398  1.2694  0.8338 -0.2501
   71MOL   C14622686   4.531   7.470   1.473  0.0423  0.5366  0.1707
   71MOL   C14722687   4.483   7.447   1.328 -0.6628 -0.0095 -0.9990
   71MOL   O14822688   4.597   7.401   1.266  1.3191  0.5233 -0.1073
   71MOL   C14922689   4.672   7.500   1.187  0.6550  0.2592 -0.9812
   71MOL   C15022690   4.652   7.466   1.043  0.0980 -0.0816  0.1982
   71MOL   C15122691   4.822   7.487   1.217  0.5895  0.0195  0.5179
   71MOL   H15222692   4.482   7.395   1.535  1.7074  1.3912  2.5958
   71MOL   H15322693   4.638   7.452   1.484  0.3357  1.5183 -1.0610
   71MOL   H15422694   4.461   7.543   1.281 -1.9936  0.0780 -0.2068
   71MOL   H15522695   4.646   7.601   1.217  1.9168  0.3389 -0.1312
   71MOL   H15622696   4.703   7.544   0.986  0.5509  1.4330  2.6079
   71MOL   H15722697   4.546   7.476   1.022 -0.3832 -2.9303  1.0281
   71MOL   H15822698   4.678   7.370   0.997 -1.9780 -1.1446  1.1778
   71MOL   H15922699   4.881   7.559   1.159  1.1923  0.5876  1.8063
   71MOL   H16022700   4.859   7.387   1.197  1.6975  0.7204 -1.0350
   71MOL   H16122701   4.835   7.505   1.324  1.5834 -0.2710  0.4560
   71MOL   C16222702   4.358   7.347   1.319  0.2245 -0.1947 -0.2667
   71MOL   C16322703   4.307   7.323   1.168  0.1003 -0.6546 -0.8813
   71MOL   O16422704   4.288   7.446   1.097 -0.3069 -0.1301  0.1726
   71MOL   C16522705   4.195   7.541   1.142 -0.0903  0.3310 -0.7480
   71MOL   C16622706   4.075   7.515   1.072  0.4967 -0.7259  0.3629
   71MOL   C16722707   4.251   7.674   1.111 -1.0623 -0.0078  0.8018
   71MOL   H16822708   4.403   7.253   1.351  0.7569  0.6565  1.5301
   71MOL   H16922709   4.281   7.362   1.395 -0.0168  2.5020 -0.9730
   71MOL   H17022710   4.213   7.269   1.171  1.0294 -2.1721  1.4396
   71MOL   H17122711   4.182   7.528   1.250  0.6447  0.6669 -0.6190
   71MOL   H17222712   4.074   7.524   0.963 -0.0044  1.2093  0.5046
   71MOL   H17322713   4.005   7.587   1.115  0.0134 -1.1496  0.2956
   71MOL   H17422714   4.040   7.412   1.082 -0.7195 -0.2189  1.5363
   71MOL   H17522715   4.342   7.695   1.167 -0.1758  3.0289 -1.6607
   71MOL   H17622716   4.182   7.755   1.137 -1.1467  0.0739  0.3152
   71MOL   H17722717   4.270   7.680   1.004 -1.3535 -2.1347  0.6232
   71MOL   C17822718   4.407   7.230   1.103 -0.5744 -0.2646  0.1183
   71MOL   C17922719   4.382   7.077   1.137 -0.5734 -0.3021 -0.1250
   71MOL   O18022720   4.274   7.028   1.058  0.8096  0.4193  0.4090
   71MOL   C18122721   4.208   6.908   1.090 -0.4939 -0.0099 -0.6506
   71MOL   C18222722   4.145   6.863   0.956  0.3109 -0.2927 -0.1065
   71MOL   C18322723   4.107   6.918   1.202  0.6493 -0.1960 -0.7299
   71MOL   H18422724   4.511   7.254   1.129 -0.4548  0.5195 -1.0727
   71MOL   H18522725   4.408   7.243   0.995  0.4942 -0.0768  0.1478
   71MOL   H18622726   4.369   7.063   1.245 -1.0788 -1.1429 -0.2827
   71MOL   H18722727   4.281   6.834   1.122 -0.6031 -0.3399 -1.1594
   71MOL   H18822728   4.090   6.769   0.967  0.1310 -0.0482  1.1861
   71MOL   H18922729   4.215   6.832   0.879  2.0279 -1.0962  1.7438
   71MOL   H19022730   4.091   6.940   0.902  0.1109 -1.0064 -0.9307
   71MOL   H19122731   4.067   6.822   1.235 -1.8025  1.1307  0.2671
   71MOL   H19222732   4.017   6.973   1.176 -0.9679 -1.3327  2.2587
   71MOL   H19322733   4.149   6.967   1.290 -1.5733 -0.1561  0.3443
   71MOL   C19422734   4.512   6.996   1.092  0.2960  0.0285 -0.3615
   71MOL   C19522735   4.635   7.000   1.190  0.5882  0.1429  0.4717
   71MOL   O19622736   4.751   6.961   1.107 -0.2057 -0.0008 -0.0780
   71MOL   C19722737   4.835   7.057   1.043  0.3257 -0.0498  0.0985
   71MOL   C19822738   4.981   7.018   1.051 -0.3810  0.1657 -0.1804
   71MOL   C19922739   4.788   7.086   0.901  0.0501 -0.8772  0.9253
   71MOL   H20022740   4.497   6.890   1.069  2.7428 -0.1218 -1.3617
   71MOL   H20122741   4.547   7.029   0.994  2.1219 -1.1380 -0.1339
   71MOL   H20222742   4.658   7.099   1.230  0.0705 -0.1732  1.5527
   71MOL   H20322743   4.813   7.149   1.098  1.4543  0.1153  0.2873
   71MOL   H20422744   5.006   6.945   0.975  1.5661 -0.1989  0.7939
   71MOL   H20522745   5.049   7.101   1.031  0.2908 -0.3222  0.0702
   71MOL   H20622746   5.026   6.982   1.144  1.6755  1.3569 -0.6888
   71MOL   H20722747   4.864   7.120   0.831 -0.4608 -0.8988  0.3540
   71MOL   H20822748   4.750   6.997   0.850  1.4176 -0.0929 -1.5641
   71MOL   H20922749   4.695   7.143   0.900 -0.0083 -0.9357  2.3507
   71MOL   C21022750   4.612   6.897   1.303 -0.3224  0.2949 -0.6376
   71MOL   C21122751   4.724   6.882   1.411 -0.2310 -0.2795  0.0420
   71MOL   O21222752   4.741   7.012   1.468 -0.6054  0.2266  0.2426
   71MOL   C21322753   4.865   7.080   1.441 -0.1566  0.4950 -0.7879
   71MOL   C21422754   4.832   7.227   1.462 -0.4317  0.0128  0.2919
   71MOL   C21522755   4.965   7.040   1.546  0.3569 -0.5182 -0.2050
   71MOL   H21622756   4.584   6.800   1.263  2.1886 -0.8017  0.1812
   71MOL   H21722757   4.531   6.934   1.367 -1.0307 -2.8782  0.3733
   71MOL   H21822758   4.810   6.848   1.352 -1.0943 -0.5191 -1.0881
   71MOL   H21922759   4.904   7.058   1.342 -0.8426  0.1633 -0.9892
   71MOL   H22022760   4.916   7.293   1.440 -0.6039 -0.0564 -0.6022
   71MOL   H22122761   4.795   7.262   1.558  0.7065 -0.1085  0.7871
   71MOL   H22222762   4.758   7.263   1.391 -0.1733  1.6351  0.8358
   71MOL   H22322763   4.975   6.933   1.559  1.7231 -0.4716 -0.8393
   71MOL   H22422764   4.912   7.069   1.638 -1.7026 -1.7894 -0.9477
   71MOL   H22522765   5.050   7.104   1.524 -0.1276 -0.0322 -0.6926
   71MOL   C22622766   4.701   6.789   1.528  0.0920 -1.5693 -0.1536
   71MOL   C22722767   4.684   6.640   1.506  0.3077 -0.6448  0.7838
   71MOL   O22822768   4.653   6.576   1.631 -0.4110  0.2608  0.0998
   71MOL   C22922769   4.511   6.588   1.671  0.3556  0.3234  0.2160
   71MOL   C23022770   4.491   6.624   1.821 -0.4241 -0.1754  0.2270
   71MOL   C23122771   4.438   6.458   1.629  0.9168  0.1650  0.4817
   71MOL   H23222772   4.609   6.826   1.572  0.1811 -0.4640 -0.8683
   71MOL   H23322773   4.775   6.803   1.606 -1.6350  1.3748  1.0303
   71MOL   H23422774   4.607   6.615   1.433 -0.5296  0.5635  1.2353
   71MOL   H23522775   4.467   6.675   1.622 -0.4343  0.2390  0.7661
   71MOL   H23622776   4.544   6.716   1.847 -2.1795  0.6757  0.8852
   71MOL   H23722777   4.386   6.641   1.845 -1.4341 -2.2841 -2.4460
   71MOL   H23822778   4.524   6.548   1.892 -0.7872 -0.5735 -0.0254
   71MOL   H23922779   4.426   6.459   1.521 -0.0748 -0.5914  0.5763
   71MOL   H24022780   4.338   6.448   1.670  0.8507 -2.1143 -0.1336
   71MOL   H24122781   4.492   6.370   1.665  1.2089  0.8890  1.8413
   71MOL   C24222782   4.815   6.585   1.450 -0.4022  0.4280 -0.4907
   71MOL   C24322783   4.826   6.430   1.426 -0.4731  0.4129  0.2859
   71MOL   O24422784   4.965   6.417   1.378  0.8084  0.5079 -0.2059
   71MOL   C24522785   5.069   6.385   1.471  0.0379  0.0393 -0.4663
   71MOL   C24622786   5.054   6.240   1.529  0.1580  0.3101  0.6496
   71MOL   C24722787   5.202   6.404   1.395 -0.2199 -0.6066  0.0911
   71MOL   H24822788   4.823   6.616   1.346  2.4604 -1.8080 -0.9968
   71MOL   H24922789   4.899   6.615   1.512  0.7654 -1.8035 -0.9566
   71MOL   H25022790   4.824   6.380   1.523 -0.2957 -2.5211 -1.1828
   71MOL   H25122791   5.081   6.456   1.553  0.9855 -1.4709  0.7227
   71MOL   H25222792   5.040   6.168   1.448 -1.0354  1.6542 -0.3697
   71MOL   H25322793   5.148   6.227   1.583 -0.7255 -1.0326  1.8918
   71MOL   H25422794   4.980   6.235   1.608  0.8332 -1.3713  1.1940
   71MOL   H25522795   5.208   6.489   1.326 -0.0759 -0.2565  0.5348
   71MOL   H25622796   5.295   6.405   1.452  0.5633  1.1255 -1.1458
   71MOL   H25722797   5.215   6.319   1.328 -1.2375 -0.4110 -0.3705
   71MOL   C25822798   4.737   6.375   1.308 -0.4032  0.5073  0.1612
   71MOL   C25922799   4.759   6.227   1.259  0.9554  0.5948 -0.2474
   71MOL   O26022800   4.752   6.144   1.374  0.5276  0.8557 -0.8550
   71MOL   C26122801   4.626   6.131   1.441  0.4443  0.0091 -0.8166
   71MOL   C26222802   4.537   6.042   1.361  0.5996  0.6374 -0.0231
   71MOL   C26322803   4.656   6.075   1.579 -0.2325 -0.0014  0.6016
   71MOL   H26422804   4.631   6.386   1.332 -0.0181  2.4792  1.0399
   71MOL   H26522805   4.754   6.446   1.227  1.7298  1.2187  1.2089
   71MOL   H26622806   4.673   6.194   1.202  0.2117  0.6661  0.8187
   71MOL   H26722807   4.572   6.225   1.455 -0.5277 -0.5836 -0.4834
   71MOL   H26822808   4.600   5.970   1.309 -0.6453 -0.7329  0.3106
   71MOL   H26922809   4.493   6.090   1.274 -0.2412 -0.1079 -0.0239
   71MOL   H27022810   4.471   5.979   1.421  0.0333  1.0711 -0.1901
   71MOL   H27122811   4.573   6.083   1.649 -0.4369  1.3742  0.2270
   71MOL   H27222812   4.707   5.980   1.569 -0.6259 -0.3518  1.9471
   71MOL   H27322813   4.726   6.146   1.622 -2.2038  1.8706  0.8312
   71MOL   C27422814   4.888   6.207   1.177  0.1260 -0.2934  0.1518
   71MOL   C27522815   4.872   6.084   1.082  0.2270  0.2899 -0.2519
   71MOL   O27622816   4.789   6.129   0.969  0.4210  0.2620  0.3743
   71MOL   C27722817   4.710   6.033   0.898  0.2391  0.3589 -0.6142
   71MOL   C27822818   4.667   6.107   0.769 -0.8102 -0.3188 -0.5406
   71MOL   C27922819   4.589   5.981   0.976  0.2399 -0.5220  0.3213
   71MOL   H28022820   4.920   6.293   1.119 -2.8177  1.0887  0.5275
   71MOL   H28122821   4.972   6.187   1.243 -1.4220 -0.5576  2.0777
   71MOL   H28222822   4.807   6.010   1.129 -0.4483  0.7435 -0.4671
   71MOL   H28322823   4.778   5.956   0.861  1.8183  0.8313  1.2559
   71MOL   H28422824   4.593   6.049   0.713 -1.0807 -0.9211  0.4271
   71MOL   H28522825   4.626   6.203   0.803  1.3809  0.8033 -0.9886
   71MOL   H28622826   4.740   6.131   0.693 -1.4056  0.8232 -0.7634
   71MOL   H28722827   4.620   5.935   1.070 -1.0356 -2.6687 -0.2575
   71MOL   H28822828   4.531   5.901   0.929  0.1806  0.4183 -1.2418
   71MOL   H28922829   4.517   6.059   1.001  1.3977  0.4304  0.7340
   71MOL   C29022830   4.999   6.015   1.019  0.0153 -0.7463 -0.5807
   71MOL   C29122831   5.107   5.961   1.123 -0.0556  0.1004  0.7976
   71MOL   O29222832   5.039   5.851   1.187 -0.3894 -0.2566 -0.0987
   71MOL   C29322833   4.990   5.884   1.316 -0.3412  0.4467 -0.6452
   71MOL   C29422834   5.092   5.880   1.427 -0.0445 -0.3406 -0.2196
   71MOL   C29522835   4.891   5.776   1.333 -0.3296 -0.7157 -0.1862
   71MOL   H29622836   5.044   6.082   0.946 -0.7857 -0.0395 -0.4365
   71MOL   H29722837   4.962   5.925   0.969 -1.3488  0.2482 -1.4213
   71MOL   H29822838   5.131   6.040   1.194 -0.9429  0.6837  0.4579
   71MOL   H29922839   4.937   5.980   1.313  0.6455  1.0248  0.1015
   71MOL   H30022840   5.127   5.780   1.455 -1.4941 -1.1996 -1.4025
   71MOL   H30122841   5.176   5.947   1.406 -0.4702  0.0109 -0.8175
   71MOL   H30222842   5.035   5.921   1.511  0.4398 -2.9323  1.4365
   71MOL   H30322843   4.839   5.795   1.428  1.6149  0.0715  0.7429
   71MOL   H30422844   4.806   5.785   1.265 -1.0008 -1.1629  0.5747
   71MOL   H30522845   4.933   5.676   1.337 -0.8455 -0.8934  1.6926
   71MOL   C30622846   5.225   5.892   1.053 -0.3465  0.0072  0.2178
   71MOL   C30722847   5.321   5.845   1.164  0.2676  0.1467  0.4351
   71MOL   O30822848   5.438   5.778   1.106  0.4493  0.3173  0.2783
   71MOL   C30922849   5.495   5.686   1.190 -0.1040 -0.3261  0.2689
   71MOL   C31022850   5.574   5.591   1.097 -0.1703  0.8287  1.0192
   71MOL   C31122851   5.582   5.769   1.280 -0.1864 -0.1579 -0.2579
   71MOL   H31222852   5.274   5.963   0.986  0.6013 -0.6519  0.1971
   71MOL   H31322853   5.192   5.815   0.983  0.7954  0.2478 -0.6026
   71MOL   H31422854   5.359   5.928   1.224 -0.8030 -0.3953  1.9033
   71MOL   H31522855   5.425   5.628   1.250  1.3241 -1.6728  0.6879
   71MOL   H31622856   5.616   5.521   1.169 -0.5225 -0.8477 -0.3800
   71MOL   H31722857   5.640   5.624   1.017 -0.8835 -1.6278 -0.6278
   71MOL   H31822858   5.497   5.537   1.042  0.5057 -0.3687  1.2374
   71MOL   H31922859   5.640   5.707   1.347  0.1841  0.3106 -0.1445
   71MOL   H32022860   5.518   5.833   1.341  1.9658  1.0544  0.7546
   71MOL   H32122861   5.654   5.838   1.235 -0.4531  0.8414  0.8224
   71MOL   H32222862   5.258   5.788   1.233  0.3236 -2.6276 -1.6903
   72MOL     C122863   0.985   1.887   4.467  0.5558 -0.1292  0.4215
   72MOL     C222864   0.950   1.840   4.602  0.5059 -0.0012  0.0102
   72MOL     O322865   1.011   1.916   4.704 -0.3248 -0.4194 -0.0312
   72MOL     C422866   1.145   1.874   4.744 -0.3310 -1.0593  0.5345
   72MOL     C522867   1.166   1.928   4.887  0.2419  0.6253  0.0255
   72MOL     C622868   1.249   1.941   4.654 -0.3217 -0.0823 -0.2708
   72MOL     H722869   0.939   1.834   4.384  2.3150 -0.4864 -0.3470
   72MOL     H822870   0.971   1.995   4.461  2.4505  0.0761 -0.6896
   72MOL     H922871   0.984   1.737   4.612  0.5190  0.0603  0.6424
   72MOL    H1022872   1.161   1.767   4.738  1.7386 -0.7250 -0.1736
   72MOL    H1122873   1.266   1.908   4.924  0.1327  0.2202  0.1036
   72MOL    H1222874   1.152   2.036   4.895 -0.1328  0.5630  0.2210
   72MOL    H1322875   1.090   1.889   4.955 -0.5170  2.2455  0.1504
   72MOL    H1422876   1.258   2.048   4.670  0.5560  0.3712 -3.4972
   72MOL    H1522877   1.349   1.902   4.677 -0.7093 -0.1106  1.4424
   72MOL    H1622878   1.231   1.919   4.549  2.4999 -0.1761 -0.7823
   72MOL    H1722879   1.084   1.847   4.443  0.5435 -0.8927  1.6021
   72MOL    C1822880   0.799   1.840   4.624  0.0601  0.0211  0.5339
   72MOL    C1922881   0.754   1.721   4.710 -0.5712  0.4135 -0.0444
   72MOL    O2022882   0.777   1.606   4.635  0.4041 -0.2727 -0.3175
   72MOL    C2122883   0.804   1.482   4.699 -0.4552 -0.5784  0.2588
   72MOL    C2222884   0.951   1.494   4.750 -0.3093  0.2415  0.3065
   72MOL    C2322885   0.805   1.363   4.606 -0.4442  0.0797 -0.1784
   72MOL    H2422886   0.780   1.939   4.667  0.3195  1.5688 -2.7386
   72MOL    H2522887   0.753   1.833   4.526  1.1991 -0.5683  0.0400
   72MOL    H2622888   0.826   1.729   4.791  0.8357  0.1307 -1.2585
   72MOL    H2722889   0.731   1.459   4.777 -1.0667  0.0884 -0.1152
   72MOL    H2822890   0.984   1.397   4.786  0.4322 -0.1627 -1.4133
   72MOL    H2922891   1.021   1.536   4.678 -0.1410  0.0390  0.3496
   72MOL    H3022892   0.965   1.565   4.832 -0.5500 -2.5493  2.8093
   72MOL    H3122893   0.830   1.270   4.657 -2.1470  0.4363  1.3179
   72MOL    H3222894   0.881   1.366   4.527  1.0597 -0.6001  1.2118
   72MOL    H3322895   0.717   1.351   4.543 -1.1991  0.0475  0.8751
   72MOL    C3422896   0.609   1.743   4.755  0.0730 -0.1197 -0.2682
   72MOL    C3522897   0.570   1.852   4.848 -0.0429  0.2847  0.7267
   72MOL    O3622898   0.429   1.839   4.857 -0.3935  0.8159 -0.0795
   72MOL    C3722899   0.343   1.892   4.762  0.1989  0.4512 -0.3282
   72MOL    C3822900   0.278   1.765   4.694 -0.5848 -0.7797  0.1866
   72MOL    C3922901   0.247   1.984   4.829  0.3038  0.3647  0.0747
   72MOL    H4022902   0.555   1.652   4.782  0.6512  0.0795  1.5677
   72MOL    H4122903   0.565   1.755   4.655 -0.8333  1.6280  0.3119
   72MOL    H4222904   0.597   1.948   4.805 -1.0709 -0.4242 -1.5668
   72MOL    H4322905   0.396   1.952   4.687 -0.6208 -0.3639 -1.5919
   72MOL    H4422906   0.250   1.697   4.775 -0.9799  0.1207  0.8109
   72MOL    H4522907   0.348   1.704   4.637 -2.2948 -1.1239 -1.5764
   72MOL    H4622908   0.193   1.792   4.631 -1.1925 -2.8251  0.0947
   72MOL    H4722909   0.283   2.067   4.890  0.6416 -0.6580  1.3030
   72MOL    H4822910   0.184   2.025   4.750 -0.6218  1.7346  1.4689
   72MOL    H4922911   0.180   1.935   4.900  0.5238  1.2351  0.8938
   72MOL    C5022912   0.634   1.831   4.987  0.6220  0.2411  0.2587
   72MOL    C5122913   0.617   1.945   5.092  0.4884 -0.5934 -0.3851
   72MOL    O5222914   0.719   1.938   5.201  0.7220  0.3802 -0.1337
   72MOL    C5322915   0.853   1.955   5.168  0.7324 -0.6261  0.1475
   72MOL    C5422916   0.922   1.950   5.297  0.1609  0.1214  0.1963
   72MOL    C5522917   0.873   2.083   5.081  0.5525  0.0333  0.0561
   72MOL    H5622918   0.614   1.735   5.035 -0.3063  0.0966 -0.4021
   72MOL    H5722919   0.739   1.819   4.961 -0.2017 -2.3667 -2.1972
   72MOL    H5822920   0.626   2.038   5.036  0.3086 -0.2351  0.1837
   72MOL    H5922921   0.882   1.865   5.114  0.4983 -0.9519  0.5592
   72MOL    H6022922   0.923   1.849   5.339 -0.7304 -0.0579 -0.2139
   72MOL    H6122923   0.866   2.019   5.360  1.9274  0.2541  1.6801
   72MOL    H6222924   1.031   1.955   5.294  0.0778  1.1261 -2.1148
   72MOL    H6322925   0.812   2.162   5.125 -0.7064 -0.8209 -0.1318
   72MOL    H6422926   0.835   2.058   4.982 -0.1260 -0.0143  0.3259
   72MOL    H6522927   0.976   2.115   5.061  0.4967 -0.7847 -1.5997
   72MOL    C6622928   0.481   1.949   5.156 -0.1134 -0.7827 -0.2267
   72MOL    C6722929   0.478   2.065   5.265  0.1052 -0.1677  0.2023
   72MOL    O6822930   0.349   2.064   5.320 -0.3843  0.1454  0.1034
   72MOL    C6922931   0.316   1.991   5.435 -0.2573  0.2061  0.1918
   72MOL    C7022932   0.394   2.033   5.561 -0.0417  0.2194 -0.1024
   72MOL    C7122933   0.159   2.002   5.451 -0.3830 -0.1803 -0.3740
   72MOL    H7222934   0.402   1.964   5.082  0.6980  0.1551 -0.9113
   72MOL    H7322935   0.448   1.863   5.216 -2.6216  0.9387  0.9823
   72MOL    H7422936   0.551   2.055   5.346 -1.0081  1.4070  1.4313
   72MOL    H7522937   0.341   1.886   5.419  0.6275  0.4303  0.1056
   72MOL    H7622938   0.354   1.985   5.650 -0.8387  1.6798  0.3498
   72MOL    H7722939   0.501   2.018   5.552 -0.1433 -1.2080  1.0641
   72MOL    H7822940   0.382   2.139   5.584  0.8971  0.4649 -0.7169
   72MOL    H7922941   0.096   1.961   5.372  0.3863 -2.6660  0.2509
   72MOL    H8022942   0.132   2.106   5.467  0.1809 -0.4804  2.7540
   72MOL    H8122943   0.130   1.953   5.543  1.0281 -1.3799 -0.5465
   72MOL    C8222944   0.490   2.200   5.202  0.1029  0.6295 -0.2328
   72MOL    C8322945   0.485   2.330   5.286  0.4532 -0.2514  0.0938
   72MOL    O8422946   0.618   2.369   5.323  0.1954  0.2326 -0.1627
   72MOL    C8522947   0.697   2.289   5.417  0.5764 -0.6884 -0.6080
   72MOL    C8622948   0.648   2.305   5.560 -0.2289 -0.2809 -0.4162
   72MOL    C8722949   0.835   2.348   5.407 -0.8840 -0.2901  0.3350
   72MOL    H8822950   0.582   2.195   5.143  0.4021  4.7477 -0.2519
   72MOL    H8922951   0.412   2.199   5.125  1.3140  0.2567 -1.4797
   72MOL    H9022952   0.432   2.312   5.380 -0.4905 -0.8662 -0.5498
   72MOL    H9122953   0.699   2.184   5.388 -0.6874 -0.3999 -1.8018
   72MOL    H9222954   0.565   2.250   5.604 -0.0088 -0.4019 -0.1498
   72MOL    H9322955   0.734   2.308   5.628 -0.1295  2.7584 -0.5973
   72MOL    H9422956   0.612   2.408   5.563  1.2906  0.3093 -1.4514
   72MOL    H9522957   0.872   2.340   5.305  0.9348  1.0941  0.8528
   72MOL    H9622958   0.836   2.455   5.431 -1.7775 -0.3923  0.8549
   72MOL    H9722959   0.906   2.294   5.469  1.5009 -0.4648 -2.4044
   72MOL    C9822960   0.418   2.447   5.210  0.1748  0.4340 -0.2442
   72MOL    C9922961   0.365   2.555   5.302 -0.3447 -0.9725  0.4240
   72MOL   O10022962   0.235   2.509   5.326 -0.4056  0.0680  0.6953
   72MOL   C10122963   0.155   2.556   5.435 -0.7480  0.0986 -0.4663
   72MOL   C10222964   0.107   2.447   5.523  0.1799  0.9502 -0.1444
   72MOL   C10322965   0.029   2.623   5.382  0.4653  0.3437  0.3921
   72MOL   H10422966   0.482   2.475   5.126  0.9399  0.0639  0.2182
   72MOL   H10522967   0.332   2.400   5.162  1.2440 -1.0963 -0.6882
   72MOL   H10622968   0.433   2.550   5.387 -0.2159  0.4353  0.4130
   72MOL   H10722969   0.218   2.620   5.496  0.9245 -0.6700 -1.3430
   72MOL   H10822970   0.047   2.477   5.609 -0.5898 -1.6374  0.2545
   72MOL   H10922971   0.189   2.387   5.563 -0.0662 -1.3706 -2.9910
   72MOL   H11022972   0.048   2.373   5.469 -1.2562  1.5202  0.6346
   72MOL   H11122973   0.059   2.700   5.311  0.4777 -0.8692 -0.9427
   72MOL   H11222974   7.790   2.663   5.464  0.0491 -0.8043  0.6494
   72MOL   H11322975   7.799   2.550   5.320  1.3917  0.8878 -1.0359
   72MOL   C11422976   0.370   2.695   5.238 -0.6761  0.3071  0.0930
   72MOL   C11522977   0.502   2.768   5.262 -0.3370 -0.0759 -0.5215
   72MOL   O11622978   0.514   2.870   5.169 -0.0630  0.3866  0.5080
   72MOL   C11722979   0.610   2.861   5.059 -0.2972 -0.1848 -1.4312
   72MOL   C11822980   0.620   3.011   5.017 -0.3032 -0.2140 -0.1856
   72MOL   C11922981   0.553   2.768   4.948  0.1394  0.2472  0.1610
   72MOL   H12022982   0.302   2.768   5.283  0.3980 -0.4228  2.9665
   72MOL   H12122983   0.347   2.675   5.133 -0.5517  2.1812 -0.3020
   72MOL   H12222984   0.589   2.703   5.263  0.2587  0.6993 -1.2444
   72MOL   H12322985   0.713   2.841   5.087 -0.1477  0.5271 -1.4652
   72MOL   H12422986   0.632   3.083   5.097  1.3630 -1.4201  0.6887
   72MOL   H12522987   0.533   3.039   4.958  0.5946  1.1150 -0.8946
   72MOL   H12622988   0.713   3.012   4.960  0.4364 -2.5237  0.8818
   72MOL   H12722989   0.460   2.814   4.914  0.7865 -0.7311 -3.0117
   72MOL   H12822990   0.537   2.672   4.996  0.7928 -0.0326 -0.1886
   72MOL   H12922991   0.616   2.748   4.862  1.1021  1.9039  0.4584
   72MOL   C13022992   0.506   2.838   5.399 -0.2040 -0.5180 -0.7039
   72MOL   C13122993   0.647   2.891   5.455  0.4339 -0.1193 -0.7071
   72MOL   O13222994   0.713   2.779   5.499 -0.2139  0.6450 -0.4203
   72MOL   C13322995   0.855   2.780   5.491 -0.7474 -0.4997 -0.3454
   72MOL   C13422996   0.902   2.671   5.590 -0.4403  0.2280  0.6684
   72MOL   C13522997   0.899   2.751   5.348  0.2426 -0.2487  0.1578
   72MOL   H13622998   0.470   2.770   5.477  2.5503 -1.4152 -0.1660
   72MOL   H13722999   0.431   2.915   5.418 -0.3815 -1.5022  3.0760
   72MOL   H13823000   0.691   2.939   5.367 -0.0567 -1.5115 -1.7314
   72MOL   H13923001   0.905   2.871   5.523  0.7885 -1.1235 -0.9124
   72MOL   H14023002   1.003   2.632   5.575 -0.2401 -0.0942  2.7030
   72MOL   H14123003   0.825   2.594   5.583  1.9614 -2.2017 -0.3055
   72MOL   H14223004   0.901   2.709   5.692 -0.0787 -0.2998  0.8766
   72MOL   H14323005   1.006   2.768   5.339  0.2304 -0.0195  0.4314
   72MOL   H14423006   0.888   2.650   5.307 -0.3226 -1.4982  3.2036
   72MOL   H14523007   0.854   2.825   5.282  2.2576 -0.6728 -1.7433
   72MOL   C14623008   0.621   2.987   5.569 -0.1227 -0.0398 -1.2035
   72MOL   C14723009   0.612   3.136   5.535  0.0884 -0.3402 -0.2082
   72MOL   O14823010   0.588   3.220   5.656 -0.0267 -0.3648  0.0211
   72MOL   C14923011   0.467   3.214   5.729  0.2904  0.0892  0.9712
   72MOL   C15023012   0.353   3.267   5.652  0.3470  0.2330 -0.0936
   72MOL   C15123013   0.490   3.308   5.841 -0.3922  0.6667  0.0843
   72MOL   H15223014   0.707   2.971   5.634  0.3046 -1.1714 -2.0121
   72MOL   H15323015   0.535   2.955   5.628  0.4666 -1.6599 -1.1743
   72MOL   H15423016   0.521   3.156   5.479 -0.1994  1.4495  0.8609
   72MOL   H15523017   0.442   3.118   5.775 -2.0920  0.1280 -0.1982
   72MOL   H15623018   0.370   3.369   5.619  1.0356  0.0716 -0.2444
   72MOL   H15723019   0.261   3.275   5.711  0.3385  0.3069 -0.1169
   72MOL   H15823020   0.327   3.208   5.564  1.5790  2.7359 -2.1943
   72MOL   H15923021   0.560   3.271   5.917 -1.6220  0.0861  0.9505
   72MOL   H16023022   0.401   3.336   5.897 -0.2399 -1.4535  1.4436
   72MOL   H16123023   0.511   3.410   5.809 -0.5706  0.3491 -1.0906
   72MOL   C16223024   0.744   3.192   5.470  0.8224  0.2193 -0.5692
   72MOL   C16323025   0.746   3.338   5.437 -0.3487 -0.5769  1.1633
   72MOL   O16423026   0.869   3.377   5.375  0.0994 -0.1448  0.5646
   72MOL   C16523027   0.979   3.403   5.463  0.2315 -0.0993  0.4462
   72MOL   C16623028   0.961   3.515   5.564  0.5891  0.2590  0.6693
   72MOL   C16723029   1.097   3.430   5.371  0.0458 -0.1060 -1.2884
   72MOL   H16823030   0.824   3.173   5.542  1.2162 -1.3732 -1.4184
   72MOL   H16923031   0.777   3.143   5.379 -0.5523 -1.6879 -0.0851
   72MOL   H17023032   0.719   3.395   5.525  3.4984 -0.8118  2.6081
   72MOL   H17123033   1.004   3.312   5.517 -0.1636 -0.1952  0.4717
   72MOL   H17223034   0.956   3.610   5.511  0.8655 -1.0217 -1.6790
   72MOL   H17323035   1.048   3.524   5.629  1.7058  0.1128 -0.8003
   72MOL   H17423036   0.873   3.496   5.626  1.8640 -3.4759  1.4598
   72MOL   H17523037   1.119   3.341   5.311 -2.1521 -0.2472 -1.9180
   72MOL   H17623038   1.186   3.456   5.428  0.8660 -1.7201 -1.7742
   72MOL   H17723039   1.089   3.511   5.299 -0.2720 -0.4036 -1.5902
   72MOL   C17823040   0.649   3.369   5.325  0.4043  0.6495 -1.0010
   72MOL   C17923041   0.624   3.517   5.297  0.3270 -0.0345 -0.2237
   72MOL   O18023042   0.544   3.529   5.182  0.0169 -0.2636  0.0857
   72MOL   C18123043   0.607   3.521   5.051  0.5510 -0.5162  0.5981
   72MOL   C18223044   0.658   3.667   5.017 -0.4835  0.2105 -0.4397
   72MOL   C18323045   0.502   3.468   4.954  0.5707 -0.0704 -0.5039
   72MOL   H18423046   0.546   3.341   5.349  0.3579  0.4579 -1.4137
   72MOL   H18523047   0.690   3.319   5.237  1.4348  1.6071 -1.0612
   72MOL   H18623048   0.719   3.566   5.274  0.5336 -1.0178 -1.5867
   72MOL   H18723049   0.686   3.447   5.059  1.6092  0.4794 -0.4142
   72MOL   H18823050   0.579   3.736   5.049 -0.3135 -0.7737  2.2726
   72MOL   H18923051   0.689   3.688   4.915  1.4566  1.6894  0.4204
   72MOL   H19023052   0.745   3.695   5.076 -1.2983 -0.3727  1.0873
   72MOL   H19123053   0.537   3.475   4.851  1.3393 -2.0605 -0.3993
   72MOL   H19223054   0.403   3.514   4.966  0.1899 -1.4276  1.8035
   72MOL   H19323055   0.476   3.364   4.973  1.7362 -1.0189 -3.7009
   72MOL   C19423056   0.555   3.586   5.409 -0.1579  0.2947 -0.2101
   72MOL   C19523057   0.583   3.740   5.404 -0.2371 -0.1506  0.2714
   72MOL   O19623058   0.574   3.798   5.536  0.0572 -0.1326 -0.5187
   72MOL   C19723059   0.675   3.775   5.631  0.9124 -0.0700 -0.7106
   72MOL   C19823060   0.757   3.894   5.631 -0.9474 -0.3860 -0.8398
   72MOL   C19923061   0.613   3.737   5.764  0.2491 -0.6125  0.1813
   72MOL   H20023062   0.448   3.569   5.403 -0.1506  0.0393  0.3225
   72MOL   H20123063   0.590   3.556   5.508 -1.3077  0.1849  0.1700
   72MOL   H20223064   0.683   3.754   5.363 -0.4839 -0.7533 -0.5323
   72MOL   H20323065   0.741   3.700   5.587  2.2409 -0.1298  1.3218
   72MOL   H20423066   0.699   3.986   5.636 -0.6679 -0.3115  2.4828
   72MOL   H20523067   0.826   3.891   5.716 -2.1882  0.4557  0.2129
   72MOL   H20623068   0.824   3.895   5.545 -0.5996  0.5344 -0.5738
   72MOL   H20723069   0.549   3.650   5.747 -4.5047  2.7357  0.0732
   72MOL   H20823070   0.687   3.719   5.842 -0.9452  3.3254  2.3884
   72MOL   H20923071   0.540   3.802   5.811  0.2781 -1.0358  0.8164
   72MOL   C21023072   0.470   3.817   5.324  0.3122  0.5132  0.4167
   72MOL   C21123073   0.512   3.963   5.283  0.9652  0.5137  0.4853
   72MOL   O21223074   0.620   3.944   5.193  0.4794 -0.2240  0.0783
   72MOL   C21323075   0.726   4.039   5.186 -0.5608 -0.7177 -0.2101
   72MOL   C21423076   0.806   4.031   5.314 -0.0796 -0.4757  0.2860
   72MOL   C21523077   0.808   3.998   5.061  0.1056 -0.2723  0.2497
   72MOL   H21623078   0.379   3.824   5.384 -1.3902  0.8546 -2.1145
   72MOL   H21723079   0.432   3.781   5.228 -1.0289  0.6476  0.8872
   72MOL   H21823080   0.553   4.004   5.375 -0.2081  1.1844  0.7218
   72MOL   H21923081   0.688   4.141   5.180 -3.5254 -1.8923 -2.7487
   72MOL   H22023082   0.900   4.085   5.304 -1.6856  2.0727 -1.6069
   72MOL   H22123083   0.830   3.927   5.337 -0.6459 -0.5589  0.5070
   72MOL   H22223084   0.748   4.073   5.396  0.4596 -2.1880  1.5843
   72MOL   H22323085   0.759   4.011   4.965  0.3844  0.1604  0.1651
   72MOL   H22423086   0.846   3.896   5.070  1.3081  0.1748  0.3775
   72MOL   H22523087   0.894   4.065   5.058  2.0766 -2.7860 -0.5548
   72MOL   C22623088   0.412   4.045   5.205  0.2759  0.0627  0.5227
   72MOL   C22723089   0.363   4.162   5.293  0.1006  0.1418 -0.3047
   72MOL   O22823090   0.302   4.114   5.411 -0.2461  0.4028  0.3158
   72MOL   C22923091   0.331   4.195   5.531  0.3080 -0.4891 -0.2052
   72MOL   C23023092   0.462   4.143   5.593 -0.4707  0.7786 -0.1277
   72MOL   C23123093   0.217   4.190   5.628  0.5762  0.2715  0.4515
   72MOL   H23223094   0.321   3.989   5.180 -0.3021  1.0182  0.4472
   72MOL   H23323095   0.464   4.090   5.121  0.5780  1.1943  1.3048
   72MOL   H23423096   0.443   4.229   5.321 -0.5734  0.1750  1.6085
   72MOL   H23523097   0.337   4.300   5.501 -1.9684  0.2409  1.8007
   72MOL   H23623098   0.470   4.036   5.612  1.7389  0.9822  0.2353
   72MOL   H23723099   0.549   4.157   5.529 -1.0313 -2.2611 -1.6184
   72MOL   H23823100   0.473   4.181   5.695  0.5354  0.8620 -0.2617
   72MOL   H23923101   0.188   4.087   5.644  0.4426  0.3584  0.7760
   72MOL   H24023102   0.127   4.227   5.579  0.0855  1.6858  2.3267
   72MOL   H24123103   0.231   4.240   5.724 -0.6776  0.4831  0.5324
   72MOL   C24223104   0.245   4.255   5.225 -0.0645  0.2693 -0.1603
   72MOL   C24323105   0.290   4.327   5.098 -0.2017 -0.4430 -0.0078
   72MOL   O24423106   0.394   4.416   5.133 -0.5090  0.3352  0.6242
   72MOL   C24523107   0.475   4.458   5.023  0.0249  0.1835  0.2413
   72MOL   C24623108   0.573   4.552   5.090 -0.2462  0.1070 -0.7767
   72MOL   C24723109   0.557   4.341   4.973  0.0844 -0.0660 -0.0882
   72MOL   H24823110   0.159   4.191   5.202  1.2058 -1.1314 -1.1276
   72MOL   H24923111   0.209   4.321   5.304 -1.1169 -0.5047  0.0164
   72MOL   H25023112   0.340   4.246   5.044  2.6358  1.5427 -0.4478
   72MOL   H25123113   0.418   4.505   4.943  0.8554 -1.3304 -1.2838
   72MOL   H25223114   0.638   4.609   5.023  2.1606 -1.1845  0.3693
   72MOL   H25323115   0.520   4.623   5.153 -1.3161 -1.3779  0.0236
   72MOL   H25423116   0.640   4.497   5.156 -2.0368 -0.1922  0.8416
   72MOL   H25523117   0.648   4.370   4.920  0.1030  1.2147  0.6393
   72MOL   H25623118   0.593   4.283   5.058  1.0489 -0.0052 -0.4411
   72MOL   H25723119   0.501   4.277   4.905  1.3587 -0.5578 -0.6831
   72MOL   C25823120   0.173   4.395   5.022  0.0977 -0.5399  0.6621
   72MOL   C25923121   0.163   4.399   4.860  0.8344 -0.7694  0.7291
   72MOL   O26023122   0.054   4.486   4.818 -0.2594 -0.1742 -0.2222
   72MOL   C26123123   0.092   4.609   4.761  0.0450  0.6448 -0.1426
   72MOL   C26223124   7.805   4.658   4.659 -0.3224  0.6714  0.1793
   72MOL   C26323125   0.105   4.701   4.881 -0.1006 -0.0051 -0.1490
   72MOL   H26423126   0.074   4.361   5.053  0.1214 -1.0402  0.1845
   72MOL   H26523127   0.172   4.499   5.056 -1.5489 -0.0053 -0.9414
   72MOL   H26623128   0.256   4.445   4.823  1.0245 -1.0328  0.8773
   72MOL   H26723129   0.189   4.607   4.712  0.4728 -0.3374  0.7232
   72MOL   H26823130   7.810   4.758   4.617  2.6154  1.6828  2.7642
   72MOL   H26923131   7.702   4.646   4.692  0.5533  2.5506  3.8514
   72MOL   H27023132   7.807   4.594   4.571  0.3969  0.0434  0.6418
   72MOL   H27123133   0.031   4.677   4.956  0.4926  0.2693  0.5264
   72MOL   H27223134   0.200   4.702   4.935 -1.7043 -2.1368  2.7987
   72MOL   H27323135   0.094   4.806   4.853 -0.0743  0.4083  1.3723
   72MOL   C27423136   0.135   4.252   4.816 -0.2634 -0.2331  0.6219
   72MOL   C27523137   0.168   4.232   4.667 -0.1333  0.3461  0.0601
   72MOL   O27623138   0.307   4.226   4.649  0.0721 -0.4810 -0.0504
   72MOL   C27723139   0.364   4.292   4.535  0.3583 -0.0959 -0.5358
   72MOL   C27823140   0.464   4.195   4.489 -0.3050 -0.5037  0.5270
   72MOL   C27923141   0.429   4.430   4.580 -0.5080 -0.2404  0.1078
   72MOL   H28023142   0.201   4.184   4.869 -2.1046 -1.4339  1.4426
   72MOL   H28123143   0.033   4.217   4.835 -0.4443  0.9371  1.8814
   72MOL   H28223144   0.123   4.316   4.613 -0.6299  0.6211  0.8923
   72MOL   H28323145   0.284   4.296   4.461  0.3872 -0.9696 -0.6100
   72MOL   H28423146   0.413   4.111   4.441 -0.5678  0.4474 -0.8821
   72MOL   H28523147   0.535   4.236   4.417 -0.8538  0.7192  0.6681
   72MOL   H28623148   0.528   4.151   4.565 -2.4018 -0.2790  2.5007
   72MOL   H28723149   0.503   4.407   4.656  1.2186  0.8700 -1.2194
   72MOL   H28823150   0.361   4.509   4.613  1.7640  1.1641  1.5078
   72MOL   H28923151   0.478   4.473   4.493  0.0819 -0.9379  0.0900
   72MOL   C29023152   0.114   4.104   4.607  0.1721  0.6727 -0.1412
   72MOL   C29123153   0.184   3.967   4.640  0.2049  0.3103  0.3618
   72MOL   O29223154   0.171   3.950   4.780  0.0652  0.2628  0.4769
   72MOL   C29323155   0.265   3.869   4.840 -0.4140 -0.0659  0.1703
   72MOL   C29423156   0.197   3.819   4.966  0.4287  0.7304 -0.2059
   72MOL   C29523157   0.395   3.936   4.879  0.3981 -0.5896  0.6271
   72MOL   H29623158   0.114   4.111   4.498 -0.7570 -0.9933 -0.2557
   72MOL   H29723159   0.010   4.098   4.638  0.4204 -1.9444  0.2836
   72MOL   H29823160   0.288   3.965   4.608 -0.5076 -1.7162 -1.9785
   72MOL   H29923161   0.306   3.784   4.784  1.2996  0.3385  0.7594
   72MOL   H30023162   0.104   3.763   4.949  2.0192 -2.6020  1.5091
   72MOL   H30123163   0.263   3.759   5.030  1.4463  1.8995 -0.1528
   72MOL   H30223164   0.163   3.903   5.026  0.2020  1.0038 -0.7140
   72MOL   H30323165   0.443   3.896   4.968  1.2278  1.0467  0.9413
   72MOL   H30423166   0.464   3.928   4.795 -1.0943 -0.5027 -0.6359
   72MOL   H30523167   0.372   4.040   4.904  0.5094 -0.2403 -0.6567
   72MOL   C30623168   0.114   3.846   4.579  0.5482 -0.7017  0.8182
   72MOL   C30723169   0.105   3.850   4.416 -0.0116 -0.6924 -0.3931
   72MOL   O30823170   0.234   3.892   4.364  0.1002  0.4097 -0.5684
   72MOL   C30923171   0.257   3.853   4.229  0.6115 -0.5445  0.6748
   72MOL   C31023172   0.166   3.924   4.127  0.9447 -0.3019 -0.6773
   72MOL   C31123173   0.403   3.883   4.190  0.1329 -0.7520  0.2019
   72MOL   H31223174   0.012   3.843   4.617  1.2029 -0.7159  2.6389
   72MOL   H31323175   0.157   3.748   4.599 -1.2101 -1.6461  0.0600
   72MOL   H31423176   0.053   3.765   4.370 -1.2674  1.0409 -2.2841
   72MOL   H31523177   0.246   3.746   4.216 -0.9151 -0.3326  0.1149
   72MOL   H31623178   0.196   3.897   4.026  2.9977 -0.8877  0.0486
   72MOL   H31723179   0.169   4.033   4.137  0.1501 -0.3567  0.2625
   72MOL   H31823180   0.062   3.894   4.137  0.4604  1.9290  1.6011
   72MOL   H31923181   0.430   3.854   4.088  2.3295  1.4943  0.0917
   72MOL   H32023182   0.468   3.827   4.257  0.3241 -0.1180  0.5501
   72MOL   H32123183   0.421   3.989   4.204 -1.1619 -0.5649  0.5621
   72MOL   H32223184   0.047   3.934   4.379  1.3381  0.0341 -0.8778
   73MOL     C123185   2.783   2.171   3.357  0.2260 -0.2845 -0.0675
   73MOL     C223186   2.799   2.222   3.209 -0.2812  0.6634 -0.5342
   73MOL     O323187   2.822   2.115   3.117 -0.2331  0.5967 -0.0955
   73MOL     C423188   2.951   2.055   3.126 -0.5531 -0.6987 -0.1157
   73MOL     C523189   3.050   2.132   3.047  0.7148  0.1196 -0.4370
   73MOL     C623190   2.948   1.923   3.065 -0.2252 -0.2693 -0.1673
   73MOL     H723191   2.750   2.253   3.421  1.2360 -0.5674  0.8498
   73MOL     H823192   2.709   2.093   3.379 -0.5561 -0.4785 -3.2401
   73MOL     H923193   2.886   2.286   3.195 -0.2386  0.3536 -1.7758
   73MOL    H1023194   2.979   2.047   3.231  0.3101  1.2254 -0.1753
   73MOL    H1123195   3.050   2.236   3.079 -1.5245  0.2697 -0.8425
   73MOL    H1223196   3.153   2.099   3.062  0.5429  0.7258  2.3806
   73MOL    H1323197   3.033   2.135   2.940  0.7567  2.8811 -0.3957
   73MOL    H1423198   2.868   1.854   3.091 -1.8442  2.7011  3.1281
   73MOL    H1523199   2.946   1.934   2.956  0.7690 -1.6707 -0.3521
   73MOL    H1623200   3.037   1.871   3.102  0.7917  1.6552  0.1696
   73MOL    H1723201   2.881   2.141   3.395 -0.4923 -0.6620  1.5496
   73MOL    C1823202   2.668   2.298   3.174  0.3981  0.4270 -0.3828
   73MOL    C1923203   2.634   2.350   3.033  0.2597 -0.5035  0.4595
   73MOL    O2023204   2.525   2.439   3.067  0.1419 -0.0848  0.1260
   73MOL    C2123205   2.557   2.580   3.068  0.0258  0.6955  0.3424
   73MOL    C2223206   2.544   2.638   3.204 -0.0404 -0.2717  0.2719
   73MOL    C2323207   2.475   2.645   2.959  0.4012  0.1405 -0.6691
   73MOL    H2423208   2.590   2.231   3.209 -0.4611  0.6379 -1.8305
   73MOL    H2523209   2.663   2.385   3.239  1.9962 -0.2340  0.6640
   73MOL    H2623210   2.714   2.398   2.977 -2.2540  0.7607 -2.1734
   73MOL    H2723211   2.660   2.583   3.033  0.0060  0.0549  0.2102
   73MOL    H2823212   2.550   2.747   3.212  0.3256 -0.0093 -3.1230
   73MOL    H2923213   2.439   2.634   3.235  1.1817 -1.3907  4.7157
   73MOL    H3023214   2.604   2.589   3.280  0.1564 -0.1025  0.2271
   73MOL    H3123215   2.469   2.752   2.979  0.8607  0.2375 -1.0531
   73MOL    H3223216   2.371   2.613   2.966  0.3967  0.2773 -0.0618
   73MOL    H3323217   2.506   2.618   2.858 -1.3065 -1.4937 -0.7686
   73MOL    C3423218   2.584   2.234   2.944 -0.0263  0.0957 -0.0100
   73MOL    C3523219   2.559   2.286   2.802  0.4831 -0.3122  0.4230
   73MOL    O3623220   2.678   2.282   2.729  0.4024 -0.5887  0.0776
   73MOL    C3723221   2.700   2.379   2.623 -0.0335  0.5822  0.1615
   73MOL    C3823222   2.795   2.486   2.681  0.0357  0.3199 -0.0908
   73MOL    C3923223   2.759   2.300   2.500 -0.4447 -0.4484 -0.9103
   73MOL    H4023224   2.495   2.191   2.990  1.3030 -2.7442  0.0259
   73MOL    H4123225   2.660   2.157   2.934  0.0337 -0.2002  2.5079
   73MOL    H4223226   2.521   2.387   2.806 -0.5259 -0.6992  0.7204
   73MOL    H4323227   2.607   2.425   2.590 -1.6883 -2.8267 -0.1404
   73MOL    H4423228   2.731   2.546   2.746 -0.7680  0.9021 -1.3903
   73MOL    H4523229   2.832   2.560   2.610 -1.8857 -0.4048 -1.8986
   73MOL    H4623230   2.876   2.452   2.745  0.0124  1.8868  0.8045
   73MOL    H4723231   2.717   2.200   2.495 -0.4482 -0.4777 -0.3120
   73MOL    H4823232   2.747   2.359   2.408  1.6246  0.1590 -0.8169
   73MOL    H4923233   2.867   2.293   2.506 -0.6199 -1.0503  1.9591
   73MOL    C5023234   2.456   2.201   2.715 -0.3846  1.0446 -0.5336
   73MOL    C5123235   2.311   2.212   2.751  0.2325 -0.5222  0.7043
   73MOL    O5223236   2.238   2.117   2.673  0.0373  0.2488  0.3693
   73MOL    C5323237   2.173   1.999   2.728 -0.3281 -0.3676  0.2487
   73MOL    C5423238   2.279   1.904   2.792  0.3171 -0.3101 -0.2814
   73MOL    C5523239   2.088   1.930   2.611  0.3011  0.1491  0.1350
   73MOL    H5623240   2.464   2.220   2.608 -2.0011  0.3667 -0.7960
   73MOL    H5723241   2.489   2.098   2.726  0.9101  1.5906  0.8965
   73MOL    H5823242   2.277   2.197   2.854 -1.1263  0.8714  0.4664
   73MOL    H5923243   2.105   2.047   2.799  0.6353  3.1173 -1.0846
   73MOL    H6023244   2.336   1.857   2.712  1.7228  0.5731  0.1912
   73MOL    H6123245   2.211   1.837   2.846  0.1154  2.2371  2.8088
   73MOL    H6223246   2.354   1.948   2.857  1.1277 -2.2076  0.0967
   73MOL    H6323247   2.018   1.863   2.661  2.6777 -0.1994  3.1361
   73MOL    H6423248   2.148   1.864   2.549 -3.0136 -0.7542 -2.2521
   73MOL    H6523249   2.032   2.000   2.549  0.7295 -0.2077 -0.6587
   73MOL    C6623250   2.254   2.358   2.710  0.0878 -0.1993  0.1633
   73MOL    C6723251   2.103   2.383   2.737  0.2174  0.0042 -0.2549
   73MOL    O6823252   2.065   2.319   2.862  0.0613  0.1919  0.0126
   73MOL    C6923253   2.095   2.396   2.981 -0.2491  0.2715 -0.2395
   73MOL    C7023254   1.977   2.498   2.999 -0.3796 -0.4619 -0.0089
   73MOL    C7123255   2.088   2.302   3.096 -0.5203 -0.9748  0.6934
   73MOL    H7223256   2.308   2.432   2.769  0.7940 -0.0654 -0.6241
   73MOL    H7323257   2.287   2.382   2.608  0.0945  1.0130  0.4371
   73MOL    H7423258   2.077   2.489   2.741  0.7591  0.1763 -1.1004
   73MOL    H7523259   2.194   2.440   2.978  0.2634 -0.9168 -2.4738
   73MOL    H7623260   1.882   2.456   3.030 -1.3177  0.6680 -1.2846
   73MOL    H7723261   1.991   2.579   3.071 -1.8316 -0.6438  0.4877
   73MOL    H7823262   1.950   2.549   2.906 -0.0570 -0.9490 -0.3715
   73MOL    H7923263   2.141   2.208   3.081 -0.1085 -0.6973  0.3989
   73MOL    H8023264   1.986   2.270   3.118 -0.0200 -2.7728  0.4456
   73MOL    H8123265   2.128   2.354   3.183  1.2554  0.8450 -1.1627
   73MOL    C8223266   2.022   2.323   2.619 -0.0927 -0.7743  0.0168
   73MOL    C8323267   1.886   2.393   2.618  0.0023  0.0489  0.2227
   73MOL    O8423268   1.906   2.512   2.554 -0.2540 -0.2413 -0.1901
   73MOL    C8523269   1.811   2.617   2.593  0.6368 -0.5366 -0.6171
   73MOL    C8623270   1.721   2.647   2.473  0.3238  0.1990 -0.2115
   73MOL    C8723271   1.889   2.740   2.639  0.0198 -0.3447 -0.0418
   73MOL    H8823272   2.076   2.339   2.526 -1.0449  1.5416 -0.1733
   73MOL    H8923273   2.017   2.214   2.629 -0.4161 -0.5024  3.1529
   73MOL    H9023274   1.847   2.391   2.720  0.0036  0.9646  0.2375
   73MOL    H9123275   1.754   2.587   2.681 -0.0953  2.4633 -0.0002
   73MOL    H9223276   1.662   2.559   2.448  1.6336 -0.7814  0.1129
   73MOL    H9323277   1.658   2.735   2.492 -0.1462 -0.4980  1.6266
   73MOL    H9423278   1.780   2.651   2.382  2.3000 -0.4788  0.9996
   73MOL    H9523279   1.966   2.695   2.701  2.2243  2.1131 -0.9002
   73MOL    H9623280   1.944   2.791   2.560  0.7814  1.1579  1.4264
   73MOL    H9723281   1.823   2.816   2.682 -1.0789 -0.0507 -2.1748
   73MOL    C9823282   1.790   2.314   2.527 -0.0507  0.5672  0.1772
   73MOL    C9923283   1.646   2.311   2.577 -0.0488  0.0303  0.0641
   73MOL   O10023284   1.630   2.227   2.682  0.6402 -0.0815 -0.0301
   73MOL   C10123285   1.557   2.261   2.798 -0.2834 -0.9273 -0.5189
   73MOL   C10223286   1.649   2.299   2.916 -0.8666 -0.3667 -0.2797
   73MOL   C10323287   1.477   2.127   2.829 -1.0528 -0.6136 -0.6897
   73MOL   H10423288   1.801   2.346   2.423 -1.4963 -2.7238 -1.0641
   73MOL   H10523289   1.831   2.214   2.514 -0.1325  0.5089  0.3785
   73MOL   H10623290   1.608   2.405   2.616  0.1332 -0.9002  2.5736
   73MOL   H10723291   1.484   2.341   2.791  0.4047 -0.1905  0.6311
   73MOL   H10823292   1.712   2.386   2.898 -2.3510  1.0154  1.0928
   73MOL   H10923293   1.727   2.226   2.938 -1.0855 -1.4102 -2.6986
   73MOL   H11023294   1.588   2.318   3.004 -1.2421 -2.2844 -0.0828
   73MOL   H11123295   1.548   2.059   2.875  0.1919  0.8970 -0.3474
   73MOL   H11223296   1.442   2.071   2.742 -0.2086 -0.6427 -1.0091
   73MOL   H11323297   1.400   2.141   2.906  0.9098 -1.4499  1.4682
   73MOL   C11423298   1.538   2.272   2.472  0.5601 -0.1144  0.1007
   73MOL   C11523299   1.391   2.321   2.480  0.3011  0.0436  0.1513
   73MOL   O11623300   1.388   2.458   2.446  0.5545 -0.4995  0.4174
   73MOL   C11723301   1.294   2.544   2.522 -0.7792  0.3332 -0.1430
   73MOL   C11823302   1.228   2.645   2.424  0.6407  0.6706 -0.6188
   73MOL   C11923303   1.367   2.616   2.635 -0.4350  0.9237 -0.2721
   73MOL   H12023304   1.535   2.163   2.468 -0.2740 -0.0764 -0.4348
   73MOL   H12123305   1.579   2.298   2.374 -1.3186  3.1686  0.1229
   73MOL   H12223306   1.352   2.307   2.581 -0.8151 -2.4808 -0.6003
   73MOL   H12323307   1.213   2.478   2.554  0.3480 -0.4349  1.1820
   73MOL   H12423308   1.305   2.679   2.355 -1.2682  2.7841 -1.7592
   73MOL   H12523309   1.174   2.725   2.474  0.1065  0.3513 -0.6736
   73MOL   H12623310   1.154   2.596   2.360 -0.5613  2.8289 -0.9416
   73MOL   H12723311   1.423   2.543   2.694 -0.6459 -1.2096 -2.6495
   73MOL   H12823312   1.298   2.651   2.712 -1.8633 -0.5660 -0.8590
   73MOL   H12923313   1.431   2.696   2.596  0.8680 -0.9895 -2.1492
   73MOL   C13023314   1.309   2.256   2.367 -0.1066  0.2408  0.8463
   73MOL   C13123315   1.268   2.110   2.387  0.9361 -0.1944 -0.1073
   73MOL   O13223316   1.181   2.082   2.276 -0.0518  0.3110  0.0050
   73MOL   C13323317   1.225   1.987   2.178  0.5106 -0.5047  0.2484
   73MOL   C13423318   1.100   1.962   2.090 -0.5208 -0.4246 -0.3988
   73MOL   C13523319   1.335   2.044   2.094 -0.4396 -0.3320  0.2420
   73MOL   H13623320   1.349   2.274   2.267  0.7390  0.7026  1.2671
   73MOL   H13723321   1.222   2.321   2.362 -0.4199 -0.1503  1.1650
   73MOL   H13823322   1.364   2.060   2.381  0.7670 -0.6241  0.7932
   73MOL   H13923323   1.256   1.898   2.233 -2.1687 -0.5238  1.8072
   73MOL   H14023324   1.062   2.052   2.041  0.3280 -0.3954 -1.0397
   73MOL   H14123325   1.022   1.930   2.158  0.1623  1.0189  1.1101
   73MOL   H14223326   1.123   1.883   2.018  0.5653  0.2733 -0.8470
   73MOL   H14323327   1.378   1.966   2.032  1.2323  0.7263  0.0448
   73MOL   H14423328   1.315   2.138   2.043 -1.6653 -1.3414 -1.1804
   73MOL   H14523329   1.414   2.065   2.166 -1.1902  0.0314  0.9649
   73MOL   C14623330   1.179   2.103   2.505  0.3133 -0.2975  0.3025
   73MOL   C14723331   1.137   1.958   2.528  0.1258 -0.0620 -0.0271
   73MOL   O14823332   1.246   1.862   2.553  0.4907 -0.2083 -0.4863
   73MOL   C14923333   1.221   1.728   2.544  0.2621  0.3102  0.6684
   73MOL   C15023334   1.293   1.647   2.657  0.2041 -0.0886  0.3977
   73MOL   C15123335   1.260   1.671   2.406  0.7101 -0.4430  0.0349
   73MOL   H15223336   1.102   2.179   2.498  0.2246 -0.2776  1.4037
   73MOL   H15323337   1.244   2.133   2.587  2.3894  1.5922 -1.9930
   73MOL   H15423338   1.093   1.918   2.437  2.3023 -0.0045 -1.1376
   73MOL   H15523339   1.114   1.711   2.556  0.3945 -1.5162 -0.5096
   73MOL   H15623340   1.283   1.686   2.759  2.9494  0.5622  0.4602
   73MOL   H15723341   1.399   1.653   2.633  0.1009 -1.0987 -0.3167
   73MOL   H15823342   1.258   1.544   2.650  0.1311 -0.0127 -0.3808
   73MOL   H15923343   1.206   1.720   2.326  0.4505 -0.0314  0.4640
   73MOL   H16023344   1.239   1.567   2.383 -1.1112 -0.5179  1.9112
   73MOL   H16123345   1.365   1.690   2.380  0.2436  0.2482 -1.4032
   73MOL   C16223346   1.030   1.963   2.653 -0.1384  0.7237  0.2054
   73MOL   C16323347   0.881   1.997   2.616  0.0523  0.1514 -0.1289
   73MOL   O16423348   0.837   1.902   2.521 -0.1572 -0.2005 -0.1600
   73MOL   C16523349   0.794   1.966   2.399 -0.2461 -0.3880  0.2334
   73MOL   C16623350   0.655   2.036   2.407  0.7279 -0.6156 -0.3796
   73MOL   C16723351   0.799   1.849   2.295  0.7908 -0.8633  0.2089
   73MOL   H16823352   1.030   1.865   2.700 -4.4850  0.8488  0.6156
   73MOL   H16923353   1.063   2.027   2.735  0.3223 -0.2944  0.8280
   73MOL   H17023354   0.880   2.098   2.574 -0.0442 -0.5324 -1.8206
   73MOL   H17123355   0.871   2.035   2.364 -1.4133 -0.9077 -3.5860
   73MOL   H17223356   0.625   2.071   2.308 -2.3134 -1.4225  0.1974
   73MOL   H17323357   0.652   2.117   2.479  0.3908  1.1184 -2.3134
   73MOL   H17423358   0.580   1.964   2.441 -1.3397  1.3190 -0.7129
   73MOL   H17523359   0.905   1.822   2.295  1.0495  0.1190 -0.3257
   73MOL   H17623360   0.773   1.886   2.196 -1.0240 -1.3727  0.4888
   73MOL   H17723361   0.732   1.770   2.326  0.6147 -0.0461  1.9543
   73MOL   C17823362   0.795   2.001   2.736  0.6884  0.4560  0.1364
   73MOL   C17923363   0.783   2.133   2.819 -0.4389  0.7626  0.1421
   73MOL   O18023364   0.751   2.246   2.733 -0.4139 -0.4605 -0.7453
   73MOL   C18123365   0.861   2.330   2.699  0.1123  0.0792  0.0766
   73MOL   C18223366   0.872   2.450   2.806  0.3254 -0.3238 -0.1824
   73MOL   C18323367   0.839   2.377   2.552 -0.3937 -0.1869  0.1836
   73MOL   H18423368   0.827   1.914   2.792  1.8367 -0.4275 -1.8157
   73MOL   H18523369   0.694   1.996   2.696  0.4951 -2.1425  0.8829
   73MOL   H18623370   0.880   2.159   2.859 -0.7495  0.5291  1.0455
   73MOL   H18723371   0.959   2.285   2.707  0.8454  1.4090 -1.1005
   73MOL   H18823372   0.774   2.498   2.818 -0.0301 -1.6454  2.4594
   73MOL   H18923373   0.947   2.521   2.769  2.3776 -2.0132  0.6983
   73MOL   H19023374   0.901   2.414   2.904 -0.8095 -2.0179 -0.4563
   73MOL   H19123375   0.916   2.439   2.506 -0.8755  0.5351  0.3403
   73MOL   H19223376   0.752   2.442   2.555 -1.7780 -2.0651  1.2017
   73MOL   H19323377   0.805   2.293   2.491 -0.5261 -0.5772  0.7913
   73MOL   C19423378   0.678   2.118   2.927 -0.1556 -0.2845  0.8605
   73MOL   C19523379   0.688   2.222   3.042  0.5834  0.2183 -0.0776
   73MOL   O19623380   0.643   2.166   3.171  0.0091  0.4679 -0.3480
   73MOL   C19723381   0.717   2.066   3.237  0.0860  0.6319 -0.1851
   73MOL   C19823382   0.756   2.102   3.380 -0.2383 -0.3650 -0.0349
   73MOL   C19923383   0.622   1.939   3.251  0.5095  0.4834  0.8149
   73MOL   H20023384   0.587   2.149   2.876 -1.6017 -0.5582  3.1858
   73MOL   H20123385   0.666   2.015   2.960 -2.0550 -0.3066  0.1911
   73MOL   H20223386   0.793   2.243   3.058  1.0348 -0.4796 -2.0907
   73MOL   H20323387   0.798   2.030   3.174  2.5039  1.8749  2.1015
   73MOL   H20423388   0.785   2.023   3.449  0.1396  1.0312  1.4349
   73MOL   H20523389   0.833   2.178   3.383  0.0492 -0.6512 -0.0700
   73MOL   H20623390   0.667   2.141   3.428 -0.8009 -0.3774 -1.0384
   73MOL   H20723391   0.680   1.852   3.284  1.0534  1.5107  2.6021
   73MOL   H20823392   0.538   1.951   3.320  0.3323 -1.6116  1.0042
   73MOL   H20923393   0.587   1.924   3.149  0.3452  5.5338  0.0288
   73MOL   C21023394   0.595   2.342   3.021  0.3174 -1.1817 -0.7544
   73MOL   C21123395   0.597   2.454   3.134  0.8128  0.3287 -0.2760
   73MOL   O21223396   0.724   2.522   3.142  0.7425 -0.4064  0.6727
   73MOL   C21323397   0.778   2.563   3.266  0.5712  0.3748  0.3096
   73MOL   C21423398   0.926   2.545   3.243  0.0333  0.2552  0.0481
   73MOL   C21523399   0.748   2.711   3.284  0.1164  0.0134  0.2278
   73MOL   H21623400   0.495   2.303   3.006  0.6559 -1.9784 -1.0064
   73MOL   H21723401   0.631   2.396   2.934 -4.1729  1.7674 -0.8881
   73MOL   H21823402   0.571   2.406   3.228 -1.0611 -0.3382 -1.1033
   73MOL   H21923403   0.744   2.490   3.339 -2.0530  0.5242 -0.6889
   73MOL   H22023404   0.949   2.442   3.216 -0.3907 -0.5234  2.4546
   73MOL   H22123405   1.004   2.573   3.314  1.6810  0.0306 -1.6402
   73MOL   H22223406   0.958   2.593   3.151  2.3594 -2.5953 -0.7118
   73MOL   H22323407   0.756   2.755   3.184  1.6083 -1.0519 -0.1408
   73MOL   H22423408   0.818   2.755   3.355  0.3050  0.9100 -0.4964
   73MOL   H22523409   0.649   2.740   3.318  0.8302  0.1889  2.2222
   73MOL   C22623410   0.495   2.566   3.126  0.2933  0.4895 -0.1952
   73MOL   C22723411   0.360   2.527   3.185  1.0512  0.1497 -0.1112
   73MOL   O22823412   0.290   2.450   3.087  0.0619  0.0264 -0.8707
   73MOL   C22923413   0.200   2.354   3.145  0.2651  0.1039  0.2294
   73MOL   C23023414   0.272   2.216   3.148  0.2104  0.2219 -0.0695
   73MOL   C23123415   0.071   2.366   3.057 -1.0452 -0.4084 -0.0731
   73MOL   H23223416   0.480   2.595   3.022 -0.7949 -1.0074 -0.4724
   73MOL   H23323417   0.523   2.649   3.191  2.1651  0.1985 -0.6226
   73MOL   H23423418   0.359   2.476   3.281 -1.9205  0.2832 -0.0336
   73MOL   H23523419   0.166   2.376   3.246 -0.7109  4.3854 -0.9395
   73MOL   H23623420   0.212   2.140   3.197 -0.1477 -0.6187 -1.7761
   73MOL   H23723421   0.288   2.188   3.043 -1.3103 -0.8526 -0.0177
   73MOL   H23823422   0.372   2.206   3.191  0.2010  1.4035  0.2446
   73MOL   H23923423   0.005   2.289   3.098 -0.9217 -0.3380  0.2594
   73MOL   H24023424   0.095   2.353   2.951  2.7282 -0.7172  0.7479
   73MOL   H24123425   0.019   2.461   3.066 -0.3709 -0.2379  2.2133
   73MOL   C24223426   0.261   2.646   3.194 -0.7602 -0.3100 -0.5446
   73MOL   C24323427   0.275   2.751   3.308 -0.7557  1.1803  0.2224
   73MOL   O24423428   0.276   2.687   3.437  0.2277 -0.3600  0.0203
   73MOL   C24523429   0.391   2.683   3.514 -0.3636 -1.3195 -0.3106
   73MOL   C24623430   0.411   2.824   3.569 -0.9170  0.1606  0.0039
   73MOL   C24723431   0.351   2.593   3.629 -0.2010  0.1949 -0.6056
   73MOL   H24823432   0.253   2.694   3.096 -0.1465  0.7156 -0.1027
   73MOL   H24923433   0.155   2.620   3.197 -0.7720 -0.1661  0.3603
   73MOL   H25023434   0.370   2.801   3.287  0.8756 -1.5940  0.7993
   73MOL   H25123435   0.479   2.652   3.458 -0.3632 -2.4869  0.3211
   73MOL   H25223436   0.431   2.894   3.488 -1.1156  0.7796  0.4829
   73MOL   H25323437   0.329   2.863   3.629 -1.1480 -0.7092  0.2655
   73MOL   H25423438   0.495   2.836   3.638  1.4017 -0.4250 -2.6394
   73MOL   H25523439   0.271   2.638   3.688  0.8600 -0.1006  1.0967
   73MOL   H25623440   0.316   2.493   3.602 -2.4393  0.3346  1.5734
   73MOL   H25723441   0.430   2.589   3.703  0.1245  0.5431 -0.9347
   73MOL   C25823442   0.163   2.863   3.310 -0.4114 -0.1238 -0.2814
   73MOL   C25923443   0.176   2.962   3.185  0.6977 -0.0669 -0.7186
   73MOL   O26023444   0.304   3.028   3.212 -0.5541 -0.0522  0.1505
   73MOL   C26123445   0.374   3.072   3.096 -0.7669  0.3748 -0.4894
   73MOL   C26223446   0.344   3.212   3.068 -0.2546 -0.4065 -0.5722
   73MOL   C26323447   0.527   3.049   3.121 -0.1523  0.5106 -0.3059
   73MOL   H26423448   0.065   2.816   3.317 -0.6724  0.1528 -1.7733
   73MOL   H26523449   0.176   2.929   3.396  0.9909 -0.8635  0.0885
   73MOL   H26623450   0.183   2.912   3.088  1.0150 -1.9043  0.2348
   73MOL   H26723451   0.354   3.022   3.001  1.3848 -1.2623 -0.1189
   73MOL   H26823452   0.256   3.217   3.002 -1.0458  2.6436  0.6525
   73MOL   H26923453   0.411   3.261   2.998  0.0489  1.5558  1.0559
   73MOL   H27023454   0.319   3.276   3.152 -0.3540 -0.2440 -0.7232
   73MOL   H27123455   0.584   3.039   3.029 -0.8413 -2.0536 -0.4660
   73MOL   H27223456   0.578   3.132   3.171 -0.8988  2.1535 -2.2406
   73MOL   H27323457   0.543   2.958   3.179 -0.8817  0.9525  0.6068
   73MOL   C27423458   0.060   3.063   3.193 -0.6854  0.7033  0.1794
   73MOL   C27523459   7.742   3.028   3.145 -0.6816  0.9460  0.4254
   73MOL   O27623460   7.690   2.923   3.223 -0.3190 -0.1925 -0.4923
   73MOL   C27723461   7.582   2.854   3.163 -0.6181 -0.5293 -0.0910
   73MOL   C27823462   7.497   2.807   3.283  0.0829  0.5276  0.2763
   73MOL   C27923463   7.638   2.739   3.086  0.1186  0.5265 -0.0502
   73MOL   H28023464   0.054   3.088   3.299 -0.4299  0.9429  0.1402
   73MOL   H28123465   0.090   3.163   3.160  3.0944  0.2348  1.8732
   73MOL   H28223466   7.750   3.017   3.037 -1.2356  1.2295  0.3593
   73MOL   H28323467   7.531   2.918   3.091 -2.1244 -0.6052  0.8952
   73MOL   H28423468   7.419   2.745   3.239 -2.3215  2.7223  1.3651
   73MOL   H28523469   7.563   2.745   3.345 -1.1292 -0.9866  0.0834
   73MOL   H28623470   7.450   2.890   3.335  0.4632  1.0519 -0.2073
   73MOL   H28723471   7.568   2.719   3.005  1.2582  0.2713 -0.9862
   73MOL   H28823472   7.662   2.657   3.154 -1.0846 -0.1912 -0.4797
   73MOL   H28923473   7.731   2.758   3.031  0.6779 -0.9006  0.3722
   73MOL   C29023474   7.650   3.148   3.183 -0.5831  0.0609  0.0954
   73MOL   C29123475   7.630   3.253   3.072 -0.4297 -1.1663  0.1375
   73MOL   O29223476   7.744   3.343   3.082  1.1100 -0.8287  0.1624
   73MOL   C29323477   7.716   3.477   3.131 -0.4936  0.2161  0.5460
   73MOL   C29423478   7.724   3.585   3.017 -0.0565 -0.5783  0.3035
   73MOL   C29523479   0.003   3.501   3.233 -0.3885  0.7110  0.2929
   73MOL   H29623480   7.677   3.191   3.280  1.3442  1.1936 -0.9232
   73MOL   H29723481   7.551   3.106   3.200 -0.3364  0.2364  2.1984
   73MOL   H29823482   7.530   3.297   3.080 -0.0094  0.3469 -2.2084
   73MOL   H29923483   7.627   3.474   3.194 -0.1852 -1.5109  0.9271
   73MOL   H30023484   7.734   3.685   3.058  2.6606  0.0190 -1.6479
   73MOL   H30123485   7.817   3.566   2.963  0.0336  0.1893  0.1818
   73MOL   H30223486   7.652   3.585   2.935  1.6319 -0.2476 -1.2222
   73MOL   H30323487   7.808   3.600   3.276  1.2636  1.2206 -0.2347
   73MOL   H30423488   7.814   3.421   3.306 -0.2401 -0.2968 -0.7801
   73MOL   H30523489   0.102   3.496   3.187 -0.8181 -1.6385 -0.4099
   73MOL   C30623490   7.620   3.205   2.928  0.3134  0.4871 -0.4424
   73MOL   C30723491   7.536   3.299   2.841 -0.0360 -0.1568  0.1974
   73MOL   O30823492   7.530   3.253   2.710  0.5481 -0.6672 -0.4312
   73MOL   C30923493   7.447   3.330   2.612 -0.3741  0.2176  0.1714
   73MOL   C31023494   7.524   3.458   2.574 -0.3390  0.0235 -0.2488
   73MOL   C31123495   7.447   3.242   2.490 -0.0601 -0.1272 -1.0948
   73MOL   H31223496   7.577   3.105   2.924  0.8123  0.1108  2.4728
   73MOL   H31323497   7.721   3.185   2.891  0.3108 -2.0119  0.8010
   73MOL   H31423498   7.437   3.285   2.883  0.2121 -1.8957  0.2438
   73MOL   H31523499   7.344   3.335   2.648  0.1387 -1.7672  2.0559
   73MOL   H31623500   7.513   3.541   2.644 -0.1020  0.6298 -0.9101
   73MOL   H31723501   7.485   3.504   2.483 -0.7797 -0.1014 -0.1205
   73MOL   H31823502   7.631   3.443   2.556 -0.0748  2.7188 -1.2178
   73MOL   H31923503   7.401   3.303   2.412  1.1095  1.9091 -0.2390
   73MOL   H32023504   7.385   3.159   2.523  1.0089 -0.6615 -0.3964
   73MOL   H32123505   7.549   3.209   2.468  0.2723 -0.1877  0.4573
   73MOL   H32223506   7.573   3.401   2.842 -0.4839 -0.0014  1.2842
   74MOL     C123507   4.848   4.162   1.639 -0.4368 -0.9230 -0.2953
   74MOL     C223508   4.732   4.244   1.582  0.0115 -0.0490  0.6903
   74MOL     O323509   4.617   4.168   1.606  0.0894 -0.1698 -0.0074
   74MOL     C423510   4.554   4.116   1.485 -0.0363 -0.1090  0.6096
   74MOL     C523511   4.421   4.054   1.526  0.2803 -0.1641 -0.2018
   74MOL     C623512   4.649   4.006   1.419 -0.9057  0.7485 -0.5716
   74MOL     H723513   4.847   4.058   1.607 -2.4450 -1.2693  0.8352
   74MOL     H823514   4.946   4.199   1.607 -1.0150  1.0775  0.2068
   74MOL     H923515   4.765   4.252   1.478  0.2288 -1.1378  0.6687
   74MOL    H1023516   4.546   4.198   1.413  1.8769 -0.1890  0.2906
   74MOL    H1123517   4.363   4.134   1.572 -1.7076 -2.0399  0.5958
   74MOL    H1223518   4.354   4.030   1.444  0.7289  1.7606 -1.1725
   74MOL    H1323519   4.432   3.983   1.607 -0.5375  0.4076  0.4156
   74MOL    H1423520   4.602   3.961   1.331  2.7184 -0.5347 -1.9546
   74MOL    H1523521   4.744   4.051   1.391 -0.5224  1.2623  1.4419
   74MOL    H1623522   4.685   3.923   1.480 -0.3541  0.6174 -1.0767
   74MOL    H1723523   4.838   4.158   1.747 -1.2202  1.5360 -0.2491
   74MOL    C1823524   4.707   4.383   1.637 -0.1514  0.4495  0.3362
   74MOL    C1923525   4.591   4.463   1.578 -0.4022  0.0643 -0.2843
   74MOL    O2023526   4.621   4.598   1.538 -0.2776 -0.0206 -0.4728
   74MOL    C2123527   4.675   4.624   1.409  0.3121  0.0174 -0.0342
   74MOL    C2223528   4.812   4.584   1.374 -0.0152  0.4594  0.4024
   74MOL    C2323529   4.664   4.774   1.386  0.5240 -0.3357  0.6261
   74MOL    H2423530   4.680   4.357   1.739  1.2315  1.6525  1.0291
   74MOL    H2523531   4.797   4.444   1.627 -0.0633  0.2652  0.0348
   74MOL    H2623532   4.563   4.408   1.487 -1.6168 -2.5495  1.5911
   74MOL    H2723533   4.613   4.571   1.337  0.2843 -3.1382  2.1768
   74MOL    H2823534   4.829   4.608   1.269 -0.7986  0.2683  0.2288
   74MOL    H2923535   4.883   4.636   1.438 -0.3111  2.6172 -0.9679
   74MOL    H3023536   4.828   4.477   1.389  0.8644  0.8809  2.7202
   74MOL    H3123537   4.563   4.798   1.353  1.4802  0.5314 -1.7942
   74MOL    H3223538   4.714   4.826   1.305  0.4249 -0.8872  0.2012
   74MOL    H3323539   4.688   4.829   1.476  2.3653  0.1392 -0.1369
   74MOL    C3423540   4.462   4.453   1.673 -0.4665 -0.1958  0.6673
   74MOL    C3523541   4.328   4.501   1.609  0.3585  0.6655  0.3438
   74MOL    O3623542   4.274   4.390   1.540 -0.4831  0.1669 -0.5968
   74MOL    C3723543   4.214   4.402   1.414 -0.0234 -0.2530 -0.5336
   74MOL    C3823544   4.332   4.435   1.320 -0.0118  0.3208 -0.4063
   74MOL    C3923545   4.145   4.272   1.369 -0.3234 -0.4830 -0.2674
   74MOL    H4023546   4.487   4.523   1.753  0.9485  1.0547 -0.8578
   74MOL    H4123547   4.449   4.353   1.714 -2.9463 -0.4185 -0.5607
   74MOL    H4223548   4.348   4.572   1.529  2.4219 -1.7668 -1.3880
   74MOL    H4323549   4.144   4.485   1.409  1.1433  0.6317 -3.2075
   74MOL    H4423550   4.411   4.360   1.320  0.2486  0.5853  0.3763
   74MOL    H4523551   4.377   4.533   1.337  2.4259 -1.3495  3.3623
   74MOL    H4623552   4.286   4.428   1.222 -0.8197  1.4231 -0.1196
   74MOL    H4723553   4.048   4.254   1.415 -0.0109 -2.2551 -0.2710
   74MOL    H4823554   4.108   4.289   1.268 -2.5327  2.1936  0.9187
   74MOL    H4923555   4.198   4.178   1.382 -0.3342 -0.4745 -0.1580
   74MOL    C5023556   4.230   4.550   1.707 -0.3460 -1.0139 -0.2081
   74MOL    C5123557   4.273   4.681   1.775 -0.3910 -0.1815  0.1361
   74MOL    O5223558   4.166   4.708   1.870  0.0349 -0.0803 -0.1464
   74MOL    C5323559   4.202   4.725   2.010 -0.4951 -0.0244 -0.4411
   74MOL    C5423560   4.218   4.580   2.070  0.2734 -0.5485  0.0225
   74MOL    C5523561   4.099   4.817   2.073  0.0294  0.0707 -0.4307
   74MOL    H5623562   4.137   4.576   1.656 -0.4639  0.0714  0.5381
   74MOL    H5723563   4.211   4.466   1.774 -2.0938 -1.1415 -0.8296
   74MOL    H5823564   4.362   4.667   1.836 -0.2437 -0.8217 -0.2234
   74MOL    H5923565   4.292   4.785   2.021 -0.7619  0.3496 -0.3057
   74MOL    H6023566   4.127   4.524   2.053 -1.4605  1.4945  2.1656
   74MOL    H6123567   4.240   4.581   2.177  0.4116  2.1518  0.0110
   74MOL    H6223568   4.305   4.529   2.028 -0.5422 -0.2021 -2.1071
   74MOL    H6323569   4.082   4.910   2.018  0.1492 -0.4822 -1.4278
   74MOL    H6423570   4.126   4.831   2.177  0.9414 -0.6995 -0.5649
   74MOL    H6523571   4.002   4.766   2.075  0.2056 -0.2432  0.0937
   74MOL    C6623572   4.277   4.811   1.683 -0.1846  0.4387  0.8054
   74MOL    C6723573   4.336   4.931   1.757 -0.2300 -0.1806  0.1741
   74MOL    O6823574   4.273   5.055   1.699  0.0911 -0.2255  0.2312
   74MOL    C6923575   4.141   5.085   1.737 -0.3193  0.7662  0.4087
   74MOL    C7023576   4.145   5.147   1.884 -0.2856 -0.5378 -0.0001
   74MOL    C7123577   4.079   5.190   1.645  0.0467 -0.4695  0.0560
   74MOL    H7223578   4.328   4.796   1.588  2.7213 -2.8044  2.7907
   74MOL    H7323579   4.182   4.848   1.643  0.7389  1.2443 -0.7260
   74MOL    H7423580   4.310   4.918   1.862  2.2818  1.5081  1.0452
   74MOL    H7523581   4.084   4.993   1.737  1.7510 -0.6440  4.0197
   74MOL    H7623582   4.195   5.083   1.957  0.5446  0.2425  0.1212
   74MOL    H7723583   4.194   5.243   1.902 -0.5622 -0.2114 -0.9308
   74MOL    H7823584   4.041   5.157   1.917  0.3414  0.0430  1.8807
   74MOL    H7923585   4.145   5.276   1.630 -0.7199  0.1779  0.3357
   74MOL    H8023586   3.987   5.234   1.684 -1.3909 -2.4184 -1.0760
   74MOL    H8123587   4.046   5.163   1.545 -0.6018 -0.6006  0.3026
   74MOL    C8223588   4.486   4.941   1.732 -0.6077 -0.1535  0.0783
   74MOL    C8323589   4.566   5.045   1.811 -0.2496 -0.1423 -0.4092
   74MOL    O8423590   4.701   5.016   1.775  0.4403  0.5184  0.1966
   74MOL    C8523591   4.790   4.956   1.865 -0.6395  0.1041 -0.3110
   74MOL    C8623592   4.928   5.017   1.850  0.8125  0.3418 -0.3884
   74MOL    C8723593   4.803   4.809   1.817 -0.6792  0.0832 -0.3667
   74MOL    H8823594   4.536   4.851   1.768  3.1754  1.6222 -0.4761
   74MOL    H8923595   4.519   4.942   1.629 -0.0601 -0.9425  0.2377
   74MOL    H9023596   4.548   5.027   1.918  2.5538  3.3845  0.7546
   74MOL    H9123597   4.750   4.948   1.966 -1.0746 -1.8958 -0.6155
   74MOL    H9223598   4.992   4.982   1.931 -0.8046 -0.6320  0.4882
   74MOL    H9323599   4.977   4.994   1.755  0.8116  1.9340 -0.8018
   74MOL    H9423600   4.918   5.126   1.854  1.4352  0.3580  1.2454
   74MOL    H9523601   4.893   4.764   1.859 -1.9996  0.0847  2.5638
   74MOL    H9623602   4.717   4.755   1.855  0.0647  0.4274  1.8904
   74MOL    H9723603   4.794   4.815   1.709  1.5445 -0.0927 -0.5745
   74MOL    C9823604   4.529   5.190   1.785 -0.2837 -0.6608 -0.5811
   74MOL    C9923605   4.635   5.292   1.844  0.2157 -0.5698  0.0826
   74MOL   O10023606   4.584   5.356   1.955 -0.8108  0.3010 -0.2674
   74MOL   C10123607   4.643   5.311   2.074 -0.5154  0.2947 -0.3823
   74MOL   C10223608   4.538   5.326   2.187  0.3077 -0.0119  0.1606
   74MOL   C10323609   4.769   5.391   2.109 -0.2324  0.0032  0.4107
   74MOL   H10423610   4.522   5.207   1.678  1.4775  0.6140 -0.5172
   74MOL   H10523611   4.436   5.212   1.838  0.6372  1.5927  0.2048
   74MOL   H10623612   4.731   5.246   1.866 -0.9417 -2.6615  0.9338
   74MOL   H10723613   4.659   5.204   2.061 -1.3348 -0.0307  1.1427
   74MOL   H10823614   4.446   5.270   2.167  0.8426 -1.2890  1.1549
   74MOL   H10923615   4.525   5.433   2.201  0.2008  0.0844 -0.6112
   74MOL   H11023616   4.576   5.268   2.271 -2.7749 -1.5266  0.5919
   74MOL   H11123617   4.741   5.496   2.114 -1.2830 -0.1879 -1.0522
   74MOL   H11223618   4.843   5.368   2.033 -1.8130 -0.5522 -1.0005
   74MOL   H11323619   4.817   5.360   2.202  0.9009 -2.3114 -0.9009
   74MOL   C11423620   4.668   5.404   1.746 -0.1578  0.4708 -0.4322
   74MOL   C11523621   4.764   5.379   1.625 -1.0498  0.2335 -0.2406
   74MOL   O11623622   4.692   5.349   1.506  0.2937 -0.4546  0.3060
   74MOL   C11723623   4.750   5.271   1.404  0.4282 -0.6641  0.2229
   74MOL   C11823624   4.761   5.361   1.277  0.1609  0.1762 -0.6745
   74MOL   C11923625   4.664   5.139   1.379 -0.7869  0.0481 -0.6531
   74MOL   H12023626   4.714   5.482   1.807  0.4007  0.4703 -0.8416
   74MOL   H12123627   4.571   5.445   1.720 -0.4726  1.2289  1.7935
   74MOL   H12223628   4.816   5.287   1.653 -0.2434  1.0367  0.9028
   74MOL   H12323629   4.853   5.252   1.433  0.8187  0.5494 -0.3363
   74MOL   H12423630   4.666   5.387   1.230 -0.0398 -1.4377 -1.2015
   74MOL   H12523631   4.820   5.314   1.199  1.1419  0.6636 -0.2307
   74MOL   H12623632   4.811   5.455   1.299  0.2826  0.3645 -1.7186
   74MOL   H12723633   4.717   5.078   1.305  0.3407  0.2502 -0.0195
   74MOL   H12823634   4.567   5.160   1.334 -1.1892 -0.8143 -0.1861
   74MOL   H12923635   4.638   5.086   1.470  0.3124  0.4877 -0.0700
   74MOL   C13023636   4.860   5.491   1.609  0.8334  0.3696  0.2124
   74MOL   C13123637   4.978   5.495   1.715 -0.1906  0.2097 -0.0763
   74MOL   O13223638   5.060   5.609   1.680  0.0254 -0.2090  0.0453
   74MOL   C13323639   5.042   5.727   1.763  0.0703 -0.2374 -0.0405
   74MOL   C13423640   4.900   5.787   1.773  0.2415  0.1699 -0.2596
   74MOL   C13523641   5.105   5.695   1.903  0.1250 -0.1575  1.0135
   74MOL   H13623642   4.805   5.586   1.605  0.0506 -0.1279 -1.2233
   74MOL   H13723643   4.912   5.484   1.514  2.9372  0.2451  1.3483
   74MOL   H13823644   4.941   5.498   1.818 -0.0237 -0.7062  0.0140
   74MOL   H13923645   5.112   5.802   1.727  0.8862 -1.5035 -1.1120
   74MOL   H14023646   4.843   5.804   1.681 -0.1822  1.1594  0.1874
   74MOL   H14123647   4.902   5.887   1.815  0.6405 -0.6698  1.7661
   74MOL   H14223648   4.846   5.716   1.836  0.5938 -0.7375 -0.9580
   74MOL   H14323649   5.045   5.626   1.963 -3.8410  1.0276 -1.3513
   74MOL   H14423650   5.210   5.667   1.895 -0.2697 -1.2974 -0.4842
   74MOL   H14523651   5.094   5.788   1.959  4.1291  0.5117  0.8084
   74MOL   C14623652   5.066   5.368   1.699  0.3033  0.0184  0.2135
   74MOL   C14723653   5.188   5.348   1.792  0.1104 -0.0936 -0.5181
   74MOL   O14823654   5.133   5.289   1.916 -0.3182 -0.0507  0.5858
   74MOL   C14923655   5.222   5.291   2.028 -0.3392 -0.0135  0.2471
   74MOL   C15023656   5.217   5.142   2.077 -0.2700 -0.6650 -0.0649
   74MOL   C15123657   5.170   5.391   2.124  0.2456 -0.3287  0.4615
   74MOL   H15223658   5.092   5.341   1.597 -2.2134  1.5473 -0.8818
   74MOL   H15323659   5.010   5.276   1.715  0.3313 -0.0848 -0.2736
   74MOL   H15423660   5.250   5.433   1.817 -1.0646  0.0941  1.8914
   74MOL   H15523661   5.327   5.305   2.001 -0.4148 -1.3604 -0.8226
   74MOL   H15623662   5.284   5.148   2.163 -1.9159  0.1127  1.1981
   74MOL   H15723663   5.256   5.069   2.007 -2.7636  0.0657 -2.3331
   74MOL   H15823664   5.110   5.120   2.089 -0.9904  1.9483 -1.3011
   74MOL   H15923665   5.200   5.386   2.228 -0.1827  0.3562  0.6221
   74MOL   H16023666   5.061   5.387   2.120  0.3022 -1.4570 -0.3696
   74MOL   H16123667   5.201   5.487   2.083 -0.7656 -0.0637  0.2826
   74MOL   C16223668   5.294   5.254   1.734  0.4194  0.1638  0.4382
   74MOL   C16323669   5.371   5.324   1.622 -0.3804  0.0626  0.3974
   74MOL   O16423670   5.474   5.400   1.686  0.0221 -0.0880 -0.2992
   74MOL   C16523671   5.508   5.529   1.625 -0.6985 -0.2971  0.6043
   74MOL   C16623672   5.666   5.538   1.639  0.3219 -0.2818 -0.1036
   74MOL   C16723673   5.436   5.635   1.700 -0.2070  0.6296  0.6029
   74MOL   H16823674   5.370   5.232   1.808  1.5258  0.9877 -0.4213
   74MOL   H16923675   5.249   5.164   1.692  1.7444  0.2431 -1.2460
   74MOL   H17023676   5.310   5.401   1.573  1.7534  1.7121  0.2430
   74MOL   H17123677   5.471   5.536   1.522  0.2993 -0.6658  0.2146
   74MOL   H17223678   5.720   5.484   1.561 -0.0291 -1.7826  0.6694
   74MOL   H17323679   5.695   5.490   1.733 -1.2661  1.5204  1.3424
   74MOL   H17423680   5.685   5.645   1.639 -2.1945  0.2206  1.7395
   74MOL   H17523681   5.471   5.738   1.698  1.6900  0.0093  0.1255
   74MOL   H17623682   5.448   5.606   1.804 -1.5203 -0.7579  0.3826
   74MOL   H17723683   5.330   5.626   1.678 -0.1254 -0.2472  0.5388
   74MOL   C17823684   5.435   5.227   1.520 -0.0491  0.1076  0.5363
   74MOL   C17923685   5.328   5.157   1.421  0.5528 -0.0625  0.2679
   74MOL   O18023686   5.231   5.244   1.363 -0.3343 -0.3678  0.0851
   74MOL   C18123687   5.267   5.355   1.287  0.0018 -0.0902  0.3394
   74MOL   C18223688   5.149   5.444   1.314 -0.2183  0.2061 -0.0901
   74MOL   C18323689   5.289   5.318   1.143  0.4893  0.0103 -0.2660
   74MOL   H18423690   5.476   5.142   1.573 -0.4232 -0.6768 -0.4157
   74MOL   H18523691   5.512   5.282   1.466 -0.5624 -0.1994 -0.5366
   74MOL   H18623692   5.268   5.086   1.479  0.6247 -0.2666  0.0927
   74MOL   H18723693   5.353   5.401   1.333 -0.5888  0.6836  0.6762
   74MOL   H18823694   5.147   5.489   1.414  0.7067 -0.8733  0.4327
   74MOL   H18923695   5.055   5.396   1.289  0.4129 -2.2212  1.9834
   74MOL   H19023696   5.157   5.535   1.254 -1.1750 -0.0654 -0.6362
   74MOL   H19123697   5.378   5.256   1.131  0.7960  0.1091  1.3105
   74MOL   H19223698   5.307   5.408   1.085 -1.4509  1.3330  1.1569
   74MOL   H19323699   5.210   5.267   1.088  0.9698  0.2962 -1.2376
   74MOL   C19423700   5.399   5.058   1.334 -0.5894 -0.1018  0.1927
   74MOL   C19523701   5.296   4.981   1.239 -0.1744 -0.0696 -0.2681
   74MOL   O19623702   5.199   4.911   1.324 -0.2917  0.4287  0.1748
   74MOL   C19723703   5.065   4.951   1.306  0.8212  0.3902  0.2641
   74MOL   C19823704   5.013   4.850   1.203 -0.0973 -0.5671  0.4082
   74MOL   C19923705   4.982   4.950   1.437  0.2677 -0.2201  0.4832
   74MOL   H20023706   5.467   5.111   1.268 -1.8645 -0.9819 -1.8810
   74MOL   H20123707   5.469   4.992   1.385 -0.7903 -0.2608  0.2664
   74MOL   H20223708   5.240   5.049   1.175  0.2318 -0.5177 -1.1092
   74MOL   H20323709   5.055   5.053   1.270  1.9954  1.1187  1.9836
   74MOL   H20423710   5.058   4.864   1.105  0.6128 -1.7300  0.5678
   74MOL   H20523711   5.031   4.752   1.245 -0.2986 -0.2080  1.3535
   74MOL   H20623712   4.905   4.855   1.192 -0.0498  0.8303  0.4371
   74MOL   H20723713   5.010   5.036   1.497 -0.7771  0.8380 -0.5232
   74MOL   H20823714   4.876   4.954   1.413  0.6129 -1.3930 -1.2987
   74MOL   H20923715   5.002   4.858   1.492  1.9326  1.0228  2.0119
   74MOL   C21023716   5.363   4.878   1.149 -0.3152 -0.1324 -0.4411
   74MOL   C21123717   5.448   4.929   1.024  0.5409  0.0024 -0.0280
   74MOL   O21223718   5.381   5.030   0.958 -0.3672  0.6705  0.1435
   74MOL   C21323719   5.276   4.987   0.866  0.1731  0.3153 -0.0579
   74MOL   C21423720   5.184   5.100   0.870  0.6483 -0.3987  0.2676
   74MOL   C21523721   5.331   4.966   0.727  0.4022 -0.2349  0.3232
   74MOL   H21623722   5.304   4.788   1.132  0.9771 -1.1981  0.6818
   74MOL   H21723723   5.433   4.829   1.217  0.2015 -0.4986 -1.2359
   74MOL   H21823724   5.462   4.838   0.966 -3.3344 -1.8155  1.6849
   74MOL   H21923725   5.237   4.890   0.897 -1.5508  1.3413  1.1339
   74MOL   H22023726   5.113   5.073   0.792  0.1602  1.1080  0.1721
   74MOL   H22123727   5.225   5.198   0.846 -1.5264  0.0749 -1.6706
   74MOL   H22223728   5.145   5.101   0.972  1.6874 -1.7789  0.6873
   74MOL   H22323729   5.395   4.878   0.725  0.8154  0.0728 -2.4612
   74MOL   H22423730   5.392   5.050   0.692 -0.5105  0.7698  1.1407
   74MOL   H22523731   5.246   4.949   0.660  1.8585  2.9006 -2.5126
   74MOL   C22623732   5.587   4.975   1.070  0.6730 -0.4355  0.0075
   74MOL   C22723733   5.708   4.954   0.972 -0.3172  0.5631  0.7450
   74MOL   O22823734   5.740   4.815   0.966  0.4417 -0.2540 -0.9303
   74MOL   C22923735   5.802   4.771   0.849  0.2101  0.8478  0.8424
   74MOL   C23023736   5.696   4.740   0.740  0.5136 -0.3711  0.4445
   74MOL   C23123737   5.873   4.645   0.891 -0.2531  0.1847  0.2505
   74MOL   H23223738   5.609   4.907   1.152  0.5703 -0.3168  0.1332
   74MOL   H23323739   5.577   5.077   1.106  0.5646 -0.2688 -0.4947
   74MOL   H23423740   5.666   4.980   0.875  1.7548  1.0621 -0.0318
   74MOL   H23523741   5.865   4.850   0.808 -1.7069  2.2691  0.5476
   74MOL   H23623742   5.650   4.834   0.708  1.2404 -0.4244 -0.7811
   74MOL   H23723743   5.735   4.700   0.647  0.6023  2.8158 -0.9744
   74MOL   H23823744   5.613   4.677   0.772 -0.4595  0.4995 -0.2901
   74MOL   H23923745   5.803   4.565   0.914  1.1918 -1.1070  0.2243
   74MOL   H24023746   5.927   4.656   0.985 -1.1400 -1.6177  0.9991
   74MOL   H24123747   5.943   4.602   0.819 -1.3333 -0.9278 -0.1630
   74MOL   C24223748   5.833   5.042   1.001  0.2140  0.3099  0.0918
   74MOL   C24323749   5.916   5.006   1.128 -0.0548  0.1231  0.3212
   74MOL   O24423750   5.849   5.073   1.234  0.0527 -0.6888 -0.0784
   74MOL   C24523751   5.868   5.037   1.366 -0.0068 -0.8767 -0.2217
   74MOL   C24623752   5.799   5.148   1.453  0.3911 -0.5470  0.3903
   74MOL   C24723753   5.812   4.899   1.398 -0.0677  0.5347  1.0871
   74MOL   H24823754   5.903   5.024   0.920 -1.7235 -0.8628 -1.3689
   74MOL   H24923755   5.815   5.149   1.007  2.3971  0.6455  1.3608
   74MOL   H25023756   5.911   4.898   1.146  0.8824  0.2766  1.5489
   74MOL   H25123757   5.973   5.036   1.396  0.2546  0.0239 -1.1043
   74MOL   H25223758   5.801   5.110   1.555  1.6838 -0.0522  0.5570
   74MOL   H25323759   5.869   5.231   1.458 -3.5865  2.9628  0.2373
   74MOL   H25423760   5.704   5.185   1.414 -0.8673 -1.7155  2.2459
   74MOL   H25523761   5.709   4.881   1.367  0.3654 -1.4025  0.7305
   74MOL   H25623762   5.882   4.822   1.364 -0.3430  1.6495 -2.1949
   74MOL   H25723763   5.815   4.880   1.505 -0.9285  0.2441  1.0601
   74MOL   C25823764   6.066   5.056   1.109  0.4517  0.0435 -0.1281
   74MOL   C25923765   6.142   4.994   0.991  1.0261 -0.7744 -0.1313
   74MOL   O26023766   6.271   4.956   1.035  0.2494 -0.5590  0.3876
   74MOL   C26123767   6.285   4.840   1.113 -0.5488  0.0151 -0.0218
   74MOL   C26223768   6.294   4.711   1.028  0.7497  0.1223  0.4264
   74MOL   C26323769   6.417   4.851   1.195 -0.4712  0.3266  0.2306
   74MOL   H26423770   6.064   5.165   1.108  3.0925  0.1723  2.3001
   74MOL   H26523771   6.127   5.032   1.197  0.6845 -0.5103 -0.4389
   74MOL   H26623772   6.091   4.908   0.947 -1.7718  0.7468  0.0210
   74MOL   H26723773   6.202   4.821   1.180 -1.6965  1.6787 -0.9160
   74MOL   H26823774   6.206   4.693   0.966  1.0180  0.5254 -0.0709
   74MOL   H26923775   6.320   4.632   1.099  1.2093  0.9121  1.1404
   74MOL   H27023776   6.379   4.705   0.961  1.8561  1.8881  1.6354
   74MOL   H27123777   6.444   4.949   1.234  1.9539 -0.0492 -0.3896
   74MOL   H27223778   6.426   4.774   1.272  2.0448 -1.8204 -2.0956
   74MOL   H27323779   6.494   4.831   1.120  0.6330  3.7121  0.3756
   74MOL   C27423780   6.171   5.109   0.889  0.5115  0.5606 -0.0268
   74MOL   C27523781   6.226   5.075   0.751  0.2324  0.3254  0.4525
   74MOL   O27623782   6.113   5.004   0.696  0.1875  0.6461 -0.3025
   74MOL   C27723783   6.152   4.904   0.600  0.1907  0.4069  0.2145
   74MOL   C27823784   6.043   4.872   0.498  0.2753 -0.2908 -0.3324
   74MOL   C27923785   6.199   4.773   0.670 -0.5013  0.4614 -0.0997
   74MOL   H28023786   6.079   5.164   0.869  0.3589 -0.0450 -1.0250
   74MOL   H28123787   6.240   5.183   0.930  2.5304 -2.0977  1.5031
   74MOL   H28223788   6.317   5.019   0.775  1.2146  1.0339 -1.5099
   74MOL   H28323789   6.248   4.928   0.556  0.5239  1.7037  1.5819
   74MOL   H28423790   5.951   4.840   0.547  0.5995 -2.2385 -0.9508
   74MOL   H28523791   6.024   4.962   0.440 -1.1219  0.1502  0.7763
   74MOL   H28623792   6.077   4.811   0.415  1.0542  1.3580 -1.2415
   74MOL   H28723793   6.235   4.692   0.606 -1.6221 -0.5544  0.5500
   74MOL   H28823794   6.105   4.741   0.714  1.0947 -1.2033  2.1824
   74MOL   H28923795   6.272   4.800   0.747  1.9560  1.2114 -2.5964
   74MOL   C29023796   6.269   5.191   0.665 -0.2973  0.6274 -0.1614
   74MOL   C29123797   6.398   5.254   0.719 -0.1173  0.1032 -0.1088
   74MOL   O29223798   6.510   5.165   0.699 -0.0558 -0.5829  0.0267
   74MOL   C29323799   6.616   5.165   0.803 -0.0777 -0.4647  0.1985
   74MOL   C29423800   6.751   5.138   0.734  0.6711 -0.1007  0.2992
   74MOL   C29523801   6.587   5.043   0.886 -0.2022  0.0399  0.4297
   74MOL   H29623802   6.182   5.257   0.660 -1.1773 -0.6838 -3.5708
   74MOL   H29723803   6.282   5.145   0.567  2.0716  2.1470 -0.5791
   74MOL   H29823804   6.391   5.278   0.825  3.1392 -1.6286  0.5759
   74MOL   H29923805   6.615   5.258   0.860 -1.4895 -0.8971  0.9063
   74MOL   H30023806   6.836   5.148   0.802 -0.5320  3.5923  1.3810
   74MOL   H30123807   6.763   5.044   0.681  0.9336  0.4092 -0.5455
   74MOL   H30223808   6.766   5.219   0.663 -1.2815  1.2350  1.3733
   74MOL   H30323809   6.595   4.951   0.829  1.7327  0.3463  0.1722
   74MOL   H30423810   6.668   5.013   0.953  0.1962 -2.0871 -0.9746
   74MOL   H30523811   6.487   5.040   0.930 -0.8066  0.1042 -0.9439
   74MOL   C30623812   6.440   5.379   0.637  0.0751  0.1784  0.0714
   74MOL   C30723813   6.336   5.495   0.635 -0.0036  0.4502  0.0466
   74MOL   O30823814   6.281   5.530   0.774 -0.4980 -0.5458  0.5763
   74MOL   C30923815   6.177   5.620   0.766  0.2238 -0.7602 -0.6751
   74MOL   C31023816   6.106   5.619   0.902 -0.9547  0.0713 -0.9632
   74MOL   C31123817   6.226   5.762   0.740 -0.1119 -0.0818 -0.0542
   74MOL   H31223818   6.476   5.350   0.538 -5.3548  0.4613 -2.1425
   74MOL   H31323819   6.526   5.420   0.691 -0.4979  0.5169  0.7324
   74MOL   H31423820   6.377   5.583   0.585 -1.8630  0.4515 -1.5473
   74MOL   H31523821   6.120   5.579   0.683  1.8696 -0.5677 -1.9230
   74MOL   H31623822   6.019   5.685   0.901 -2.7435 -2.1644  0.9952
   74MOL   H31723823   6.169   5.639   0.989 -0.1295 -0.5029 -1.4219
   74MOL   H31823824   6.068   5.518   0.920 -0.1996 -0.1579 -0.6430
   74MOL   H31923825   6.143   5.832   0.735 -0.3387 -0.1231  2.5047
   74MOL   H32023826   6.288   5.774   0.651  0.8307  2.4236  0.8882
   74MOL   H32123827   6.289   5.809   0.817 -0.5762  1.4672 -0.5971
   74MOL   H32223828   6.253   5.453   0.578  2.4239 -0.7374 -2.7771
   75MOL     C123829   2.828   4.937   6.142 -0.4219  0.7087 -0.1355
   75MOL     C223830   2.780   5.074   6.185  0.4865 -0.3286  0.3831
   75MOL     O323831   2.642   5.080   6.163  0.6394 -0.2031 -0.2964
   75MOL     C423832   2.588   5.210   6.135 -0.0156  0.7051 -0.4524
   75MOL     C523833   2.436   5.175   6.140  0.6153  0.3120  0.0234
   75MOL     C623834   2.635   5.254   5.997  0.6116  0.0453 -0.7243
   75MOL     H723835   2.937   4.928   6.151 -0.6603 -0.6995  1.4601
   75MOL     H823836   2.782   4.863   6.206 -2.6340  2.3670  0.2583
   75MOL     H923837   2.825   5.154   6.126 -1.2913  0.0257 -0.5236
   75MOL    H1023838   2.609   5.286   6.209  1.0647 -0.4880  0.4970
   75MOL    H1123839   2.395   5.105   6.069  1.3045  0.8542 -0.9228
   75MOL    H1223840   2.414   5.139   6.241 -1.5383  1.2390 -0.0885
   75MOL    H1323841   2.373   5.263   6.128 -0.9883 -0.6642  1.1903
   75MOL    H1423842   2.740   5.277   5.984  0.4879  1.7328  1.0760
   75MOL    H1523843   2.602   5.184   5.920 -0.8962  0.4679 -0.4872
   75MOL    H1623844   2.596   5.353   5.972 -1.0111 -0.1683  0.8787
   75MOL    H1723845   2.807   4.923   6.036 -1.5502  0.4388  0.1275
   75MOL    C1823846   2.792   5.096   6.334 -0.4631 -0.6216  0.8357
   75MOL    C1923847   2.936   5.091   6.390 -0.2415 -0.2595 -0.0401
   75MOL    O2023848   2.918   5.085   6.537 -0.2113 -0.0621 -0.3636
   75MOL    C2123849   2.938   4.957   6.591  0.0639  0.0663  0.0971
   75MOL    C2223850   2.797   4.891   6.610  0.2871 -0.3143 -0.2472
   75MOL    C2323851   3.008   4.989   6.730 -1.1894 -0.5365  0.5707
   75MOL    H2423852   2.751   5.195   6.353 -0.1558 -0.4354  0.5312
   75MOL    H2523853   2.732   5.015   6.375 -3.0733  0.0110 -1.5417
   75MOL    H2623854   2.993   5.004   6.357 -0.4087  0.2235 -1.6021
   75MOL    H2723855   3.005   4.888   6.539  1.5016  1.5511 -0.0584
   75MOL    H2823856   2.760   4.864   6.511  1.5145 -1.6208 -0.3695
   75MOL    H2923857   2.811   4.795   6.660  3.9970  0.4198  0.2466
   75MOL    H3023858   2.728   4.955   6.666 -0.2592 -1.3892  0.3324
   75MOL    H3123859   3.109   5.029   6.718 -1.1868 -0.4564  0.8633
   75MOL    H3223860   3.018   4.892   6.778  2.1879 -0.9523 -0.8464
   75MOL    H3323861   2.965   5.057   6.804  1.8744  1.5405  0.5343
   75MOL    C3423862   3.031   5.213   6.352 -0.6595 -0.3228 -0.2177
   75MOL    C3523863   3.179   5.185   6.379 -0.2944 -1.0055  0.3809
   75MOL    O3623864   3.242   5.109   6.274 -0.3427  0.4206 -0.2397
   75MOL    C3723865   3.336   5.011   6.313 -0.5603  0.4586 -0.6747
   75MOL    C3823866   3.275   4.868   6.303  0.1070 -0.7192  0.0083
   75MOL    C3923867   3.466   5.027   6.237 -0.2332  0.7830 -0.0832
   75MOL    H4023868   2.994   5.297   6.411 -0.5842 -0.4032 -0.0568
   75MOL    H4123869   3.009   5.231   6.247 -1.0746  0.3547 -0.0200
   75MOL    H4223870   3.175   5.123   6.469 -2.4702  1.9583  2.4495
   75MOL    H4323871   3.365   5.021   6.418 -1.0714  0.1508 -0.5059
   75MOL    H4423872   3.194   4.846   6.372  0.9532  0.7597  1.5227
   75MOL    H4523873   3.353   4.793   6.316  1.7560  0.9711  0.2604
   75MOL    H4623874   3.251   4.856   6.198  1.9140  2.9126 -0.9208
   75MOL    H4723875   3.548   4.966   6.275 -0.0287  0.3734 -1.1528
   75MOL    H4823876   3.450   4.997   6.133  2.6836  1.1079 -0.6567
   75MOL    H4923877   3.494   5.132   6.243 -0.7356  0.9916 -1.2636
   75MOL    C5023878   3.258   5.314   6.406  0.2758  0.1572 -0.0478
   75MOL    C5123879   3.262   5.368   6.549  0.0808 -0.6790  0.2335
   75MOL    O5223880   3.316   5.506   6.538  0.1551  0.1209  0.4606
   75MOL    C5323881   3.222   5.614   6.560 -0.8480  0.6379 -0.5946
   75MOL    C5423882   3.105   5.615   6.459 -0.0720 -0.0081 -0.7203
   75MOL    C5523883   3.323   5.727   6.531 -0.3105 -0.7003 -0.5087
   75MOL    H5623884   3.358   5.293   6.368 -0.6466 -1.4660 -1.6955
   75MOL    H5723885   3.214   5.387   6.338 -1.4193 -1.1428 -0.4031
   75MOL    H5823886   3.160   5.371   6.587  0.7339  2.1526  1.8677
   75MOL    H5923887   3.190   5.616   6.664  0.1427  1.7912 -0.2891
   75MOL    H6023888   3.054   5.710   6.471  0.4489  0.1971 -0.1317
   75MOL    H6123889   3.036   5.537   6.491  0.0674  0.5285  0.9361
   75MOL    H6223890   3.133   5.602   6.354 -0.5268  0.2168 -0.8708
   75MOL    H6323891   3.354   5.724   6.426 -0.6133 -1.4588 -0.5838
   75MOL    H6423892   3.407   5.718   6.599 -1.0678 -1.9190  0.2900
   75MOL    H6523893   3.282   5.825   6.555 -0.0839 -0.5005 -0.9310
   75MOL    C6623894   3.350   5.293   6.651  0.7599 -0.0247 -0.0394
   75MOL    C6723895   3.327   5.359   6.794  0.6648  0.1958  0.9940
   75MOL    O6823896   3.438   5.303   6.864 -0.3384  0.0268 -0.0135
   75MOL    C6923897   3.518   5.391   6.935  0.7463 -0.0151  0.3842
   75MOL    C7023898   3.550   5.324   7.066 -0.0439 -0.0559 -0.0389
   75MOL    C7123899   3.641   5.439   6.846 -0.9513  0.3766  0.3326
   75MOL    H7223900   3.333   5.186   6.659 -0.8380  0.1820 -0.4540
   75MOL    H7323901   3.455   5.304   6.625  0.8746  2.6202  1.3216
   75MOL    H7423902   3.328   5.468   6.781  0.4904 -0.1106 -1.9977
   75MOL    H7523903   3.458   5.478   6.964 -0.5100 -1.3230  1.7321
   75MOL    H7623904   3.454   5.299   7.111 -1.2026  2.8436 -0.7465
   75MOL    H7723905   3.619   5.240   7.070 -0.2692 -0.1764  1.4134
   75MOL    H7823906   3.584   5.400   7.137 -0.2817  0.4973 -0.5105
   75MOL    H7923907   3.712   5.359   6.831 -2.6508 -0.8630 -1.3457
   75MOL    H8023908   3.691   5.529   6.882 -0.0625 -1.6575  4.4720
   75MOL    H8123909   3.604   5.453   6.744 -1.2300  1.0524  0.5160
   75MOL    C8223910   3.183   5.315   6.856 -0.1041 -1.0461  0.2531
   75MOL    C8323911   3.150   5.385   6.987 -0.7441 -0.1618 -0.4493
   75MOL    O8423912   3.094   5.508   6.956 -0.1377 -0.0796  0.6657
   75MOL    C8523913   3.115   5.609   7.051 -0.1609  0.0185 -0.4324
   75MOL    C8623914   2.994   5.698   7.059 -0.2572 -0.7144 -0.0312
   75MOL    C8723915   3.231   5.697   6.998  0.1937  0.2161 -0.0023
   75MOL    H8823916   3.100   5.351   6.795  1.4914 -0.9767 -1.9538
   75MOL    H8923917   3.189   5.207   6.869  0.0942 -0.8389  1.9831
   75MOL    H9023918   3.250   5.390   7.029  0.1085 -0.5958 -2.3602
   75MOL    H9123919   3.140   5.574   7.151 -0.4974  0.3865 -0.2211
   75MOL    H9223920   3.011   5.795   7.106  0.3266 -2.3187  3.2317
   75MOL    H9323921   2.962   5.730   6.960 -0.7406 -1.5408 -0.1445
   75MOL    H9423922   2.906   5.662   7.112  0.6060  1.1620  2.7737
   75MOL    H9523923   3.267   5.780   7.058  2.0630 -0.1565 -0.5579
   75MOL    H9623924   3.321   5.639   6.976  0.6505  1.3625 -1.1616
   75MOL    H9723925   3.210   5.746   6.903 -3.0476 -0.9376  0.0772
   75MOL    C9823926   3.051   5.316   7.091 -0.0028  0.6623 -0.5625
   75MOL    C9923927   3.108   5.207   7.189  0.7738 -0.3770 -0.3692
   75MOL   O10023928   3.145   5.097   7.101  0.1392 -0.3717  0.1716
   75MOL   C10123929   3.273   5.041   7.126 -0.0803 -0.2374  0.1908
   75MOL   C10223930   3.282   4.909   7.040 -0.0289  0.3185  0.3675
   75MOL   C10323931   3.307   5.002   7.268  0.2555  0.0915  0.2657
   75MOL   H10423932   2.993   5.385   7.152  0.0702  0.8156 -0.6664
   75MOL   H10523933   2.972   5.264   7.037  0.2441  2.1461 -2.3926
   75MOL   H10623934   3.196   5.257   7.230 -1.6972  3.3531  0.5643
   75MOL   H10723935   3.331   5.123   7.085 -0.0403 -1.1354 -1.6230
   75MOL   H10823936   3.304   4.937   6.937 -0.5187  1.1245  0.4759
   75MOL   H10923937   3.200   4.841   7.060  1.3460 -1.2789  0.6394
   75MOL   H11023938   3.369   4.849   7.065  0.4091  1.4718  1.6943
   75MOL   H11123939   3.414   4.985   7.269  0.6408  2.3517 -0.2087
   75MOL   H11223940   3.249   4.915   7.297 -2.0453  1.0647 -1.2502
   75MOL   H11323941   3.297   5.086   7.337  0.1353  1.3389 -1.2433
   75MOL   C11423942   3.003   5.160   7.294 -0.1716 -0.2548  0.5299
   75MOL   C11523943   3.021   5.232   7.434  0.4889 -0.9468 -0.5141
   75MOL   O11623944   2.971   5.369   7.418  0.3661 -0.3326  0.4771
   75MOL   C11723945   3.013   5.464   7.513 -0.0530  0.0547 -0.9425
   75MOL   C11823946   2.909   5.571   7.501 -0.8141  0.5920 -0.1650
   75MOL   C11923947   3.160   5.508   7.476 -1.0100  0.4379 -0.3240
   75MOL   H12023948   3.031   5.056   7.308 -1.0642 -0.2047  2.7984
   75MOL   H12123949   2.900   5.156   7.259  0.4272 -2.1119 -1.1417
   75MOL   H12223950   3.127   5.231   7.459  0.4807  1.3154 -0.2779
   75MOL   H12323951   3.015   5.428   7.616 -0.6905  1.3274 -0.4817
   75MOL   H12423952   2.920   5.610   7.400  1.7188 -1.1782 -0.6187
   75MOL   H12523953   2.941   5.651   7.568  1.1113 -1.2963  1.2697
   75MOL   H12623954   2.809   5.543   7.534 -0.2058 -0.0840  1.1520
   75MOL   H12723955   3.175   5.521   7.369  2.5878  2.7331  0.3684
   75MOL   H12823956   3.227   5.426   7.503 -1.9793  0.2103  1.4599
   75MOL   H12923957   3.195   5.594   7.534 -0.4097 -0.2634  0.3607
   75MOL   C13023958   2.941   5.149   7.541 -0.1615  0.1625 -0.3119
   75MOL   C13123959   2.984   5.001   7.580 -0.4778  0.0781  0.2027
   75MOL   O13223960   2.884   4.937   7.654  0.0866 -0.5032 -0.1264
   75MOL   C13323961   2.808   4.832   7.598  0.1367  0.2361  0.0934
   75MOL   C13423962   2.704   4.782   7.696  0.1547 -0.0280  0.1656
   75MOL   C13523963   2.740   4.869   7.468  0.2345 -0.2103 -0.2732
   75MOL   H13623964   2.836   5.139   7.512 -0.1261  1.6273 -1.0003
   75MOL   H13723965   2.941   5.196   7.639 -0.6508  0.1409 -0.2986
   75MOL   H13823966   2.998   4.951   7.484  1.8169 -0.3662  0.7348
   75MOL   H13923967   2.885   4.757   7.580 -0.7912 -0.7725  0.2747
   75MOL   H14023968   2.757   4.743   7.782 -0.2572 -0.6383  0.1373
   75MOL   H14123969   2.645   4.697   7.662  1.4942 -1.7627  2.1227
   75MOL   H14223970   2.628   4.856   7.725  0.4485  0.6435 -0.7339
   75MOL   H14323971   2.661   4.943   7.479  2.8070  2.5393 -0.0277
   75MOL   H14423972   2.817   4.906   7.401  2.4419 -0.3042  2.1430
   75MOL   H14523973   2.702   4.773   7.431  1.0501 -1.7344  2.6999
   75MOL   C14623974   3.110   4.993   7.665 -0.2958  0.6529 -0.2573
   75MOL   C14723975   3.169   4.855   7.683  0.4569  0.1913 -0.7185
   75MOL   O14823976   3.252   4.821   7.578  0.1377 -0.0990 -0.0951
   75MOL   C14923977   3.253   4.679   7.550 -0.1210 -0.0442  0.2548
   75MOL   C15023978   3.392   4.633   7.518  1.3302 -0.0788 -0.9892
   75MOL   C15123979   3.165   4.657   7.422 -0.1684 -0.7108 -0.1507
   75MOL   H15223980   3.080   5.017   7.767  1.7575  0.4010  0.4340
   75MOL   H15323981   3.182   5.066   7.627  0.7738 -0.3457 -0.2004
   75MOL   H15423982   3.087   4.783   7.689 -0.1286  0.9088  0.0109
   75MOL   H15523983   3.204   4.624   7.629 -0.2024 -0.1337  0.1416
   75MOL   H15623984   3.428   4.677   7.425  0.0717  1.1228 -0.9360
   75MOL   H15723985   3.401   4.526   7.504 -0.8193 -0.2731 -1.1676
   75MOL   H15823986   3.452   4.681   7.595  0.5994  0.8798 -1.0014
   75MOL   H15923987   3.066   4.702   7.428 -0.4573 -1.3118 -0.3319
   75MOL   H16023988   3.154   4.549   7.420 -0.2619 -0.7048 -0.0216
   75MOL   H16123989   3.201   4.693   7.326 -0.2997  0.7399  0.3311
   75MOL   C16223990   3.255   4.844   7.812 -0.3654  0.0169 -0.6116
   75MOL   C16323991   3.202   4.754   0.103 -0.2525 -0.1547  0.5777
   75MOL   O16423992   3.289   4.779   0.211  0.4340 -0.0650  0.3701
   75MOL   C16523993   3.400   4.684   0.215 -0.7615 -0.5790 -0.0703
   75MOL   C16623994   3.364   4.553   0.281 -0.3865  0.3739  0.0536
   75MOL   C16723995   3.505   4.761   0.292  0.0429 -0.4023  0.0091
   75MOL   H16823996   3.354   4.803   7.789 -0.8590 -1.0761 -0.8017
   75MOL   H16923997   3.268   4.943   0.036 -1.6672  0.6765 -1.6771
   75MOL   H17023998   3.210   4.648   0.081 -0.6453 -0.1665  0.4727
   75MOL   H17123999   3.429   4.664   0.112  0.7169  1.3902 -0.0621
   75MOL   H17224000   3.290   4.496   0.224 -0.8590  0.2856  0.7568
   75MOL   H17324001   3.313   4.566   0.376 -0.6027  2.3779 -0.3098
   75MOL   H17424002   3.454   4.493   0.293 -1.7233 -1.8409 -0.7359
   75MOL   H17524003   3.600   4.709   0.305  0.1193 -0.2683 -0.0166
   75MOL   H17624004   3.458   4.793   0.385  0.5225 -2.0366  0.8383
   75MOL   H17724005   3.525   4.858   0.248  0.0234 -0.2932  0.2428
   75MOL   C17824006   3.060   4.799   0.139 -0.5517 -0.4534  0.0997
   75MOL   C17924007   2.980   4.700   0.227  0.4708 -0.0270 -0.5567
   75MOL   O18024008   2.842   4.746   0.208 -0.1194  0.1628 -0.1714
   75MOL   C18124009   2.804   4.850   0.301 -0.3084 -0.1642 -0.2477
   75MOL   C18224010   2.768   4.799   0.441  0.0021  1.0889  0.3190
   75MOL   C18324011   2.680   4.906   0.232 -0.3207  0.2274 -0.6321
   75MOL   H18424012   3.001   4.819   0.049 -0.6564  0.7058  0.4146
   75MOL   H18524013   3.059   4.901   0.179  2.6797  0.2972 -1.6082
   75MOL   H18624014   3.001   4.698   0.334  0.5440 -0.4873 -0.5763
   75MOL   H18724015   2.884   4.924   0.306 -1.1189  0.6816  0.2348
   75MOL   H18824016   2.863   4.772   0.487 -0.8233 -1.8511  0.4441
   75MOL   H18924017   2.709   4.709   0.423  1.9621 -0.3194  0.7610
   75MOL   H19024018   2.715   4.866   0.509  1.8535  1.6226  1.2573
   75MOL   H19124019   2.653   4.999   0.282  0.4234  0.6837 -1.0759
   75MOL   H19224020   2.600   4.833   0.251  1.6364 -1.8508 -0.2109
   75MOL   H19324021   2.703   4.923   0.127 -2.3930 -0.5791 -1.2434
   75MOL   C19424022   2.978   4.562   0.162  0.0988 -0.1955  0.4641
   75MOL   C19524023   2.879   4.474   0.239 -0.3473  0.3597  0.3760
   75MOL   O19624024   2.938   4.425   0.365 -0.1820 -0.4277 -0.0275
   75MOL   C19724025   2.865   4.444   0.480 -0.8199  0.0805 -0.9282
   75MOL   C19824026   2.744   4.355   0.486  0.3653  0.1032  0.2272
   75MOL   C19924027   2.962   4.433   0.593  0.2696 -0.0740  0.4944
   75MOL   H20024028   2.952   4.566   0.057 -1.4373 -0.5791  0.8205
   75MOL   H20124029   3.070   4.505   0.176  0.3767  0.3101  0.7205
   75MOL   H20224030   2.790   4.529   0.267 -0.0628  1.2377 -0.4108
   75MOL   H20324031   2.821   4.544   0.485  0.8305  0.7845 -0.1139
   75MOL   H20424032   2.782   4.256   0.460  0.7518 -0.0228  1.2677
   75MOL   H20524033   2.686   4.349   0.578  1.2320  0.3492  0.7906
   75MOL   H20624034   2.674   4.391   0.410 -0.5955 -1.8793  0.1505
   75MOL   H20724035   2.949   4.509   0.670  1.0087 -0.7061  1.2678
   75MOL   H20824036   2.963   4.337   0.646  0.2761 -2.3219 -3.3841
   75MOL   H20924037   3.065   4.458   0.566  0.6838 -1.9770  0.2348
   75MOL   C21024038   2.824   4.362   0.141  0.0143 -0.4294 -0.1499
   75MOL   C21124039   2.706   4.391   0.051 -0.5496 -0.1476 -0.4647
   75MOL   O21224040   2.654   4.261   0.003  0.3045 -0.3728 -0.3180
   75MOL   C21324041   2.746   4.183   7.743  0.1240 -0.0318 -0.1126
   75MOL   C21424042   2.673   4.057   7.710 -0.0044 -0.0583 -0.0207
   75MOL   C21524043   2.795   4.255   7.622 -0.9110  0.3166 -0.2287
   75MOL   H21624044   2.803   4.284   0.213 -2.2558 -0.5655 -0.9008
   75MOL   H21724045   2.915   4.330   0.089  1.3224  0.8549  1.3095
   75MOL   H21824046   2.737   4.459   7.792 -1.5581 -0.1723 -0.8901
   75MOL   H21924047   2.831   4.156   7.806  0.6038  3.1881  0.7111
   75MOL   H22024048   2.753   3.993   7.674  1.8460  3.0695 -1.5589
   75MOL   H22124049   2.585   4.068   7.647  0.3300  0.6844 -0.3529
   75MOL   H22224050   2.629   4.017   7.802  1.1979  0.0013  0.5801
   75MOL   H22324051   2.851   4.342   7.654 -1.8166  1.4610 -1.6752
   75MOL   H22424052   2.714   4.275   7.552 -1.0190 -0.9027 -0.4651
   75MOL   H22524053   2.871   4.199   7.567 -0.8054 -0.2288  0.4670
   75MOL   C22624054   2.588   4.467   0.115 -0.2499 -0.0633 -0.4692
   75MOL   C22724055   2.463   4.479   0.037  0.3164  0.2231 -0.7827
   75MOL   O22824056   2.498   4.524   7.729 -0.4899 -0.3110 -0.3158
   75MOL   C22924057   2.482   4.438   7.617 -1.0204 -0.2688  0.3704
   75MOL   C23024058   2.572   4.503   7.501 -0.4045 -0.2656 -0.6865
   75MOL   C23124059   2.328   4.447   7.580  0.2506  0.4285 -0.1805
   75MOL   H23224060   2.623   4.570   0.107 -2.1178  0.5074 -1.3551
   75MOL   H23324061   2.574   4.443   0.221  2.0516  1.7712  0.3200
   75MOL   H23424062   2.426   4.377   0.028 -0.9809  0.6649 -0.4619
   75MOL   H23524063   2.513   4.335   7.637  0.1099 -0.6100 -2.7243
   75MOL   H23624064   2.570   4.441   7.412  2.0551  0.0833 -1.0261
   75MOL   H23724065   2.539   4.601   7.468 -0.6978 -0.9921 -2.6137
   75MOL   H23824066   2.677   4.509   7.530 -0.6459  0.0217  0.1640
   75MOL   H23924067   2.301   4.387   7.493  0.2720  1.4301 -0.8940
   75MOL   H24024068   2.312   4.553   7.557 -0.1432  1.2194  3.4793
   75MOL   H24124069   2.256   4.415   7.655 -0.0802 -0.7702 -0.9953
   75MOL   C24224070   2.352   4.566   0.104 -0.3397 -0.7370  0.5539
   75MOL   C24324071   2.319   4.548   0.255  0.2497  1.5698  0.2721
   75MOL   O24424072   2.280   4.406   0.262  0.0276  0.1348 -0.4024
   75MOL   C24524073   2.304   4.332   0.378 -1.1651  0.2903  0.1732
   75MOL   C24624074   2.173   4.270   0.423  0.1808 -0.1114 -0.2596
   75MOL   C24724075   2.400   4.223   0.333 -0.4114 -0.2413 -0.1051
   75MOL   H24824076   2.382   4.670   0.091 -1.7682 -0.6307 -2.4342
   75MOL   H24924077   2.265   4.560   0.039 -1.2839 -1.5570  1.8840
   75MOL   H25024078   2.406   4.572   0.315  1.8984 -0.9555 -1.0647
   75MOL   H25124079   2.343   4.397   0.456 -2.7925  0.4882  0.8506
   75MOL   H25224080   2.088   4.334   0.399 -0.6491 -0.6185  1.2097
   75MOL   H25324081   2.158   4.175   0.372  2.0015 -0.3509 -0.3671
   75MOL   H25424082   2.177   4.239   0.528 -0.4709 -2.9432 -1.0532
   75MOL   H25524083   2.499   4.262   0.306 -0.1440 -1.2773 -0.6212
   75MOL   H25624084   2.413   4.149   0.412  0.9933 -0.0673 -0.1521
   75MOL   H25724085   2.372   4.158   0.251  1.4409 -2.8287  1.2453
   75MOL   C25824086   2.190   4.636   0.301  0.3129  0.1435 -0.3077
   75MOL   C25924087   2.230   4.782   0.328  0.1005  0.3999 -0.0847
   75MOL   O26024088   2.296   4.852   0.226 -0.0363 -0.9490  0.4041
   75MOL   C26124089   2.242   4.971   0.166 -1.0089 -0.1595  0.0593
   75MOL   C26224090   2.360   5.044   0.088  0.3188 -0.8733  0.4189
   75MOL   C26324091   2.115   4.950   0.078  0.0899 -0.5635 -0.1123
   75MOL   H26424092   2.114   4.635   0.222 -0.8635 -2.2324  0.8198
   75MOL   H26524093   2.131   4.588   0.379 -0.7435  1.2952 -0.3737
   75MOL   H26624094   2.139   4.835   0.359  0.1924  0.7263 -0.3663
   75MOL   H26724095   2.210   5.055   0.228  0.0366 -1.3649  2.3010
   75MOL   H26824096   2.331   5.142   0.051  0.9655 -0.5863  0.6701
   75MOL   H26924097   2.396   4.971   0.015 -1.3759 -1.6719  0.3557
   75MOL   H27024098   2.445   5.058   0.154  2.2341 -0.2939 -2.0641
   75MOL   H27124099   2.088   5.043   0.028 -0.9465  0.5076  2.3619
   75MOL   H27224100   2.131   4.887   7.811 -0.4467  1.3066 -1.5849
   75MOL   H27324101   2.030   4.923   0.139 -1.4795  0.0221 -1.9891
   75MOL   C27424102   2.323   4.792   0.450 -0.2360  0.1443  0.2230
   75MOL   C27524103   2.286   4.690   0.566  0.1473  0.7079  0.2828
   75MOL   O27624104   2.396   4.695   0.661 -0.7190 -0.5637  0.1767
   75MOL   C27724105   2.490   4.590   0.655 -0.9517  0.6288 -0.6052
   75MOL   C27824106   2.430   4.458   0.717 -0.0338 -0.2615  0.6698
   75MOL   C27924107   2.612   4.641   0.730 -0.6087 -0.0602  0.4813
   75MOL   H28024108   2.426   4.777   0.418 -0.7025 -1.3253 -0.6373
   75MOL   H28124109   2.304   4.894   0.483 -3.1649 -0.1043 -0.4981
   75MOL   H28224110   2.275   4.586   0.535  0.3401  0.8437 -0.2527
   75MOL   H28324111   2.519   4.566   0.553  1.1428  0.3725  0.0285
   75MOL   H28424112   2.488   4.369   0.693 -0.0562 -0.0392 -0.2100
   75MOL   H28524113   2.427   4.457   0.826  0.1594  1.1700  0.7000
   75MOL   H28624114   2.331   4.428   0.684 -0.0343 -0.2757  0.6835
   75MOL   H28724115   2.599   4.628   0.837  2.9524 -3.9210  0.5674
   75MOL   H28824116   2.644   4.737   0.690  0.2038 -0.8293 -0.7638
   75MOL   H28924117   2.694   4.578   0.697  0.5131  1.7724 -0.3222
   75MOL   C29024118   2.158   4.725   0.651 -0.1032  0.0421  0.4424
   75MOL   C29124119   2.118   4.624   0.755  0.1519  0.0784  1.1437
   75MOL   O29224120   2.023   4.689   0.838  0.7663 -0.6508  0.2516
   75MOL   C29324121   2.066   4.772   0.947 -0.1772  0.6861 -0.3659
   75MOL   C29424122   2.058   4.694   1.081 -0.6076  0.2411 -0.0995
   75MOL   C29524123   1.972   4.894   0.942 -0.5011  0.4571 -0.4826
   75MOL   H29624124   2.070   4.750   0.592  0.5048  2.4756  0.5008
   75MOL   H29724125   2.198   4.816   0.695 -1.2489  1.2251 -0.9158
   75MOL   H29824126   2.204   4.594   0.815  1.4165  0.4872 -0.4535
   75MOL   H29924127   2.164   4.818   0.934  0.0903 -0.3339 -2.1753
   75MOL   H30024128   2.119   4.603   1.080 -1.4257 -0.3179 -1.1025
   75MOL   H30124129   2.099   4.750   1.165  1.8026  1.0328 -1.7301
   75MOL   H30224130   1.954   4.665   1.094 -0.2434 -0.7014  0.7508
   75MOL   H30324131   1.984   4.960   1.028 -0.2301  1.7462 -1.4934
   75MOL   H30424132   1.996   4.962   0.860 -4.6075  2.9456  0.2647
   75MOL   H30524133   1.869   4.860   0.935  0.1362 -1.8602  0.9873
   75MOL   C30624134   2.055   4.498   0.694  0.1225 -0.7015 -0.2072
   75MOL   C30724135   1.912   4.506   0.632 -0.2966  0.0513 -0.7584
   75MOL   O30824136   1.888   4.381   0.565 -0.1821  0.4535 -0.6491
   75MOL   C30924137   1.766   4.386   0.490  0.5402  0.3062  0.0226
   75MOL   C31024138   1.804   4.425   0.356 -0.4041  0.0055 -0.4388
   75MOL   C31124139   1.718   4.246   0.505 -0.4313 -0.2155 -0.2898
   75MOL   H31224140   2.049   4.417   0.766 -1.9487  0.4346  0.9557
   75MOL   H31324141   2.132   4.455   0.631  1.1299  2.2816 -1.1284
   75MOL   H31424142   1.842   4.513   0.715 -0.1856  0.2569 -0.6807
   75MOL   H31524143   1.697   4.453   0.541 -0.1824  0.9550 -1.7982
   75MOL   H31624144   1.864   4.346   0.312  1.2930  0.7267  0.5318
   75MOL   H31724145   1.861   4.517   0.362 -2.1022  1.0375  0.4303
   75MOL   H31824146   1.713   4.441   0.299  0.1901  0.6070 -1.2237
   75MOL   H31924147   1.700   4.226   0.611 -0.3739  1.6841  0.0877
   75MOL   H32024148   1.796   4.177   0.472  0.8916  1.4271 -0.6546
   75MOL   H32124149   1.624   4.228   0.452 -1.1374  0.4070  0.7394
   75MOL   H32224150   1.890   4.592   0.568  0.3021  0.3804 -0.5236
   76MOL     C124151   6.088   7.569   3.245 -0.6943 -0.2376  0.0754
   76MOL     C224152   6.206   7.655   3.292 -0.5328 -0.3119  0.3031
   76MOL     O324153   6.330   7.615   3.247 -0.7738  0.3244  0.2949
   76MOL     C424154   6.410   7.538   3.327 -0.6585  1.1966  0.2976
   76MOL     C524155   6.512   7.622   3.400 -0.0801  0.0128 -0.0350
   76MOL     C624156   6.495   7.459   3.231  0.4021 -0.4711 -0.5198
   76MOL     H724157   6.103   7.539   3.142 -0.2855 -0.0673  0.0828
   76MOL     H824158   6.089   7.484   3.314 -3.4679 -0.1892  0.2136
   76MOL     H924159   6.199   7.653   3.400 -1.4613 -2.8541  0.2479
   76MOL    H1024160   6.339   7.473   3.378  0.1969 -0.9114 -1.1648
   76MOL    H1124161   6.482   7.684   3.485 -0.9154 -2.3533  1.4664
   76MOL    H1224162   6.589   7.554   3.437  1.5769  1.3748 -0.9226
   76MOL    H1324163   6.561   7.696   3.337 -2.1961  1.2953 -0.2313
   76MOL    H1424164   6.439   7.433   3.141 -0.7403 -0.9205  0.3011
   76MOL    H1524165   6.571   7.528   3.196  0.0723  0.2506  0.1887
   76MOL    H1624166   6.541   7.372   3.280  0.2352  0.4942  1.4083
   76MOL    H1724167   5.993   7.622   3.252  0.0909  1.1871  0.1886
   76MOL    C1824168   6.189   7.796   3.235 -0.3078 -1.1438  0.0222
   76MOL    C1924169   6.127   0.068   3.342  0.1030 -0.0311 -0.7588
   76MOL    O2024170   5.991   0.033   3.355  0.1536  0.3276 -0.4171
   76MOL    C2124171   5.915   0.079   3.465  0.2727 -0.3310 -0.5233
   76MOL    C2224172   5.955   7.816   3.591 -0.5096 -0.3383  0.0501
   76MOL    C2324173   5.775   0.037   3.421  0.1928  0.8143  0.1862
   76MOL    H2424174   6.281   0.009   3.188 -0.3913  0.3917  0.9243
   76MOL    H2524175   6.118   7.792   3.152  0.4426 -2.4212 -0.5669
   76MOL    H2624176   6.179   0.060   3.438  0.3683  0.3336 -0.8729
   76MOL    H2724177   5.930   0.186   3.483 -1.5571  0.0300 -1.0194
   76MOL    H2824178   6.053   0.025   3.629 -0.1075 -1.9562  0.3101
   76MOL    H2924179   5.884   0.008   3.673 -0.2356 -2.2106  0.5922
   76MOL    H3024180   5.952   7.711   3.564  0.7628 -0.9403  2.1015
   76MOL    H3124181   5.698   0.050   3.496 -2.0121 -2.5230 -1.4000
   76MOL    H3224182   5.781   7.754   3.386  1.4952  1.0435 -0.3235
   76MOL    H3324183   5.739   0.100   3.340 -1.7596 -2.1125 -1.3256
   76MOL    C3424184   6.132   0.217   3.297  0.2756 -0.0119  0.4812
   76MOL    C3524185   6.273   0.274   3.269 -0.0746 -0.1053 -0.2818
   76MOL    O3624186   6.266   0.414   3.262  0.2428  0.2957 -0.2061
   76MOL    C3724187   6.235   0.473   3.132  0.4542  0.5366  0.2355
   76MOL    C3824188   6.202   0.613   3.181 -0.1984  0.1037  0.0500
   76MOL    C3924189   6.341   0.478   3.027  0.2581 -0.2768  0.5588
   76MOL    H4024190   6.079   0.274   3.373 -0.1059 -0.2909  0.4244
   76MOL    H4124191   6.063   0.226   3.213 -0.7476 -1.5810  1.1338
   76MOL    H4224192   6.317   0.237   3.176 -0.7590  0.8032 -0.9817
   76MOL    H4324193   6.155   0.406   3.100  0.0544  0.1844  1.8942
   76MOL    H4424194   6.158   0.671   3.101  0.9296  1.4161  0.3612
   76MOL    H4524195   6.288   0.674   3.209 -0.0770  1.5722 -3.2625
   76MOL    H4624196   6.126   0.605   3.258 -1.1136  0.9811 -0.7577
   76MOL    H4724197   6.431   0.526   3.064 -0.0960  0.9796 -0.1961
   76MOL    H4824198   6.369   0.375   3.005 -1.5779 -1.2692  2.6533
   76MOL    H4924199   6.305   0.511   2.930 -1.0190 -1.1599  0.7195
   76MOL    C5024200   6.370   0.236   3.381  0.4027 -0.0524  0.4202
   76MOL    C5124201   6.511   0.293   3.368 -0.0503  0.2841 -0.2404
   76MOL    O5224202   6.588   0.192   3.291  0.5305  0.0406 -0.4962
   76MOL    C5324203   6.605   0.220   3.152  0.2595 -0.3133  0.2791
   76MOL    C5424204   6.646   0.089   3.090 -0.5727 -0.0060  0.2949
   76MOL    C5524205   6.709   0.330   3.134  0.3266  0.0610 -0.5786
   76MOL    H5624206   6.335   0.277   3.476 -0.8380 -1.9146  0.8059
   76MOL    H5724207   6.378   0.128   3.396 -2.6563 -0.2838  0.9123
   76MOL    H5824208   6.510   0.393   3.323 -3.1562  0.1096 -0.6484
   76MOL    H5924209   6.518   0.258   3.100  0.8784 -1.0183 -1.3011
   76MOL    H6024210   6.580   0.014   3.133 -0.5374  1.1497  2.3898
   76MOL    H6124211   6.750   0.062   3.109  0.2155  1.2770 -2.0120
   76MOL    H6224212   6.635   0.097   2.981  1.9452 -1.7732 -0.1399
   76MOL    H6324213   6.682   0.424   3.181  2.1458 -0.1866  1.0049
   76MOL    H6424214   6.727   0.351   3.028  1.0472  0.4077 -0.3913
   76MOL    H6524215   6.807   0.307   3.174  0.2397  0.1268 -0.3324
   76MOL    C6624216   6.582   0.315   3.508 -0.2803  0.2415 -0.4460
   76MOL    C6724217   6.530   0.422   3.612 -0.4014  0.0356 -0.4122
   76MOL    O6824218   6.644   0.494   3.662  0.6894 -0.0935  0.5485
   76MOL    C6924219   6.639   0.633   3.628 -0.7061 -0.4953 -0.2422
   76MOL    C7024220   6.733   0.718   3.713 -0.0458  0.3723  0.2186
   76MOL    C7124221   6.691   0.645   3.480 -0.1703  0.2956  0.5057
   76MOL    H7224222   6.604   0.217   3.552  0.4208  0.3692 -0.5113
   76MOL    H7324223   6.680   0.352   3.476 -0.4955  1.5360  0.3537
   76MOL    H7424224   6.462   0.489   3.559  0.6565  0.5060 -1.1915
   76MOL    H7524225   6.538   0.669   3.647 -0.5376 -0.6821  1.1010
   76MOL    H7624226   6.691   0.731   3.812 -0.6925  1.1158 -0.1494
   76MOL    H7724227   6.833   0.675   3.711  0.7179  2.1378  0.0767
   76MOL    H7824228   6.755   0.818   3.675  1.0550  0.0877  0.1032
   76MOL    H7924229   6.621   0.617   3.401 -1.2438  0.6930  1.3074
   76MOL    H8024230   6.784   0.589   3.466 -1.5896 -1.9767 -0.0880
   76MOL    H8124231   6.711   0.746   3.446 -1.1350 -0.5415 -2.6967
   76MOL    C8224232   6.458   0.361   3.733  0.1455  0.7983 -0.5964
   76MOL    C8324233   6.351   0.451   3.786 -0.0994  0.5255  0.3884
   76MOL    O8424234   6.231   0.417   3.716 -0.1443 -0.3309 -0.8983
   76MOL    C8524235   6.144   0.525   3.699  0.5943 -0.0004  0.6794
   76MOL    C8624236   6.005   0.470   3.737  0.3946 -0.7999  0.3335
   76MOL    C8724237   6.161   0.577   3.558 -0.5860 -0.0024 -0.1664
   76MOL    H8824238   6.419   0.265   3.700  0.6541  0.1834  0.5481
   76MOL    H8924239   6.531   0.319   3.803  0.7153 -2.1822 -2.8627
   76MOL    H9024240   6.392   0.551   3.766  2.4687 -0.1234  2.1396
   76MOL    H9124241   6.166   0.609   3.765  0.8471  0.9821 -0.6415
   76MOL    H9224242   5.945   0.561   3.734  1.1237 -0.3821 -2.9852
   76MOL    H9324243   5.969   0.398   3.664  0.7096 -0.9420  0.3186
   76MOL    H9424244   5.990   0.428   3.836  1.8874  0.1082  0.9749
   76MOL    H9524245   6.252   0.634   3.537  0.8407 -1.9640  0.5910
   76MOL    H9624246   6.149   0.496   3.486 -2.1068 -0.5084  0.6423
   76MOL    H9724247   6.081   0.648   3.534  0.4289  0.8386 -1.1083
   76MOL    C9824248   6.333   0.433   3.940 -0.1451 -0.0225  0.4836
   76MOL    C9924249   6.465   0.464   4.029  0.5847  0.0981  0.2025
   76MOL   O10024250   6.432   0.415   4.160 -0.1765  0.6321  0.8324
   76MOL   C10124251   6.448   0.275   4.172 -0.8175  1.1382 -0.0349
   76MOL   C10224252   6.418   0.258   4.317  0.2535  0.2774 -0.0073
   76MOL   C10324253   6.589   0.222   4.133  0.3841 -0.0626 -0.6543
   76MOL   H10424254   6.250   0.493   3.977 -0.2399  0.2527 -0.1615
   76MOL   H10524255   6.295   0.333   3.963 -2.3103  0.4981 -0.6972
   76MOL   H10624256   6.557   0.436   3.980 -0.8700 -1.2916 -1.7911
   76MOL   H10724257   6.376   0.214   4.118  1.1247 -2.1512  0.9360
   76MOL   H10824258   6.465   0.328   4.386 -1.4650  1.9862 -0.5253
   76MOL   H10924259   6.431   0.151   4.335 -1.5744 -0.1987 -1.3140
   76MOL   H11024260   6.309   0.258   4.322  0.0269  3.5152 -3.0077
   76MOL   H11124261   6.593   0.228   4.024  0.0628  0.6119 -0.6310
   76MOL   H11224262   6.614   0.118   4.157  1.3621  0.5508  1.0815
   76MOL   H11324263   6.659   0.288   4.184  0.1036 -0.6917  0.5503
   76MOL   C11424264   6.503   0.614   4.052 -0.3881 -0.2615  0.2518
   76MOL   C11524265   6.642   0.638   4.110  0.2507  0.7651  0.1478
   76MOL   O11624266   6.738   0.606   4.021 -0.2066 -0.2685 -0.0212
   76MOL   C11724267   6.828   0.501   4.057 -0.3269 -0.0052 -0.8536
   76MOL   C11824268   6.965   0.554   4.099 -0.4202 -0.0757  0.4888
   76MOL   C11924269   6.837   0.404   3.937  0.1650  0.4075 -0.1575
   76MOL   H12024270   6.429   0.649   4.124 -1.7862 -1.6971 -0.4482
   76MOL   H12124271   6.494   0.672   3.961 -1.2469  2.1450  1.8269
   76MOL   H12224272   6.636   0.567   4.192 -2.5947  2.0045  1.0911
   76MOL   H12324273   6.797   0.455   4.150  2.2473  1.4672  0.8068
   76MOL   H12424274   7.010   0.620   4.026  0.7070 -2.1321 -0.7373
   76MOL   H12524275   7.042   0.478   4.108 -0.7692 -0.5355 -0.3213
   76MOL   H12624276   6.976   0.605   4.194  1.3794 -1.7951  1.2496
   76MOL   H12724277   6.740   0.356   3.926  1.3328 -1.6980 -1.6501
   76MOL   H12824278   6.910   0.327   3.962  0.1026  0.2159 -0.5656
   76MOL   H12924279   6.860   0.451   3.842  0.2410  0.4305 -0.1279
   76MOL   C13024280   6.673   0.779   4.172  0.1994  0.0095  0.6877
   76MOL   C13124281   6.768   0.787   4.299  0.4654  0.0653  0.2880
   76MOL   O13224282   6.726   0.700   4.401  0.6528  0.1897 -0.0954
   76MOL   C13324283   6.814   0.601   4.443 -0.5080  0.9200 -0.2605
   76MOL   C13424284   6.928   0.674   4.513 -1.0011 -0.2987  0.0513
   76MOL   C13524285   6.733   0.521   4.550  0.3239 -0.5826 -0.0336
   76MOL   H13624286   6.578   0.831   4.181  0.5288  0.5404  1.0838
   76MOL   H13724287   6.726   0.837   4.097  0.5888 -0.4949  0.5657
   76MOL   H13824288   6.868   0.764   4.262  0.1600  1.8872 -1.7461
   76MOL   H13924289   6.867   0.553   4.360  1.0443  0.6395  0.8728
   76MOL   H14024290   6.882   0.755   4.570  0.0022 -0.4929  1.1767
   76MOL   H14124291   6.999   0.717   4.443  0.1713 -0.7026  0.9744
   76MOL   H14224292   6.986   0.605   4.574 -2.2264  0.5420  2.2251
   76MOL   H14324293   6.790   0.431   4.574 -0.0282 -0.8075 -0.0437
   76MOL   H14424294   6.704   0.576   4.640  1.2483 -1.2639  0.6858
   76MOL   H14524295   6.634   0.493   4.512 -0.2225 -0.2655  1.1440
   76MOL   C14624296   6.751   0.924   4.364 -0.2166  0.3292  0.4627
   76MOL   C14724297   6.783   1.043   4.264 -0.3271 -0.4615 -0.4531
   76MOL   O14824298   6.681   1.057   4.172 -0.7127 -0.3860 -0.2556
   76MOL   C14924299   6.710   1.140   4.056 -0.4543  0.1308 -0.0655
   76MOL   C15024300   6.602   1.249   4.053 -0.0968  0.0975  0.7601
   76MOL   C15124301   6.698   1.051   3.934  0.1501  0.0341  0.3369
   76MOL   H15224302   6.817   0.940   4.449  0.5515  0.7527 -0.1998
   76MOL   H15324303   6.650   0.943   4.400  0.9036  0.9504  3.3645
   76MOL   H15424304   6.875   1.018   4.213  0.3932  0.4698  0.3774
   76MOL   H15524305   6.808   1.188   4.056 -0.1765 -0.4340  0.4486
   76MOL   H15624306   6.629   1.320   3.974 -3.0631 -0.0658 -0.4692
   76MOL   H15724307   6.603   1.294   4.152  0.8256  1.3581  0.1944
   76MOL   H15824308   6.501   1.213   4.035  0.9223 -1.3219 -2.4816
   76MOL   H15924309   6.708   1.121   3.851  0.9297  2.0026  2.0335
   76MOL   H16024310   6.606   0.993   3.922 -0.3640  0.7161  0.9495
   76MOL   H16124311   6.784   0.985   3.933  0.8238  0.8794  1.6863
   76MOL   C16224312   6.806   1.173   4.347  0.1382  0.0331  0.7608
   76MOL   C16324313   6.954   1.179   4.405  0.5916 -0.1111  0.7066
   76MOL   O16424314   7.027   1.235   4.298  0.4903  0.2069 -0.3249
   76MOL   C16524315   7.153   1.177   4.285  0.4130  0.6948 -0.7691
   76MOL   C16624316   7.223   1.285   4.203  0.7088  0.2931  0.3490
   76MOL   C16724317   7.132   1.050   4.205  0.1312 -0.3609  0.5487
   76MOL   H16824318   6.778   1.262   4.292  1.4660 -0.3990 -0.6471
   76MOL   H16924319   6.739   1.171   4.434 -3.0466 -0.9653 -1.6065
   76MOL   H17024320   6.985   1.080   4.439 -0.4884 -0.2434  1.3190
   76MOL   H17124321   7.210   1.152   4.375 -0.6944  1.6771  0.2139
   76MOL   H17224322   7.238   1.383   4.250  1.8197 -0.4017  1.4756
   76MOL   H17324323   7.185   1.296   4.102 -0.8883 -2.5488  0.5837
   76MOL   H17424324   7.326   1.262   4.177  0.6821  0.2859  0.2484
   76MOL   H17524325   7.055   1.055   4.128  0.5781 -0.4003  0.0996
   76MOL   H17624326   7.107   0.966   4.270 -0.3904 -0.5669  0.0951
   76MOL   H17724327   7.232   1.025   4.170  0.8567  1.7663  1.0091
   76MOL   C17824328   6.975   1.275   4.526 -0.3060 -0.0825  0.0454
   76MOL   C17924329   6.943   1.211   4.665  0.8008 -0.0340  0.3026
   76MOL   O18024330   7.047   1.120   4.694 -0.3072  0.0395 -0.0617
   76MOL   C18124331   7.013   0.992   4.749 -0.0778 -0.2309 -0.0850
   76MOL   C18224332   7.008   0.985   4.904  0.2010 -0.4714  0.4761
   76MOL   C18324333   7.117   0.893   4.697 -0.3264 -0.2568  0.3786
   76MOL   H18424334   6.919   1.367   4.510 -0.0983 -0.3534 -2.4282
   76MOL   H18524335   7.083   1.293   4.527 -0.3917  0.5021 -0.8034
   76MOL   H18624336   6.846   1.164   4.648  0.2137  1.0568  0.5600
   76MOL   H18724337   6.916   0.964   4.708 -0.3299  0.6199 -0.0776
   76MOL   H18824338   7.101   1.025   4.945  0.1335  0.7253 -0.5102
   76MOL   H18924339   7.010   0.885   4.946 -0.6292 -0.9081 -0.4840
   76MOL   H19024340   6.926   1.047   4.941  0.8679  1.6127 -1.3940
   76MOL   H19124341   7.110   0.787   4.723  0.0085  0.5004  3.8159
   76MOL   H19224342   7.216   0.919   4.736 -0.2840  1.3224 -0.7416
   76MOL   H19324343   7.120   0.894   4.588  2.0022 -0.6250  0.4132
   76MOL   C19424344   6.944   1.317   4.775  0.3424  0.5354  0.0142
   76MOL   C19524345   6.809   1.397   4.799 -0.3769 -0.4838 -0.3070
   76MOL   O19624346   6.820   1.485   4.692  0.4129  0.1932 -0.2927
   76MOL   C19724347   6.708   1.555   4.639 -0.7560  0.6843  0.2429
   76MOL   C19824348   6.767   1.665   4.545  0.4290  0.5739  0.2024
   76MOL   C19924349   6.606   1.469   4.561 -0.2176  0.0842 -0.3320
   76MOL   H20024350   6.959   1.258   4.865  0.3694  0.6628  0.0940
   76MOL   H20124351   7.036   1.375   4.776  0.1224  0.8920  2.0603
   76MOL   H20224352   6.722   1.334   4.782 -0.0394 -0.3417 -2.7692
   76MOL   H20324353   6.658   1.600   4.724  1.6899 -0.4956  2.4058
   76MOL   H20424354   6.686   1.714   4.492  0.1729 -0.1872 -0.1222
   76MOL   H20524355   6.818   1.742   4.604 -1.3095  2.2858 -0.4912
   76MOL   H20624356   6.829   1.627   4.464 -1.4313 -0.2503 -0.8564
   76MOL   H20724357   6.553   1.399   4.626  1.0616 -3.1220 -2.5697
   76MOL   H20824358   6.534   1.539   4.519  1.3028  0.4990 -2.3364
   76MOL   H20924359   6.647   1.408   4.480  0.3780 -0.3284  0.2761
   76MOL   C21024360   6.798   1.478   4.928  0.0522 -0.1730 -1.0473
   76MOL   C21124361   6.804   1.400   5.063  0.1509 -0.3433  0.4058
   76MOL   O21224362   6.787   1.492   5.173  0.0949  0.0913 -0.3544
   76MOL   C21324363   6.894   1.585   5.206  0.0715  0.1232 -0.1017
   76MOL   C21424364   6.840   1.723   5.166  0.0890  0.2939 -0.2119
   76MOL   C21524365   6.934   1.569   5.351  0.0246 -0.1064 -0.4920
   76MOL   H21624366   6.704   1.532   4.930 -0.1300 -0.4613 -1.8794
   76MOL   H21724367   6.869   1.561   4.931 -2.6605  2.2313 -1.4238
   76MOL   H21824368   6.893   1.339   5.075 -1.1194 -2.0708  1.2558
   76MOL   H21924369   6.978   1.556   5.144 -0.5662  1.4396 -1.6000
   76MOL   H22024370   6.927   1.775   5.127  0.5030  1.0932  1.7143
   76MOL   H22124371   6.788   1.775   5.246  2.1964  0.0143  1.3976
   76MOL   H22224372   6.773   1.712   5.081 -1.7709 -0.6223  1.3260
   76MOL   H22324373   6.994   1.479   5.368 -0.2939  0.0727  1.7103
   76MOL   H22424374   6.852   1.555   5.421  0.9690  0.5409  0.7704
   76MOL   H22524375   6.997   1.654   5.377  1.2351 -0.4754 -2.1646
   76MOL   C22624376   6.688   1.297   5.089 -0.2802  0.7162 -0.5589
   76MOL   C22724377   6.697   1.211   5.212  0.5479 -0.6936  0.6707
   76MOL   O22824378   6.811   1.135   5.192 -0.1446 -0.6929  0.1468
   76MOL   C22924379   6.884   1.099   5.306 -0.2245 -0.1137 -0.1157
   76MOL   C23024380   7.023   1.160   5.300 -0.0956 -0.8811 -0.8320
   76MOL   C23124381   6.887   0.943   5.328 -0.4598  0.2219 -0.1832
   76MOL   H23224382   6.678   1.231   5.003 -2.3982 -0.3823  0.4719
   76MOL   H23324383   6.591   1.346   5.099 -0.0322  1.1446 -0.2275
   76MOL   H23424384   6.699   1.275   5.300 -2.0943 -0.0258  0.2803
   76MOL   H23524385   6.835   1.141   5.394 -0.5462  1.1012 -0.8670
   76MOL   H23624386   7.081   1.139   5.390 -1.1623  0.7050  0.2434
   76MOL   H23724387   7.082   1.129   5.214 -0.4756  0.2214 -1.4918
   76MOL   H23824388   7.025   1.269   5.297  0.2181 -0.9028 -1.4831
   76MOL   H23924389   6.786   0.904   5.345 -0.5592 -0.9407 -3.1874
   76MOL   H24024390   6.949   0.916   5.413  1.8573 -3.6963 -2.9097
   76MOL   H24124391   6.933   0.902   5.238 -1.7069 -0.3980 -0.5540
   76MOL   C24224392   6.576   1.111   5.226  0.8647  0.1708  0.1576
   76MOL   C24324393   6.446   1.187   5.266 -0.1788 -0.5623 -0.1584
   76MOL   O24424394   6.469   1.221   5.402  0.3560 -0.1115 -0.8950
   76MOL   C24524395   6.418   1.347   5.441  0.0735  0.1164  0.0822
   76MOL   C24624396   6.385   1.327   5.590 -0.4953 -0.3141  0.5220
   76MOL   C24724397   6.521   1.461   5.428 -0.7280 -1.1710  0.2469
   76MOL   H24824398   6.563   1.037   5.147 -0.0723  0.7253 -0.2227
   76MOL   H24924399   6.598   1.050   5.314  2.1953  3.1089  1.9262
   76MOL   H25024400   6.435   1.279   5.208 -2.4187 -1.3702 -1.0721
   76MOL   H25124401   6.323   1.378   5.397  0.0411 -1.5895 -1.1269
   76MOL   H25224402   6.315   1.399   5.631  0.9719 -0.1282  2.7757
   76MOL   H25324403   6.341   1.229   5.607  1.8446 -1.1561  1.9477
   76MOL   H25424404   6.478   1.345   5.643 -1.4690  3.2541  1.1538
   76MOL   H25524405   6.541   1.479   5.322 -2.6894 -3.8311 -0.6301
   76MOL   H25624406   6.483   1.556   5.466 -0.5740 -0.8788 -0.3239
   76MOL   H25724407   6.614   1.445   5.481 -0.4338 -2.9571 -0.7562
   76MOL   C25824408   6.320   1.106   5.249  0.0825  0.3484  0.0583
   76MOL   C25924409   6.282   1.049   5.108 -0.2779  0.6687 -0.2724
   76MOL   O26024410   6.146   1.089   5.082 -0.5664  0.3606  0.1174
   76MOL   C26124411   6.112   1.204   5.004  0.9671 -0.4939 -0.8505
   76MOL   C26224412   5.958   1.220   5.009 -0.5270  0.2984  0.3518
   76MOL   C26324413   6.174   1.331   5.072 -0.1904  0.8577 -0.8982
   76MOL   H26424414   6.328   1.019   5.314 -2.1611 -0.1135 -0.2671
   76MOL   H26524415   6.232   1.150   5.294 -0.3155 -2.4171  2.0694
   76MOL   H26624416   6.344   1.096   5.031  1.0906  0.4972  0.7089
   76MOL   H26724417   6.140   1.185   4.900  0.7056 -0.8486 -0.8560
   76MOL   H26824418   5.905   1.151   4.943 -0.5166  2.6949 -2.2808
   76MOL   H26924419   5.935   1.316   4.963 -2.9055 -0.8572 -0.9602
   76MOL   H27024420   5.913   1.210   5.108  0.5321 -0.5027  0.7545
   76MOL   H27124421   6.154   1.338   5.179  0.1906 -0.7204 -0.6990
   76MOL   H27224422   6.281   1.325   5.052 -0.1534  2.4681 -1.2065
   76MOL   H27324423   6.147   1.425   5.023  0.0463  0.9569 -0.8368
   76MOL   C27424424   6.305   0.892   5.095  0.4820 -0.0148 -0.1890
   76MOL   C27524425   6.338   0.853   4.947  0.1619  0.3408  0.4370
   76MOL   O27624426   6.461   0.910   4.909 -0.5674 -0.4497  0.3741
   76MOL   C27724427   6.467   0.956   4.771  0.0624 -0.3372  0.5708
   76MOL   C27824428   6.618   0.968   4.739 -0.3654  0.3018  0.6871
   76MOL   C27924429   6.405   1.097   4.759 -0.0446 -0.1955 -0.4599
   76MOL   H28024430   6.389   0.856   5.155  0.3921 -1.7521 -1.0725
   76MOL   H28124431   6.219   0.839   5.138  1.1610  0.3192  1.6583
   76MOL   H28224432   6.258   0.890   4.884 -1.0138 -2.0357  0.4762
   76MOL   H28324433   6.429   0.883   4.700 -1.0177  1.0101 -0.2749
   76MOL   H28424434   6.677   1.011   4.820  1.6344 -0.2837 -0.4240
   76MOL   H28524435   6.667   0.872   4.724 -2.0605 -1.1199  3.7720
   76MOL   H28624436   6.627   1.022   4.645 -0.2129  0.0558  0.5599
   76MOL   H28724437   6.296   1.093   4.762 -0.0054 -0.4108  0.8847
   76MOL   H28824438   6.429   1.140   4.662 -1.2163  1.5541  0.0121
   76MOL   H28924439   6.436   1.174   4.830 -0.2556 -0.4975 -0.0383
   76MOL   C29024440   6.338   0.695   4.942 -0.2651 -0.2044  0.3452
   76MOL   C29124441   6.326   0.631   4.798 -0.8379 -0.4933  0.0111
   76MOL   O29224442   6.279   0.489   4.808  0.6961  0.0813  0.3441
   76MOL   C29324443   6.375   0.382   4.834  0.2815 -0.3470 -0.0031
   76MOL   C29424444   6.392   0.306   4.707 -0.1837  0.0899 -0.0627
   76MOL   C29524445   6.316   0.303   4.950 -0.3639 -0.2872  0.8178
   76MOL   H29624446   6.253   0.662   5.001  0.8119 -1.7503  1.0775
   76MOL   H29724447   6.429   0.653   4.985 -0.4986 -1.6152 -0.4870
   76MOL   H29824448   6.423   0.636   4.748 -0.5645  3.2888  0.7703
   76MOL   H29924449   6.472   0.418   4.868  0.3539 -2.2363  1.8697
   76MOL   H30024450   6.436   0.369   4.629 -0.4404  3.0010  2.0258
   76MOL   H30124451   6.459   0.222   4.721  1.0711  1.0416 -0.1947
   76MOL   H30224452   6.299   0.254   4.686  0.9404 -2.9796  2.2721
   76MOL   H30324453   6.353   0.345   5.043 -1.6859 -2.7026  2.5177
   76MOL   H30424454   6.207   0.293   4.953 -0.7303  2.0079 -2.0760
   76MOL   H30524455   6.338   0.196   4.949 -2.5825 -0.7740 -1.0910
   76MOL   C30624456   6.226   0.678   4.703 -0.5391 -0.3660  0.2231
   76MOL   C30724457   6.254   0.643   4.554 -0.3152  0.4455 -0.1158
   76MOL   O30824458   6.184   0.721   4.459  0.1205  0.1290  0.0134
   76MOL   C30924459   6.246   0.734   4.327 -1.0726 -0.0457  0.5224
   76MOL   C31024460   6.121   0.755   4.238 -0.1022  0.3486  0.2674
   76MOL   C31124461   6.354   0.847   4.322 -0.5440  0.6605  0.1093
   76MOL   H31224462   6.232   0.787   4.704  0.7654 -0.4191  0.2827
   76MOL   H31324463   6.128   0.642   4.732 -1.2347  2.2441  1.2886
   76MOL   H31424464   6.359   0.661   4.534 -0.4257  1.8114  0.4863
   76MOL   H31524465   6.282   0.633   4.308  0.2755  0.4365  0.4933
   76MOL   H31624466   6.030   0.734   4.293 -0.0818 -0.0315  0.1592
   76MOL   H31724467   6.132   0.699   4.144 -0.4936  2.4088 -1.0471
   76MOL   H31824468   6.115   0.862   4.217  3.1131  0.6598  0.6021
   76MOL   H31924469   6.444   0.804   4.366 -0.0427 -0.9152 -2.3205
   76MOL   H32024470   6.316   0.932   4.378 -1.5953 -1.3125  2.5056
   76MOL   H32124471   6.371   0.889   4.222 -1.8911 -2.1824 -1.3817
   76MOL   H32224472   6.242   0.535   4.541 -0.7661  0.5388 -0.4755
   77MOL     C124473   5.140   4.512   6.990  0.3337  0.1076  0.4592
   77MOL     C224474   5.224   4.595   7.093  0.3433  0.6132  0.6460
   77MOL     O324475   5.323   4.506   7.146 -0.0619 -0.1666 -0.1649
   77MOL     C424476   5.274   4.429   7.256  0.4626  0.0010  0.4361
   77MOL     C524477   5.240   4.511   7.389 -0.2615 -0.1082 -0.4222
   77MOL     C624478   5.379   4.328   7.282 -0.7320  0.3407  0.9232
   77MOL     H724479   5.061   4.457   7.040 -0.3656 -0.3328 -1.1118
   77MOL     H824480   5.097   4.587   6.923 -0.1209  0.2985  0.9728
   77MOL     H924481   5.158   4.633   7.171 -1.1644 -1.7744  0.5499
   77MOL    H1024482   5.184   4.375   7.226  1.4711 -0.7047 -1.3671
   77MOL    H1124483   5.188   4.606   7.378  2.7221  2.0639  2.9662
   77MOL    H1224484   5.175   4.457   7.458 -3.0565  2.3156 -1.1128
   77MOL    H1324485   5.329   4.524   7.451 -0.3259 -0.8487 -0.1656
   77MOL    H1424486   5.417   4.285   7.189  1.2595 -0.4910  2.0925
   77MOL    H1524487   5.466   4.375   7.329  0.8324  1.4569 -2.8897
   77MOL    H1624488   5.351   4.242   7.343  0.3884 -0.8142 -0.1588
   77MOL    H1724489   5.198   4.449   6.922 -0.3177 -0.3258  0.3072
   77MOL    C1824490   5.297   4.718   7.033 -0.7132  0.2199  0.5523
   77MOL    C1924491   5.344   4.815   7.141 -0.1266  0.2334  0.5904
   77MOL    O2024492   5.249   4.918   7.170  0.1214 -0.4789 -0.6109
   77MOL    C2124493   5.146   4.883   7.261 -0.2250  0.1220  0.5650
   77MOL    C2224494   5.012   4.856   7.186 -0.7830  0.0385  0.0027
   77MOL    C2324495   5.134   5.004   7.354 -0.7006  0.7420  0.6478
   77MOL    H2424496   5.375   4.674   6.971  0.8777  3.4911  0.0882
   77MOL    H2524497   5.227   4.761   6.962 -2.9264  2.0033  3.6718
   77MOL    H2624498   5.369   4.759   7.231 -0.0476  0.4117  0.6800
   77MOL    H2724499   5.171   4.806   7.334 -0.1858 -0.1966  0.2130
   77MOL    H2824500   4.940   4.825   7.262 -1.5519  1.1163 -0.2848
   77MOL    H2924501   4.958   4.944   7.151  0.8147  0.9962 -0.1006
   77MOL    H3024502   5.016   4.789   7.100 -1.3278  0.9521 -0.7383
   77MOL    H3124503   5.220   5.008   7.421 -0.3806 -3.2307  0.6052
   77MOL    H3224504   5.045   5.007   7.417 -3.0732 -0.8965 -2.4948
   77MOL    H3324505   5.136   5.090   7.287  3.2569 -0.3272 -0.7552
   77MOL    C3424506   5.474   4.882   7.092  0.1097 -0.0527 -0.2882
   77MOL    C3524507   5.554   4.979   7.186  0.3014 -0.3386 -0.1459
   77MOL    O3624508   5.613   4.905   7.286  0.2972  0.5159  0.0864
   77MOL    C3724509   5.542   4.892   7.414  0.8533  0.9076  0.3599
   77MOL    C3824510   5.574   4.748   7.457 -0.0168  0.0168 -0.4306
   77MOL    C3924511   5.595   5.003   7.511  0.1637  0.3298  0.2875
   77MOL    H4024512   5.450   4.936   7.000 -1.6560  1.0555  0.7685
   77MOL    H4124513   5.548   4.810   7.058 -1.3102 -2.2213  1.0980
   77MOL    H4224514   5.488   5.048   7.238  0.4669 -0.1685 -0.1628
   77MOL    H4324515   5.436   4.897   7.392  1.1325  0.6938 -1.0380
   77MOL    H4424516   5.550   4.668   7.387  0.4348  0.7122 -1.3878
   77MOL    H4524517   5.532   4.721   7.554  0.8273 -2.2648 -0.6607
   77MOL    H4624518   5.682   4.731   7.468 -0.3012 -3.1398 -1.9936
   77MOL    H4724519   5.600   5.099   7.460  0.9578  0.6279  0.9212
   77MOL    H4824520   5.531   5.006   7.599  3.4251 -0.9424  2.8191
   77MOL    H4924521   5.695   4.972   7.541 -0.3826  0.0068  1.8633
   77MOL    C5024522   5.671   5.046   7.110 -0.0708 -0.1472 -0.0331
   77MOL    C5124523   5.734   5.170   7.172  0.2736 -0.0943  0.0625
   77MOL    O5224524   5.642   5.274   7.148  0.1034 -0.3341  0.1996
   77MOL    C5324525   5.610   5.360   7.259  0.1996  0.0045 -0.1662
   77MOL    C5424526   5.481   5.429   7.215 -0.1487  0.6007 -0.6379
   77MOL    C5524527   5.716   5.468   7.285 -0.1410 -0.3802 -0.0836
   77MOL    H5624528   5.743   4.966   7.099  0.5207  0.1976  1.2928
   77MOL    H5724529   5.628   5.074   7.013 -1.3688 -3.5638 -0.5127
   77MOL    H5824530   5.751   5.146   7.277 -2.9099 -0.1972  0.6194
   77MOL    H5924531   5.577   5.297   7.341 -1.3670 -0.6633 -1.2986
   77MOL    H6024532   5.407   5.349   7.219  1.1270 -0.5461  0.8144
   77MOL    H6124533   5.488   5.456   7.110 -0.6908 -1.2294 -1.1775
   77MOL    H6224534   5.443   5.508   7.280  0.5366 -1.2353  2.0975
   77MOL    H6324535   5.680   5.551   7.345  1.8550  1.1935 -1.0065
   77MOL    H6424536   5.754   5.521   7.197 -0.8082  2.3688  1.2512
   77MOL    H6524537   5.798   5.417   7.336 -1.2166 -1.5942  0.4569
   77MOL    C6624538   5.864   5.207   7.100 -0.4325 -0.2990  0.4275
   77MOL    C6724539   5.995   5.130   7.135 -0.4407 -0.0229 -0.4247
   77MOL    O6824540   6.025   5.146   7.277 -0.5552  0.2476 -0.3533
   77MOL    C6924541   6.017   5.022   7.354 -0.6562  0.5856 -0.1938
   77MOL    C7024542   6.168   4.967   7.351  0.3536 -0.1414 -0.1341
   77MOL    C7124543   5.976   5.063   7.495 -0.3259  0.4180 -0.2412
   77MOL    H7224544   5.845   5.209   6.993  2.1500 -1.9200 -0.0884
   77MOL    H7324545   5.889   5.308   7.134 -2.3379  1.4377 -3.0301
   77MOL    H7424546   5.972   5.029   7.100  0.5204 -0.5855  0.5482
   77MOL    H7524547   5.940   4.959   7.309  0.5028 -0.1216 -1.2213
   77MOL    H7624548   6.208   4.944   7.252  1.2264  1.3549 -0.1544
   77MOL    H7724549   6.235   5.049   7.378  2.3510 -1.9726  0.5603
   77MOL    H7824550   6.180   4.874   7.406 -3.0374 -0.4732  0.1162
   77MOL    H7924551   5.887   5.125   7.503 -0.9642 -0.7000  1.8060
   77MOL    H8024552   6.051   5.124   7.545 -2.4678  2.7966  0.1504
   77MOL    H8124553   5.949   4.976   7.556 -1.0232 -0.2879 -1.5239
   77MOL    C8224554   6.118   5.184   7.059 -0.2149  0.2505 -0.1807
   77MOL    C8324555   6.119   5.174   6.905 -0.8266  0.2401 -0.1888
   77MOL    O8424556   6.257   5.210   6.851 -0.1507  0.4024 -0.1134
   77MOL    C8524557   6.302   5.343   6.869 -0.8258  0.6378 -0.8211
   77MOL    C8624558   6.389   5.376   6.744  0.3585  0.1593 -0.3783
   77MOL    C8724559   6.388   5.355   7.000  0.1263 -0.2069  0.5858
   77MOL    H8824560   6.136   5.287   7.091 -0.6285  0.4571 -0.6172
   77MOL    H8924561   6.210   5.137   7.094 -1.6476 -0.7158  2.4488
   77MOL    H9024562   6.032   5.229   6.868  0.5212  2.5851  0.0441
   77MOL    H9124563   6.212   5.405   6.864 -1.4542 -0.3629 -2.1748
   77MOL    H9224564   6.326   5.376   6.654 -0.2909  0.1153  0.0690
   77MOL    H9324565   6.421   5.480   6.740 -1.7691  0.9294  1.3625
   77MOL    H9424566   6.468   5.304   6.723 -0.2154 -0.4676 -0.4332
   77MOL    H9524567   6.459   5.273   7.014 -3.0549 -2.8438  1.8957
   77MOL    H9624568   6.444   5.448   6.992  0.4727 -0.3941  0.8073
   77MOL    H9724569   6.341   5.352   7.099  1.8272 -0.0234  1.4270
   77MOL    C9824570   6.102   5.019   6.871  0.2221 -0.5078 -0.5467
   77MOL    C9924571   6.117   4.986   6.722  0.2564  0.6650 -0.1635
   77MOL   O10024572   6.006   5.033   6.646  0.0951 -0.1825 -0.2938
   77MOL   C10124573   6.034   5.065   6.511  0.7995  0.2389 -0.0730
   77MOL   C10224574   6.093   5.202   6.508 -0.1924 -0.0332 -0.0720
   77MOL   C10324575   5.904   5.059   6.429 -0.2482 -0.2221 -0.9048
   77MOL   H10424576   6.185   4.968   6.920  1.8358  0.0852 -2.6108
   77MOL   H10524577   6.005   4.980   6.901 -0.1812 -0.1159 -1.3204
   77MOL   H10624578   6.200   5.049   6.692  0.3934  0.5073 -0.1177
   77MOL   H10724579   6.108   4.991   6.479 -0.2226 -0.8220 -0.0331
   77MOL   H10824580   6.130   5.237   6.412 -0.8772  0.9820  0.0194
   77MOL   H10924581   6.179   5.222   6.572  0.4246  3.2627 -1.8029
   77MOL   H11024582   6.012   5.262   6.550 -1.5654 -2.2767  0.5911
   77MOL   H11124583   5.927   5.078   6.324  0.0896  1.0095 -0.6081
   77MOL   H11224584   5.825   5.111   6.483 -0.4076  0.0311 -1.3738
   77MOL   H11324585   5.876   4.954   6.419  1.3273 -0.5023 -2.7521
   77MOL   C11424586   6.143   4.835   6.705  0.0927  0.0639 -0.1056
   77MOL   C11524587   6.271   4.762   6.767  0.3789 -0.2291  0.0758
   77MOL   O11624588   6.254   4.737   6.902  0.2301 -0.3258 -0.5723
   77MOL   C11724589   6.370   4.705   6.979  0.8583  0.8298 -0.4736
   77MOL   C11824590   6.325   4.618   7.096 -0.1426 -0.4133 -0.0017
   77MOL   C11924591   6.448   4.832   7.023 -0.3432  0.3265 -0.0473
   77MOL   H12024592   6.148   4.825   6.597 -1.2228 -0.1566 -0.1530
   77MOL   H12124593   6.057   4.777   6.738 -0.2533 -0.2164 -1.4766
   77MOL   H12224594   6.342   4.843   6.749 -0.1307 -0.4387 -3.2054
   77MOL   H12324595   6.441   4.655   6.914  1.0525  2.0278 -1.1980
   77MOL   H12424596   6.254   4.681   7.149 -0.3804  0.1150 -0.9344
   77MOL   H12524597   6.410   4.592   7.159  1.5818  2.0246 -1.2492
   77MOL   H12624598   6.284   4.534   7.040  2.9331 -2.3521  0.5446
   77MOL   H12724599   6.486   4.888   6.937 -1.4889 -0.2840 -0.9665
   77MOL   H12824600   6.534   4.830   7.090  1.3246  2.2835 -2.0202
   77MOL   H12924601   6.379   4.901   7.072 -0.5548 -0.5735  0.9260
   77MOL   C13024602   6.321   4.646   6.677 -0.3847 -0.0491 -0.6679
   77MOL   C13124603   6.256   4.506   6.715 -0.4729 -0.4498  0.0329
   77MOL   O13224604   6.332   4.406   6.656 -0.0287  0.7451  0.4024
   77MOL   C13324605   6.438   4.357   6.731  0.1511 -0.0134 -0.7526
   77MOL   C13424606   6.391   4.253   6.835  0.5068 -0.1861 -0.5687
   77MOL   C13524607   6.548   4.303   6.640 -0.8795  0.1013 -0.3739
   77MOL   H13624608   6.429   4.640   6.691 -0.2365  1.4062 -1.1854
   77MOL   H13724609   6.304   4.666   6.571 -2.3679 -0.1230 -0.3883
   77MOL   H13824610   6.247   4.501   6.824  1.5264 -3.2255  0.1373
   77MOL   H13924611   6.488   4.444   6.773 -1.0906 -0.0148  0.8067
   77MOL   H14024612   6.335   4.297   6.918  0.7857  0.8488 -0.9232
   77MOL   H14124613   6.486   4.217   6.876  0.2103  1.2940  1.5029
   77MOL   H14224614   6.329   4.171   6.799  0.4748  0.4567 -1.9892
   77MOL   H14324615   6.504   4.233   6.568 -2.7581  0.1894  0.6605
   77MOL   H14424616   6.591   4.386   6.585  0.3360  0.7116  1.4841
   77MOL   H14524617   6.632   4.258   6.692  0.2630  3.3446  0.6714
   77MOL   C14624618   6.124   4.483   6.647 -0.0126 -0.8360  0.2003
   77MOL   C14724619   6.040   4.360   6.689  0.9293  0.0519  0.2963
   77MOL   O14824620   5.948   4.400   6.791 -0.5014 -0.5092  0.6209
   77MOL   C14924621   5.984   4.371   6.929 -0.1452 -0.0736  0.0436
   77MOL   C15024622   5.891   4.271   6.987  0.1319 -0.6009 -0.7123
   77MOL   C15124623   5.982   4.500   7.010 -0.4205  0.1269  0.4642
   77MOL   H15224624   6.136   4.493   6.539  1.4301 -1.8149  0.2641
   77MOL   H15324625   6.064   4.574   6.653  2.2788  0.8626 -1.7991
   77MOL   H15424626   6.104   4.278   6.721 -2.9714 -3.4415 -0.3305
   77MOL   H15524627   6.088   4.339   6.938 -0.5016 -0.5178  2.8993
   77MOL   H15624628   5.931   4.173   6.962 -2.8080 -1.7751 -1.0354
   77MOL   H15724629   5.792   4.280   6.940  0.5673  0.4382 -1.4583
   77MOL   H15824630   5.881   4.289   7.094  2.4588 -1.2583 -0.3700
   77MOL   H15924631   6.064   4.557   6.967  1.5598 -2.6436  0.4018
   77MOL   H16024632   6.009   4.487   7.115  1.3009 -0.9378 -0.0953
   77MOL   H16124633   5.893   4.562   7.005 -0.8274 -0.4320  0.6703
   77MOL   C16224634   5.944   4.306   6.580  0.1110 -0.9885 -0.0484
   77MOL   C16324635   6.007   4.255   6.451  0.4679  0.7494 -0.7763
   77MOL   O16424636   6.086   4.134   6.470  0.5390  0.7919  0.7455
   77MOL   C16524637   6.211   4.135   6.403 -0.0876  0.6241 -0.6691
   77MOL   C16624638   6.203   4.140   6.252 -0.1114 -0.3453 -0.5899
   77MOL   C16724639   6.303   4.024   6.462  0.0944 -0.1403  0.2255
   77MOL   H16824640   5.865   4.240   6.616 -0.0283 -0.8566 -0.1154
   77MOL   H16924641   5.885   4.390   6.545 -2.3293 -2.0336  1.3781
   77MOL   H17024642   6.062   4.336   6.402  0.9024  1.7397  1.3106
   77MOL   H17124643   6.267   4.225   6.431  1.4770 -0.6584  0.4058
   77MOL   H17224644   6.157   4.229   6.209  1.2217  0.4960 -0.2967
   77MOL   H17324645   6.158   4.049   6.213 -0.2320 -1.6690  2.4673
   77MOL   H17424646   6.300   4.147   6.204 -0.8878 -0.8984 -2.2889
   77MOL   H17524647   6.324   4.043   6.567  0.7036 -0.4191  0.1563
   77MOL   H17624648   6.399   4.017   6.410  0.2617  0.2488  0.4794
   77MOL   H17724649   6.267   3.921   6.459  0.9275 -0.4087 -1.0075
   77MOL   C17824650   5.891   4.210   6.360  0.2535  0.1605  0.4144
   77MOL   C17924651   5.797   4.319   6.294  0.0675  0.2188 -0.4014
   77MOL   O18024652   5.866   4.432   6.244  0.2618  0.1970 -0.0465
   77MOL   C18124653   5.786   4.547   6.251 -0.3163  0.4288 -0.3370
   77MOL   C18224654   5.799   4.633   6.122 -0.0367 -0.2282 -0.2273
   77MOL   C18324655   5.834   4.618   6.377  0.2423 -0.3033 -0.1522
   77MOL   H18424656   5.831   4.140   6.419  0.2096 -0.8122 -0.7575
   77MOL   H18524657   5.931   4.144   6.282 -0.6577  0.6682 -0.4991
   77MOL   H18624658   5.745   4.350   6.385 -1.6563 -1.5396 -0.7602
   77MOL   H18724659   5.682   4.517   6.262 -0.4190  0.6203 -0.8138
   77MOL   H18824660   5.746   4.579   6.043 -0.8607 -0.9336  0.7992
   77MOL   H18924661   5.902   4.647   6.087 -0.3633 -0.1677 -1.1810
   77MOL   H19024662   5.751   4.731   6.131  4.5217  2.1648 -0.3639
   77MOL   H19124663   5.790   4.563   6.460  1.4274  0.9569  1.3183
   77MOL   H19224664   5.785   4.716   6.379 -0.0132 -0.4216 -0.4522
   77MOL   H19324665   5.942   4.626   6.381  0.1478  0.6637  0.6699
   77MOL   C19424666   5.704   4.243   6.191 -0.1012 -0.1732  0.2201
   77MOL   C19524667   5.600   4.155   6.264  0.3024 -0.2072  1.1108
   77MOL   O19624668   5.580   4.037   6.193  0.4046  0.3479  0.4100
   77MOL   C19724669   5.684   3.937   6.213 -0.0154 -0.8067  0.4197
   77MOL   C19824670   5.665   3.853   6.340  0.7240 -0.6622  0.3001
   77MOL   C19924671   5.672   3.857   6.086 -0.5012 -0.1679 -0.1875
   77MOL   H20024672   5.652   4.311   6.123 -1.9960 -0.3685  1.4191
   77MOL   H20124673   5.761   4.187   6.117  0.6449 -0.1997  0.8076
   77MOL   H20224674   5.643   4.124   6.360  2.8273  2.2676  0.8653
   77MOL   H20324675   5.784   3.979   6.218 -0.9873  1.4181  1.8511
   77MOL   H20424676   5.643   3.919   6.423  1.2329 -0.7878  0.5380
   77MOL   H20524677   5.593   3.772   6.324 -1.3146  1.1083  0.2988
   77MOL   H20624678   5.763   3.811   6.361  0.9683 -0.6014 -0.6978
   77MOL   H20724679   5.770   3.818   6.058 -0.3176  0.7608 -0.8418
   77MOL   H20824680   5.591   3.784   6.089  0.3074 -1.0801 -0.3899
   77MOL   H20924681   5.658   3.928   6.005  1.1423  0.2599 -0.1057
   77MOL   C21024682   5.461   4.225   6.291  0.8741  0.2814 -0.5813
   77MOL   C21124683   5.392   4.173   6.413 -0.1361 -0.7286  1.0536
   77MOL   O21224684   5.433   4.252   6.522 -0.4333  0.5988  0.2191
   77MOL   C21324685   5.424   4.189   6.654 -0.3533 -0.0052 -1.3265
   77MOL   C21424686   5.549   4.106   6.682  0.5407  0.7950  0.3258
   77MOL   C21524687   5.408   4.287   6.773  0.1594  0.4356 -0.4036
   77MOL   H21624688   5.406   4.205   6.199 -0.5476  0.5940  0.1797
   77MOL   H21724689   5.469   4.333   6.301 -1.7067  0.3794  0.8281
   77MOL   H21824690   5.424   4.070   6.429  0.8670 -0.1739  2.7998
   77MOL   H21924691   5.336   4.125   6.654  1.8675 -3.1577 -0.3686
   77MOL   H22024692   5.548   4.065   6.783 -0.6885  0.6641  0.2697
   77MOL   H22124693   5.638   4.168   6.680  0.3722  1.0332  0.1170
   77MOL   H22224694   5.569   4.032   6.604 -2.5351  2.4990 -2.2238
   77MOL   H22324695   5.394   4.237   6.869 -1.8807 -1.6079 -1.7109
   77MOL   H22424696   5.318   4.348   6.764  0.4344  0.8804 -0.1440
   77MOL   H22524697   5.503   4.340   6.779  0.1526  0.4545 -0.4665
   77MOL   C22624698   5.240   4.179   6.386 -0.2251  0.1607 -0.2875
   77MOL   C22724699   5.176   4.052   6.320  0.1737  1.2344  0.2367
   77MOL   O22824700   5.032   4.065   6.299 -0.5527 -0.0187 -0.4116
   77MOL   C22924701   4.989   4.151   6.204 -0.3784 -0.1434  0.6501
   77MOL   C23024702   4.838   4.158   6.212 -0.1402 -0.0698  0.3706
   77MOL   C23124703   5.031   4.123   6.052  0.1052  0.0359 -0.3936
   77MOL   H23224704   5.205   4.263   6.326 -0.6959  1.8814  2.3351
   77MOL   H23324705   5.193   4.190   6.484 -1.4833 -1.3868 -0.6948
   77MOL   H23424706   5.230   4.043   6.225 -0.6389  0.1735 -0.1235
   77MOL   H23524707   5.021   4.254   6.218 -2.4377  0.6352 -0.2084
   77MOL   H23624708   4.793   4.058   6.207  2.7274 -1.2987 -2.4095
   77MOL   H23724709   4.817   4.189   6.315  0.8227  1.2628  0.1699
   77MOL   H23824710   4.788   4.233   6.151 -0.6354 -1.5081 -1.0359
   77MOL   H23924711   5.137   4.103   6.040  0.0354 -0.8981  0.4093
   77MOL   H24024712   5.006   4.202   5.982  0.1292 -0.2815 -0.7610
   77MOL   H24124713   4.975   4.036   6.017  0.1276 -1.7944  3.7431
   77MOL   C24224714   5.194   3.913   6.391 -0.0090 -0.3012  0.3640
   77MOL   C24324715   5.163   3.793   6.291  0.3462  0.1643 -0.2202
   77MOL   O24424716   5.114   3.687   6.366 -0.1258  0.4590  0.0100
   77MOL   C24524717   4.980   3.634   6.341  0.6312  0.0128 -0.4794
   77MOL   C24624718   4.972   3.506   6.418  0.5275  0.1324  0.3768
   77MOL   C24724719   4.871   3.722   6.400  0.6119  0.3229 -0.3250
   77MOL   H24824720   5.296   3.900   6.428  0.3101 -0.9656 -0.7266
   77MOL   H24924721   5.136   3.928   6.482  1.0839 -1.2756  1.2357
   77MOL   H25024722   5.083   3.833   6.228 -2.1365 -2.9572  0.7910
   77MOL   H25124723   4.969   3.619   6.234  2.1343 -0.7329 -0.5435
   77MOL   H25224724   5.007   3.522   6.520  0.5944 -0.6163  0.4753
   77MOL   H25324725   4.873   3.461   6.416  1.0604 -1.0623  0.1449
   77MOL   H25424726   5.041   3.425   6.391  0.1485  0.1640 -0.6903
   77MOL   H25524727   4.874   3.816   6.344  2.8704 -0.6128 -1.8457
   77MOL   H25624728   4.770   3.698   6.367  0.5728 -0.3532  0.2793
   77MOL   H25724729   4.876   3.732   6.508  0.6639 -0.1403 -0.2819
   77MOL   C25824730   5.278   3.759   6.201 -0.1433 -0.2788  0.3020
   77MOL   C25924731   5.262   3.637   6.101  0.0054  0.2965  0.5948
   77MOL   O26024732   5.390   3.609   6.043  0.8120 -0.0342 -0.6706
   77MOL   C26124733   5.459   3.488   6.078 -0.6180  0.5192  0.4591
   77MOL   C26224734   5.574   3.478   5.977 -0.3020  0.0647 -0.2767
   77MOL   C26324735   5.514   3.495   6.215 -0.1633 -0.0285  0.5946
   77MOL   H26424736   5.321   3.845   6.150  0.1297 -0.0880  0.8523
   77MOL   H26524737   5.370   3.734   6.255  0.8610  1.7067 -0.4406
   77MOL   H26624738   5.232   3.551   6.161 -0.2287  0.9176  1.3713
   77MOL   H26724739   5.391   3.403   6.076 -0.6480  0.5841 -2.9177
   77MOL   H26824740   5.639   3.566   5.979 -0.1982  0.1049 -3.5017
   77MOL   H26924741   5.541   3.470   5.874  1.4431 -2.9579 -0.6786
   77MOL   H27024742   5.632   3.386   5.992  0.2058  0.1273 -1.7758
   77MOL   H27124743   5.436   3.491   6.291 -0.9832  0.2846 -0.2070
   77MOL   H27224744   5.579   3.408   6.225 -1.5797 -1.2786 -0.7974
   77MOL   H27324745   5.564   3.591   6.224 -0.6836  0.2723  0.3142
   77MOL   C27424746   5.153   3.668   5.988  0.3338 -0.2148  0.4693
   77MOL   C27524747   5.126   3.559   5.879  0.5603  0.3883 -0.1370
   77MOL   O27624748   5.023   3.472   5.916  0.2370 -0.5520 -0.1967
   77MOL   C27724749   5.060   3.366   5.991 -0.1712 -0.2835  0.7247
   77MOL   C27824750   5.102   3.260   5.894  0.1851  0.3680 -0.7423
   77MOL   C27924751   4.931   3.325   6.066  0.2260 -0.7906 -0.3671
   77MOL   H28024752   5.061   3.699   6.036 -0.3950  0.6786 -1.4581
   77MOL   H28124753   5.180   3.761   5.938  1.3244 -0.4191  0.6088
   77MOL   H28224754   5.223   3.510   5.866 -0.1625 -0.5978 -1.9754
   77MOL   H28324755   5.141   3.392   6.060  1.2922  1.2148 -1.4700
   77MOL   H28424756   5.028   3.246   5.816  1.0773  0.4998 -1.6255
   77MOL   H28524757   5.194   3.278   5.838 -0.1448 -0.0425 -1.4185
   77MOL   H28624758   5.122   3.170   5.952  1.6845  1.8388  1.1259
   77MOL   H28724759   4.847   3.298   6.001 -1.2143  1.3413  0.5551
   77MOL   H28824760   4.898   3.386   6.149  1.2049  0.6905 -1.0530
   77MOL   H28924761   4.948   3.230   6.117  1.3314 -0.2001  0.3688
   77MOL   C29024762   5.081   3.632   5.747  0.4483 -0.0760 -0.1933
   77MOL   C29124763   5.104   3.547   5.625  0.6915 -0.0424  0.2519
   77MOL   O29224764   5.035   3.621   5.524 -0.5665 -0.4138  0.4670
   77MOL   C29324765   4.899   3.581   5.510 -0.6083  0.2040 -0.4081
   77MOL   C29424766   4.887   3.467   5.416  0.4129  0.0013  0.5209
   77MOL   C29524767   4.828   3.700   5.449  0.1652 -0.4782 -0.2839
   77MOL   H29624768   5.134   3.726   5.733  2.4071 -1.3475 -1.5568
   77MOL   H29724769   4.976   3.658   5.760  0.2869 -0.1043 -1.3721
   77MOL   H29824770   5.068   3.445   5.631 -0.5075  0.4323  1.2619
   77MOL   H29924771   4.856   3.566   5.609  0.4806  2.0463  0.3584
   77MOL   H30024772   4.937   3.379   5.457 -1.8887 -1.4015  0.4408
   77MOL   H30124773   4.783   3.442   5.395  0.9954 -1.3811 -0.8524
   77MOL   H30224774   4.940   3.487   5.322  1.3176  0.1936  1.0633
   77MOL   H30324775   4.842   3.782   5.520  1.1305 -2.5372  1.9781
   77MOL   H30424776   4.866   3.730   5.351  1.1174  1.6560  0.6973
   77MOL   H30524777   4.722   3.687   5.432  0.5023  0.2935 -3.2077
   77MOL   C30624778   5.252   3.530   5.569 -0.5983 -0.0479 -0.1616
   77MOL   C30724779   5.259   3.426   5.465  0.1373  0.1279  0.6199
   77MOL   O30824780   5.220   3.306   5.521 -0.3556 -0.7178 -0.3303
   77MOL   C30924781   5.220   3.190   5.437 -0.3418 -1.2762  0.2212
   77MOL   C31024782   5.276   3.080   5.523 -0.0561 -0.4056  0.2118
   77MOL   C31124783   5.080   3.164   5.389 -0.3749  0.6280 -0.1891
   77MOL   H31224784   5.320   3.497   5.648  1.0011  0.1431 -1.4262
   77MOL   H31324785   5.289   3.627   5.535  0.1484 -0.2042  0.1911
   77MOL   H31424786   5.179   3.454   5.396 -0.9849 -0.3213  1.7264
   77MOL   H31524787   5.281   3.206   5.349 -1.0461  0.6698  0.0664
   77MOL   H31624788   5.378   3.085   5.559  0.7522  0.0412 -2.0325
   77MOL   H31724789   5.266   2.984   5.472 -0.0226 -0.6156  0.6028
   77MOL   H31824790   5.220   3.076   5.616  2.2677  2.3171  1.7971
   77MOL   H31924791   5.002   3.163   5.466 -1.8739  0.4090 -1.6800
   77MOL   H32024792   5.066   3.074   5.329  2.0312  0.3091 -0.2978
   77MOL   H32124793   5.046   3.244   5.324 -2.1346 -1.3158 -1.7163
   77MOL   H32224794   5.352   3.420   5.407 -0.7021  0.8307 -0.8239
   78MOL     C124795   2.755   5.151   0.649  0.2902  0.4724  0.6415
   78MOL     C224796   2.824   5.288   0.682  0.5228  0.4130  0.4274
   78MOL     O324797   2.911   5.261   0.794  0.1739  0.2238 -0.2335
   78MOL     C424798   2.953   5.372   0.870 -0.2855 -0.4898  0.3497
   78MOL     C524799   3.107   5.387   0.863  0.2930 -0.2294 -0.0024
   78MOL     C624800   2.898   5.339   1.007 -0.0349 -0.1453 -0.0315
   78MOL     H724801   2.830   5.072   0.641 -0.2999 -0.1571  1.1447
   78MOL     H824802   2.688   5.115   0.728  0.8943  2.9316  2.3314
   78MOL     H924803   2.755   5.369   0.706  0.5595  0.2668  1.0472
   78MOL    H1024804   2.912   5.466   0.835 -1.2003 -0.0387  2.5176
   78MOL    H1124805   3.136   5.472   0.924  1.7579 -1.6855  1.3983
   78MOL    H1224806   3.147   5.296   0.908 -1.1208 -1.5555 -1.3611
   78MOL    H1324807   3.129   5.397   0.757  1.3210 -0.1217  0.2184
   78MOL    H1424808   2.795   5.308   0.990 -0.2666  0.0501  1.0195
   78MOL    H1524809   2.945   5.258   1.062 -0.6036  0.4952  1.4211
   78MOL    H1624810   2.891   5.429   1.068  0.1203 -0.6617  0.7518
   78MOL    H1724811   2.693   5.154   0.560 -0.4053  1.0895  1.1387
   78MOL    C1824812   2.906   5.337   0.563  0.0611  0.0394  0.7881
   78MOL    C1924813   2.831   5.384   0.435  0.1076 -0.3171  0.1012
   78MOL    O2024814   2.922   5.387   0.331 -0.2823 -0.3006  0.6230
   78MOL    C2124815   2.962   5.263   0.270  0.0058 -0.2917 -0.0790
   78MOL    C2224816   3.100   5.297   0.210  0.0943 -0.1122 -0.9944
   78MOL    C2324817   2.862   5.205   0.169  0.2373 -0.0811 -0.6153
   78MOL    H2424818   2.965   5.423   0.593  1.1962  0.1396 -1.6568
   78MOL    H2524819   2.977   5.256   0.546  0.7315  0.2269  2.5595
   78MOL    H2624820   2.757   5.307   0.413  0.5741 -0.4617 -0.9752
   78MOL    H2724821   2.980   5.192   0.351  0.3062 -0.6015 -0.4147
   78MOL    H2824822   3.097   5.363   0.124 -1.0460  0.7171 -0.3349
   78MOL    H2924823   3.159   5.347   0.287  0.7416 -3.3835  0.7443
   78MOL    H3024824   3.153   5.204   0.192 -0.3116 -0.4478 -0.5088
   78MOL    H3124825   2.888   5.115   0.114  5.0030  0.4984  0.5079
   78MOL    H3224826   2.822   5.282   0.103 -0.5625  0.6155  0.6476
   78MOL    H3324827   2.774   5.173   0.225 -0.4935  0.4922 -1.4139
   78MOL    C3424828   2.764   5.517   0.446  0.3025  0.3450 -0.3631
   78MOL    C3524829   2.684   5.562   0.318  0.8531 -0.3820 -0.1524
   78MOL    O3624830   2.557   5.505   0.328  0.0581 -0.2000 -0.4886
   78MOL    C3724831   2.483   5.489   0.216 -0.2667 -0.4496  0.2024
   78MOL    C3824832   2.517   5.355   0.154  0.1924  0.1040 -0.2047
   78MOL    C3924833   2.343   5.485   0.260 -0.5509  0.1519 -0.3739
   78MOL    H4024834   2.828   5.596   0.486  1.2736 -1.3879  1.5973
   78MOL    H4124835   2.687   5.519   0.524  0.3125 -1.1623 -0.3096
   78MOL    H4224836   2.722   5.527   0.222  1.6749  1.2858 -0.4623
   78MOL    H4324837   2.502   5.575   0.151  1.0202 -1.0034 -0.1738
   78MOL    H4424838   2.617   5.354   0.110  0.6839 -0.2288  0.8959
   78MOL    H4524839   2.440   5.342   0.078 -0.6238 -0.9535  0.7694
   78MOL    H4624840   2.522   5.279   0.232  1.0273 -0.0751 -0.4290
   78MOL    H4724841   2.285   5.521   0.175  1.7635 -1.1644 -2.5580
   78MOL    H4824842   2.303   5.389   0.292 -0.9393  0.5885  0.4748
   78MOL    H4924843   2.311   5.545   0.345  1.0083  0.2785  0.1204
   78MOL    C5024844   2.666   5.712   0.306  0.2565  0.2286 -0.1763
   78MOL    C5124845   2.783   5.790   0.264  0.1967  0.3688 -0.4104
   78MOL    O5224846   2.798   5.927   0.314 -0.6708 -0.5426  0.3742
   78MOL    C5324847   2.704   6.017   0.270  1.6475  0.3094  0.4884
   78MOL    C5424848   2.788   6.136   0.233  0.1531 -0.0642 -0.3567
   78MOL    C5524849   2.604   6.048   0.383 -0.6799  0.2348  0.0804
   78MOL    H5624850   2.579   5.741   0.246 -0.4141 -1.0216  0.1811
   78MOL    H5724851   2.630   5.749   0.402  0.6948 -1.8249  0.8059
   78MOL    H5824852   2.859   5.742   0.327  1.4644  1.5845 -0.9737
   78MOL    H5924853   2.653   5.979   0.181 -2.3328  0.1392  2.7634
   78MOL    H6024854   2.860   6.102   0.159 -0.9718 -1.5212 -0.7896
   78MOL    H6124855   2.840   6.194   0.309 -2.0551  0.3304  0.9026
   78MOL    H6224856   2.725   6.211   0.185  1.5765  1.1751 -0.3349
   78MOL    H6324857   2.655   6.109   0.457  0.7688 -0.1775 -0.5566
   78MOL    H6424858   2.564   5.965   0.441 -2.0577  0.3256 -0.7132
   78MOL    H6524859   2.509   6.089   0.348  0.0971  0.4202 -1.9173
   78MOL    C6624860   2.823   5.774   0.114 -0.0612 -0.4583 -0.0270
   78MOL    C6724861   2.976   5.792   0.088 -0.2421 -0.1171  0.5907
   78MOL    O6824862   3.007   5.807   7.765 -0.1665 -0.0474  0.0607
   78MOL    C6924863   3.017   5.943   7.725 -0.1068  0.0563 -0.1027
   78MOL    C7024864   3.159   5.983   7.737  0.4393  0.3937  0.6904
   78MOL    C7124865   2.973   5.952   7.575 -0.1085  0.3754  0.1438
   78MOL    H7224866   2.804   5.672   0.080 -1.0983 -0.4286  0.4327
   78MOL    H7324867   2.767   5.845   0.054  0.2680  0.0863  0.3086
   78MOL    H7424868   3.003   5.876   0.151 -3.2200  1.4745 -0.1770
   78MOL    H7524869   2.952   6.000   7.791  0.1840 -2.8945  2.8852
   78MOL    H7624870   3.226   5.918   7.682 -1.4126 -1.2155  0.2769
   78MOL    H7724871   3.177   6.086   7.706 -2.7348  1.1501  1.1761
   78MOL    H7824872   3.195   5.975   0.019 -0.6258 -1.2308  0.9596
   78MOL    H7924873   2.986   6.053   7.535 -0.2713  0.8529  1.2762
   78MOL    H8024874   2.865   5.936   7.575 -0.3357  1.8667  0.5354
   78MOL    H8124875   3.018   5.876   7.511 -0.9590 -0.8287  0.9479
   78MOL    C8224876   3.057   5.662   0.115 -0.2741  0.0962 -0.4992
   78MOL    C8324877   3.209   5.668   0.121 -1.4010  0.1836 -0.0777
   78MOL    O8424878   3.252   5.590   0.239  0.0175  0.0312 -0.3241
   78MOL    C8524879   3.305   5.665   0.352 -0.7485 -0.0258  0.6239
   78MOL    C8624880   3.448   5.629   0.378  0.2463  0.4856  0.1955
   78MOL    C8724881   3.209   5.625   0.468 -0.4050  0.0109 -0.3638
   78MOL    H8824882   3.020   5.617   0.207 -0.8666 -0.2359 -0.8907
   78MOL    H8924883   3.027   5.576   0.054 -1.2101 -1.0847  1.5508
   78MOL    H9024884   3.241   5.772   0.118  1.4366 -0.6716 -0.9135
   78MOL    H9124885   3.296   5.771   0.332  0.0451  0.2158  1.5277
   78MOL    H9224886   3.466   5.522   0.368 -0.2302  0.3066  1.1455
   78MOL    H9324887   3.519   5.673   0.308 -0.9539  3.0753  0.5423
   78MOL    H9424888   3.472   5.656   0.480  1.1410 -1.5283  0.5296
   78MOL    H9524889   3.223   5.695   0.551 -0.1577 -0.0279 -0.3705
   78MOL    H9624890   3.104   5.644   0.447 -0.2069 -0.7357 -2.1104
   78MOL    H9724891   3.219   5.521   0.497 -0.1282  0.3756  0.8999
   78MOL    C9824892   3.277   5.612   7.816  0.8269  0.1610 -0.5134
   78MOL    C9924893   3.425   5.626   7.800  0.7670  1.0419 -0.1369
   78MOL   O10024894   3.451   5.754   7.750 -0.1643 -0.8312  0.3842
   78MOL   C10124895   3.564   5.835   7.787  0.3543  0.3428  0.1410
   78MOL   C10224896   3.529   5.906   0.098  0.2541 -0.4605  0.3423
   78MOL   C10324897   3.582   5.933   7.675 -0.4666 -0.3370  0.2709
   78MOL   H10424898   3.262   5.504   7.819  0.9486  0.1684  0.5982
   78MOL   H10524899   3.214   5.646   7.734 -2.7351 -1.6070  1.3543
   78MOL   H10624900   3.472   5.604   0.075  0.5498 -1.2350 -0.5107
   78MOL   H10724901   3.661   5.786   7.794  0.3593  0.0255 -1.9268
   78MOL   H10824902   3.435   5.961   0.089  0.3954 -0.5016 -1.8127
   78MOL   H10924903   3.609   5.978   0.117  1.3595 -0.7202 -2.9230
   78MOL   H11024904   3.513   5.837   0.180 -2.3741 -0.4890 -0.1466
   78MOL   H11124905   3.491   5.992   7.663 -0.0874  1.0075  3.5257
   78MOL   H11224906   3.608   5.877   7.585  0.6786 -0.9877  0.9990
   78MOL   H11324907   3.672   5.994   7.685 -0.3579 -0.8698  3.0134
   78MOL   C11424908   3.492   5.525   7.700  0.3579 -0.3173  0.2699
   78MOL   C11524909   3.587   5.417   7.766 -0.0545 -0.6919 -0.2513
   78MOL   O11624910   3.612   5.315   7.671  0.4035  0.4115  0.4803
   78MOL   C11724911   3.511   5.220   7.630 -0.6104 -1.0616 -0.1186
   78MOL   C11824912   3.524   5.097   7.722 -0.2538 -0.7112 -0.3006
   78MOL   C11924913   3.542   5.194   7.483  0.0604 -0.0735  0.4203
   78MOL   H12024914   3.561   5.575   7.632  0.6189  1.5374  1.8611
   78MOL   H12124915   3.412   5.485   7.638 -1.6230  1.9018  1.3006
   78MOL   H12224916   3.527   5.368   0.023  0.2627  1.9055  1.7039
   78MOL   H12324917   3.410   5.261   7.637 -0.2263 -0.1214 -0.0072
   78MOL   H12424918   3.625   5.090   7.761 -1.2441 -0.2222  2.4675
   78MOL   H12524919   3.498   4.999   7.682 -0.4665 -1.3845  1.4487
   78MOL   H12624920   3.473   5.114   7.817  0.2802 -2.6192  0.3307
   78MOL   H12724921   3.644   5.163   7.459 -0.0849  1.0516 -1.8107
   78MOL   H12824922   3.530   5.286   7.425  1.2919 -1.1272 -1.5730
   78MOL   H12924923   3.472   5.119   7.445  0.4797  0.7840 -2.1327
   78MOL   C13024924   3.714   5.482   0.001 -0.6901  0.5765 -0.1511
   78MOL   C13124925   3.817   5.395   0.080 -0.1625  0.4578  0.4878
   78MOL   O13224926   3.753   5.344   0.196 -0.1692 -0.1066 -0.6250
   78MOL   C13324927   3.721   5.206   0.205 -0.3032  0.2356  0.1622
   78MOL   C13424928   3.845   5.129   0.251 -0.7668 -0.8312  0.5703
   78MOL   C13524929   3.601   5.191   0.295 -0.2879  0.3192  0.8046
   78MOL   H13624930   3.687   5.556   0.076 -0.6279 -1.3588  1.8298
   78MOL   H13724931   3.771   5.537   7.747 -1.3334  1.5960  0.0965
   78MOL   H13824932   3.855   5.313   0.019 -0.4639  0.5995  0.1039
   78MOL   H13924933   3.699   5.168   0.105  1.9776  1.2244 -0.7382
   78MOL   H14024934   3.867   5.131   0.358  0.4543  1.1427  0.3085
   78MOL   H14124935   3.932   5.162   0.195 -1.7785  0.4567 -0.2684
   78MOL   H14224936   3.843   5.022   0.229 -1.8916 -0.9486  1.2262
   78MOL   H14324937   3.529   5.262   0.252 -0.2516 -0.6616 -0.9505
   78MOL   H14424938   3.570   5.087   0.301  2.7802 -0.7087 -0.3620
   78MOL   H14524939   3.632   5.233   0.390 -0.3345  0.9348  0.5543
   78MOL   C14624940   3.941   5.467   0.123  0.6328  0.3220 -0.0277
   78MOL   C14724941   4.058   5.481   0.020 -0.3806  0.3527  0.1974
   78MOL   O14824942   3.999   5.492   7.713 -0.4490 -0.2641  0.7127
   78MOL   C14924943   4.005   5.370   7.637  0.3871  0.0846 -0.0306
   78MOL   C15024944   4.147   5.354   7.590 -0.2385  0.1297 -0.6570
   78MOL   C15124945   3.905   5.373   7.514 -0.5421  0.1993 -0.6267
   78MOL   H15224946   3.991   5.432   0.214  1.7353  1.2555 -0.2721
   78MOL   H15324947   3.898   5.563   0.149 -0.1281 -0.4606  1.6489
   78MOL   H15424948   4.117   5.391   0.035 -2.2364 -0.7654  1.0186
   78MOL   H15524949   3.994   5.279   7.695  0.5076  0.1462  0.0892
   78MOL   H15624950   4.150   5.272   7.518 -2.3665 -1.6700  1.2194
   78MOL   H15724951   4.219   5.329   7.667 -0.8882 -0.6940 -0.3074
   78MOL   H15824952   4.182   5.444   7.539 -0.7038  1.2239  0.9270
   78MOL   H15924953   3.807   5.395   7.556 -0.8093 -2.1480  0.0388
   78MOL   H16024954   3.907   5.272   7.475 -0.6284  1.2511 -3.4423
   78MOL   H16124955   3.931   5.452   7.444  2.0511  1.8739  2.0780
   78MOL   C16224956   4.152   5.601   0.040  0.1526  0.3551  0.3351
   78MOL   C16324957   4.222   5.613   0.172 -0.1276  0.0037 -0.2658
   78MOL   O16424958   4.301   5.496   0.193  0.2589 -0.0992 -0.4143
   78MOL   C16524959   4.275   5.420   0.316  0.8574 -0.4143  0.3996
   78MOL   C16624960   4.300   5.483   0.444  0.6216 -0.1383 -0.4695
   78MOL   C16724961   4.341   5.288   0.302 -0.0604  0.4178  0.0305
   78MOL   H16824962   4.222   5.581   7.779 -0.4298  0.9782 -0.3274
   78MOL   H16924963   4.097   5.694   0.029 -1.5882 -0.5063  1.5181
   78MOL   H17024964   4.147   5.635   0.248  1.8743 -0.7069  1.9814
   78MOL   H17124965   4.171   5.387   0.323  0.8934 -0.9578 -1.5009
   78MOL   H17224966   4.282   5.424   0.534 -3.0888  0.6140 -0.6434
   78MOL   H17324967   4.243   5.575   0.453  1.3117  0.0165  2.5412
   78MOL   H17424968   4.404   5.516   0.445 -0.3555  3.1344 -0.9164
   78MOL   H17524969   4.324   5.246   0.203 -0.6605 -0.6940  0.5908
   78MOL   H17624970   4.300   5.218   0.375  0.0507  0.0231 -0.2868
   78MOL   H17724971   4.449   5.292   0.318 -0.2591 -0.9338  1.9550
   78MOL   C17824972   4.326   5.730   0.188  0.0325  0.1526 -0.1556
   78MOL   C17924973   4.270   5.874   0.169 -0.4592  0.2301  0.1404
   78MOL   O18024974   4.164   5.882   0.260  0.2072 -0.6779  0.0794
   78MOL   C18124975   4.065   5.989   0.234  0.3399  0.1146  0.3009
   78MOL   C18224976   4.015   6.042   0.372  0.3695  0.3682 -0.0661
   78MOL   C18324977   3.940   5.930   0.158  0.0944 -0.4708 -0.0192
   78MOL   H18424978   4.410   5.719   0.120  0.2015 -1.1137  0.2497
   78MOL   H18524979   4.373   5.725   0.286 -0.5156  1.3908  0.1769
   78MOL   H18624980   4.243   5.887   0.064 -0.3673  0.2340  0.1170
   78MOL   H18724981   4.104   6.069   0.171 -0.8610  0.3554 -0.1538
   78MOL   H18824982   3.999   5.964   0.447  0.6297  1.8280  1.5487
   78MOL   H18924983   3.925   6.100   0.350 -0.4682 -0.7524  0.3524
   78MOL   H19024984   4.085   6.119   0.405 -1.1259  1.6013  0.2844
   78MOL   H19124985   3.967   5.910   0.054  0.3221 -2.4812  0.4032
   78MOL   H19224986   3.855   5.999   0.157  0.1228 -0.4014  1.6834
   78MOL   H19324987   3.904   5.838   0.203 -0.2863 -0.6425 -0.6597
   78MOL   C19424988   4.382   5.974   0.205 -0.3397 -0.2375 -0.0661
   78MOL   C19524989   4.494   6.010   0.098 -0.4597  0.5290 -0.1786
   78MOL   O19624990   4.604   6.052   0.181 -0.4333  0.2529 -0.0534
   78MOL   C19724991   4.726   5.986   0.160 -0.2981 -0.2095  0.5712
   78MOL   C19824992   4.815   6.059   0.056  0.1819 -0.4456 -0.6048
   78MOL   C19924993   4.800   5.993   0.291  0.1690  0.1181  0.3612
   78MOL   H20024994   4.328   6.066   0.228 -0.0843 -0.5292  1.7956
   78MOL   H20124995   4.435   5.944   0.296 -0.3808 -1.8537 -0.5562
   78MOL   H20224996   4.514   5.922   0.037  0.3093  0.7337 -0.2292
   78MOL   H20324997   4.721   5.880   0.136  2.8846  0.1054 -1.8090
   78MOL   H20424998   4.855   6.152   0.095  0.2236 -0.8636  0.3751
   78MOL   H20524999   4.906   6.004   0.031  0.4609  0.3260 -1.2930
   78MOL   H20625000   4.765   6.065   7.779  2.1059  2.5671 -1.4707
   78MOL   H20725001   4.805   6.097   0.321  0.5524  0.3340 -0.4257
   78MOL   H20825002   4.750   5.932   0.367 -0.0563 -1.2408 -0.8438
   78MOL   H20925003   4.901   5.952   0.293  0.3290  0.5268  0.6006
   78MOL   C21025004   4.465   6.129   0.007 -0.2272  0.0070  0.0575
   78MOL   C21125005   4.354   6.117   7.721  0.0804 -0.0420 -0.6623
   78MOL   O21225006   4.336   6.248   7.659  0.1756 -0.2207  0.0983
   78MOL   C21325007   4.243   6.335   7.731 -0.6307  0.5589 -0.4097
   78MOL   C21425008   4.284   6.477   7.708 -0.0850 -0.4438 -0.1006
   78MOL   C21525009   4.105   6.305   7.689 -0.6220  0.7325  0.3662
   78MOL   H21625010   4.561   6.145   7.779 -0.2549  0.6307  0.2083
   78MOL   H21725011   4.447   6.218   0.067 -0.0134 -0.3276  0.6116
   78MOL   H21825012   4.268   6.065   7.763  0.3457  0.0440 -0.0052
   78MOL   H21925013   4.259   6.321   0.018  2.5661  0.6561 -0.8411
   78MOL   H22025014   4.220   6.553   7.753  0.1980 -1.2774  1.7656
   78MOL   H22125015   4.292   6.498   7.602  0.7217  0.4708  0.1328
   78MOL   H22225016   4.379   6.494   7.759 -0.4053 -2.1716  1.1365
   78MOL   H22325017   4.064   6.206   7.709  2.3146 -1.3429 -3.2128
   78MOL   H22425018   4.082   6.339   7.588  1.1198  1.3127  0.1546
   78MOL   H22525019   4.049   6.367   7.760 -0.0278  1.0188  0.5910
   78MOL   C22625020   4.412   6.032   7.607 -0.9989  0.1083  0.1572
   78MOL   C22725021   4.322   5.995   7.489  0.0509  0.0695  0.1852
   78MOL   O22825022   4.235   5.886   7.531  0.1175  0.7391  0.0402
   78MOL   C22925023   4.111   5.872   7.458 -0.3586  0.3799  0.1746
   78MOL   C23025024   4.001   5.969   7.516 -0.6204  0.7241  0.0348
   78MOL   C23125025   4.076   5.724   7.482 -0.8967  0.2618 -0.4395
   78MOL   H23225026   4.449   5.944   7.660  1.3237  1.5212  0.9505
   78MOL   H23325027   4.503   6.082   7.573 -1.3914  1.8699  1.6608
   78MOL   H23425028   4.256   6.079   7.467  0.0758  0.6176  2.1526
   78MOL   H23525029   4.124   5.891   7.351 -1.7029 -2.7265 -0.5782
   78MOL   H23625030   4.028   6.074   7.511  0.3642  0.4624 -0.2417
   78MOL   H23725031   3.906   5.969   7.461 -1.1759 -0.0260  0.9746
   78MOL   H23825032   3.981   5.951   7.622  2.1292 -1.4210  0.2492
   78MOL   H23925033   4.153   5.659   7.441  0.6987  2.0607 -0.4004
   78MOL   H24025034   3.978   5.698   7.443 -0.9480 -0.2666  0.0374
   78MOL   H24125035   4.069   5.709   7.590  0.5898 -1.5522 -0.5723
   78MOL   C24225036   4.396   5.951   7.358  0.2190 -0.6134 -0.2373
   78MOL   C24325037   4.478   6.066   7.289 -0.5768  0.6789  0.2632
   78MOL   O24425038   4.389   6.167   7.238 -1.0152  0.2601  0.0786
   78MOL   C24525039   4.429   6.292   7.284  0.1232  0.1530 -0.2975
   78MOL   C24625040   4.528   6.368   7.202  0.2722 -0.5845  0.0368
   78MOL   C24725041   4.301   6.380   7.299  0.3791 -0.1572 -0.1477
   78MOL   H24825042   4.450   5.860   7.385  0.1510 -0.7828 -0.6705
   78MOL   H24925043   4.319   5.917   7.289 -0.4340  0.7882 -0.2287
   78MOL   H25025044   4.565   6.097   7.347  0.3450 -1.6179  0.1300
   78MOL   H25125045   4.472   6.284   7.384 -1.7400  1.4700  0.6396
   78MOL   H25225046   4.627   6.323   7.201  0.2026 -0.7506 -1.4744
   78MOL   H25325047   4.490   6.378   7.100 -1.8755  2.3613  1.0687
   78MOL   H25425048   4.543   6.473   7.226  0.2333 -0.3532 -0.9144
   78MOL   H25525049   4.328   6.472   7.352 -1.2372 -0.9750  2.1850
   78MOL   H25625050   4.255   6.394   7.201 -1.6164 -0.4103  0.7123
   78MOL   H25725051   4.221   6.332   7.357 -1.2131 -1.0630 -3.0049
   78MOL   C25825052   4.546   5.995   7.165 -0.5554 -0.5643  0.1889
   78MOL   C25925053   4.674   5.911   7.194 -0.1751 -0.0307 -0.3092
   78MOL   O26025054   4.776   6.000   7.241 -0.2539 -0.1375 -0.5071
   78MOL   C26125055   4.868   5.933   7.335 -0.3101 -0.0808  0.5658
   78MOL   C26225056   5.010   5.980   7.308 -0.2389 -0.5352  0.7193
   78MOL   C26325057   4.800   5.972   7.473  0.0146  0.3749  0.0490
   78MOL   H26425058   4.465   5.933   7.127 -2.5551  2.7764 -1.2017
   78MOL   H26525059   4.564   6.070   7.089 -1.3879 -0.4279  0.1270
   78MOL   H26625060   4.637   5.841   7.269 -0.7281  0.4538 -0.1301
   78MOL   H26725061   4.866   5.824   7.328  0.2546 -0.0215 -0.7963
   78MOL   H26825062   5.031   6.085   7.333  2.3762 -0.7998 -0.2267
   78MOL   H26925063   5.024   5.963   7.201 -0.3935 -1.7597  0.8977
   78MOL   H27025064   5.092   5.920   7.347  0.5088 -0.0353 -0.0686
   78MOL   H27125065   4.777   6.077   7.485 -2.2388  0.0961 -1.5580
   78MOL   H27225066   4.703   5.924   7.485 -1.1216  2.5856 -0.1033
   78MOL   H27325067   4.868   5.940   7.552  1.1794  0.3458 -0.9285
   78MOL   C27425068   4.720   5.823   7.080 -0.2548 -0.0018 -0.0595
   78MOL   C27525069   4.656   5.685   7.074 -0.5377 -0.1579 -1.0278
   78MOL   O27625070   4.511   5.677   7.054  0.4601  0.0572  0.5348
   78MOL   C27725071   4.446   5.563   7.109  0.5978 -0.0548  0.4913
   78MOL   C27825072   4.347   5.514   7.003 -0.4079  0.5310  0.3745
   78MOL   C27925073   4.370   5.601   7.237  0.4743  0.6438 -0.0506
   78MOL   H28025074   4.688   5.861   6.983 -0.6624  3.7961  1.4996
   78MOL   H28125075   4.829   5.819   7.074 -0.3302 -0.2171 -1.4546
   78MOL   H28225076   4.669   5.629   7.166  0.5200 -0.2686 -1.2365
   78MOL   H28325077   4.510   5.480   7.140 -0.5793 -0.1582  2.7286
   78MOL   H28425078   4.258   5.577   6.999 -0.4014  0.4370 -1.6594
   78MOL   H28525079   4.393   5.525   6.905 -0.2701  2.1366  0.6060
   78MOL   H28625080   4.310   5.412   7.016  0.9007 -0.1024 -0.7625
   78MOL   H28725081   4.320   5.514   7.281 -1.8278  1.4405 -1.0225
   78MOL   H28825082   4.295   5.679   7.227  0.5546  0.4219 -2.5599
   78MOL   H28925083   4.436   5.633   7.318  0.1361  0.5646  0.2593
   78MOL   C29025084   4.715   5.590   6.967  0.3293 -0.2180  0.1404
   78MOL   C29125085   4.862   5.557   6.980  0.1992  0.6260  0.1935
   78MOL   O29225086   4.896   5.516   7.111 -0.1083 -0.3783  0.1176
   78MOL   C29325087   5.036   5.490   7.134 -0.0752  0.0970 -0.1662
   78MOL   C29425088   5.062   5.343   7.166 -0.9262 -0.4744 -0.2754
   78MOL   C29525089   5.075   5.566   7.259 -0.3213  0.6363  0.0372
   78MOL   H29625090   4.679   5.630   6.872  1.4898  0.9370  0.1741
   78MOL   H29725091   4.668   5.493   6.982  0.0685 -0.4413 -1.8782
   78MOL   H29825092   4.914   5.651   6.962  1.3055  0.2959  1.5354
   78MOL   H29925093   5.106   5.524   7.057  0.2514 -0.5517 -0.1653
   78MOL   H30025094   5.049   5.286   7.074  0.8524 -1.4760  0.0641
   78MOL   H30125095   5.168   5.320   7.181 -0.8055  1.2637  1.8461
   78MOL   H30225096   4.990   5.313   7.242 -0.6262 -2.9075 -0.9298
   78MOL   H30325097   5.092   5.671   7.236  0.7248  0.4871  0.1114
   78MOL   H30425098   5.002   5.565   7.341 -1.2568 -1.5070 -0.7781
   78MOL   H30525099   5.169   5.529   7.302 -0.4627 -0.5650 -0.6705
   78MOL   C30625100   4.921   5.456   6.878 -0.3164  0.3046  1.0408
   78MOL   C30725101   4.900   5.490   6.730  0.2194  0.2527  0.6541
   78MOL   O30825102   4.943   5.400   6.629 -0.0754 -0.2508 -0.3282
   78MOL   C30925103   4.893   5.265   6.619  0.6666 -0.2410 -0.0407
   78MOL   C31025104   4.739   5.267   6.620  0.1201 -0.2610  0.0112
   78MOL   C31125105   4.949   5.214   6.488  0.0452 -0.2033  0.0973
   78MOL   H31225106   4.885   5.356   6.903 -1.0769  0.2543 -0.2258
   78MOL   H31325107   5.027   5.430   6.882  0.1815  1.6685 -1.9337
   78MOL   H31425108   4.793   5.503   6.716  0.5703  2.1320 -0.4391
   78MOL   H31525109   4.931   5.212   6.706  1.6025 -1.1135 -0.9717
   78MOL   H31625110   4.694   5.310   6.709 -2.7247  0.4963 -1.7196
   78MOL   H31725111   4.705   5.163   6.617  0.3367 -0.3158 -0.9780
   78MOL   H31825112   4.700   5.308   6.527  0.1892  0.6789  0.3921
   78MOL   H31925113   4.936   5.296   6.418  0.3381 -0.1334  0.1241
   78MOL   H32025114   4.882   5.135   6.456 -1.3490  0.5323  1.1167
   78MOL   H32125115   5.053   5.183   6.484 -0.4510 -1.8262 -0.7128
   78MOL   H32225116   4.957   5.581   6.712  0.5535  0.5537  3.0963
   79MOL     C125117   0.985   1.531   3.135  0.0137 -0.2175  0.1926
   79MOL     C225118   0.934   1.503   3.279  0.1904 -0.2016 -0.6113
   79MOL     O325119   1.045   1.477   3.362 -0.0522  0.5161  0.1616
   79MOL     C425120   1.082   1.340   3.354 -0.6566  0.4934  0.6981
   79MOL     C525121   1.030   1.269   3.479 -0.1239  0.0497  0.4415
   79MOL     C625122   1.235   1.338   3.345 -0.0131 -0.0066  0.0207
   79MOL     H725123   1.049   1.618   3.130 -0.9171  0.5402  1.1740
   79MOL     H825124   1.048   1.445   3.113 -1.6090 -1.7196  1.2327
   79MOL     H925125   0.872   1.413   3.283 -0.6204  0.3940  0.4784
   79MOL    H1025126   1.042   1.293   3.265  1.0630  0.6792 -0.2083
   79MOL    H1125127   1.105   1.277   3.557 -1.1470  0.7122  1.3822
   79MOL    H1225128   0.939   1.310   3.522 -0.2095 -0.7564  1.0418
   79MOL    H1325129   1.013   1.164   3.454 -0.7820 -0.0303  1.2014
   79MOL    H1425130   1.267   1.420   3.281 -1.0205  0.4540  0.0935
   79MOL    H1525131   1.280   1.373   3.438 -2.0659 -2.3937  1.9907
   79MOL    H1625132   1.281   1.244   3.316  0.9147 -0.0112  1.4514
   79MOL    H1725133   0.909   1.535   3.058  1.2272  2.4314 -0.9196
   79MOL    C1825134   0.846   1.620   3.334 -0.6202  0.6338 -0.4763
   79MOL    C1925135   0.757   1.589   3.450 -0.0115 -0.0503  0.3642
   79MOL    O2025136   0.634   1.554   3.389  0.3657  0.5398  0.1861
   79MOL    C2125137   0.547   1.470   3.465 -0.3453 -0.3536 -0.5577
   79MOL    C2225138   0.605   1.337   3.451  0.2571  0.3039  0.3441
   79MOL    C2325139   0.404   1.490   3.411  0.2391 -0.6771  0.0010
   79MOL    H2425140   0.916   1.698   3.362  3.2349 -2.7337 -0.3031
   79MOL    H2525141   0.788   1.645   3.245  0.6669 -2.4916 -2.2841
   79MOL    H2625142   0.797   1.507   3.509  0.0058 -2.3415 -2.6595
   79MOL    H2725143   0.553   1.499   3.570 -0.3900 -0.8024 -0.4334
   79MOL    H2825144   0.714   1.342   3.443  0.2558 -0.3145 -0.0591
   79MOL    H2925145   0.575   1.253   3.513  0.0238  2.2291  2.9001
   79MOL    H3025146   0.576   1.311   3.349 -1.4916  0.7959  0.7152
   79MOL    H3125147   0.392   1.464   3.306 -0.2030 -2.0279  0.3720
   79MOL    H3225148   0.362   1.588   3.434  1.9497  0.3070 -0.9819
   79MOL    H3325149   0.341   1.422   3.468 -0.6292  0.6285  0.6221
   79MOL    C3425150   0.732   1.720   3.535 -0.1851  0.1804  0.2684
   79MOL    C3525151   0.835   1.748   3.641 -0.6497 -0.5129 -0.2440
   79MOL    O3625152   0.959   1.793   3.587  0.1727  0.6698  0.4732
   79MOL    C3725153   1.064   1.701   3.608  0.1931 -0.0191 -0.1081
   79MOL    C3825154   1.173   1.732   3.513 -0.3680  0.3382  0.0518
   79MOL    C3925155   1.115   1.722   3.755  0.1699 -0.2348 -0.1910
   79MOL    H4025156   0.637   1.706   3.586  0.7390  0.1152  2.0352
   79MOL    H4125157   0.706   1.809   3.477 -1.0066  0.1466  0.5746
   79MOL    H4225158   0.833   1.649   3.687 -1.2285 -1.1633 -1.6502
   79MOL    H4325159   1.031   1.601   3.584 -1.3904  0.7422 -1.1907
   79MOL    H4425160   1.151   1.710   3.408 -2.2030  0.1831  0.4511
   79MOL    H4525161   1.269   1.688   3.538 -0.2547  0.1020 -0.7871
   79MOL    H4625162   1.206   1.836   3.522  0.1097  0.1535  0.4136
   79MOL    H4725163   1.055   1.671   3.830 -1.7709  0.0866 -1.4864
   79MOL    H4825164   1.211   1.675   3.775 -0.4215 -0.8139  1.3234
   79MOL    H4925165   1.108   1.828   3.780  2.0710 -0.2314  0.3945
   79MOL    C5025166   0.792   1.842   3.759 -0.4938  0.0444  0.5959
   79MOL    C5125167   0.663   1.811   3.833  0.1199  0.0998  0.2583
   79MOL    O5225168   0.649   1.907   3.949  0.2043 -0.0931  0.5642
   79MOL    C5325169   0.612   2.041   3.911 -0.3963 -0.3263 -0.3612
   79MOL    C5425170   0.641   2.118   4.039 -0.1207 -0.2610  0.2906
   79MOL    C5525171   0.467   2.062   3.879  0.3238  0.4509  0.6033
   79MOL    H5625172   0.873   1.850   3.831 -0.6197 -0.8119  0.8398
   79MOL    H5725173   0.790   1.942   3.716  0.8242  0.2156  0.9208
   79MOL    H5825174   0.578   1.824   3.765  1.0823 -1.3573 -1.2579
   79MOL    H5925175   0.659   2.094   3.828  1.6492 -0.0008  0.9477
   79MOL    H6025176   0.585   2.080   4.125  1.3870 -0.5933  1.1379
   79MOL    H6125177   0.601   2.219   4.030 -1.1391 -0.9066 -3.2354
   79MOL    H6225178   0.747   2.121   4.065  0.1141 -0.6249 -0.6185
   79MOL    H6325179   0.395   2.059   3.961 -1.7134  0.7872 -1.1234
   79MOL    H6425180   0.434   1.984   3.811 -0.0553  0.0875  1.2077
   79MOL    H6525181   0.451   2.159   3.832  1.1235 -0.3810 -1.4097
   79MOL    C6625182   0.671   1.667   3.900 -0.0123 -0.0831  0.9372
   79MOL    C6725183   0.549   1.634   3.991 -0.2659  0.3677  0.4049
   79MOL    O6825184   0.589   1.541   4.089  0.2783  0.1973  0.4304
   79MOL    C6925185   0.641   1.597   4.206  0.4292 -0.4332  0.3776
   79MOL    C7025186   0.523   1.606   4.296  0.0932  0.0219  0.1546
   79MOL    C7125187   0.744   1.498   4.269  0.0432  0.2710  0.0178
   79MOL    H7225188   0.693   1.578   3.841 -1.5387  0.2855 -0.2389
   79MOL    H7325189   0.763   1.671   3.957  1.1580 -0.5841 -0.8871
   79MOL    H7425190   0.504   1.721   4.039 -0.6745  1.2153 -1.4574
   79MOL    H7525191   0.687   1.693   4.185 -1.5977  1.0007  2.3562
   79MOL    H7625192   0.427   1.630   4.250  0.7685  1.6944 -0.4107
   79MOL    H7725193   0.507   1.518   4.359 -2.1310  0.7475  0.6641
   79MOL    H7825194   0.528   1.688   4.368 -0.4887 -1.1981  1.6297
   79MOL    H7925195   0.688   1.406   4.285 -0.7163  0.5155 -1.1083
   79MOL    H8025196   0.777   1.538   4.365 -0.3698  0.1941  0.1900
   79MOL    H8125197   0.828   1.467   4.206 -1.8868 -0.5754 -2.2384
   79MOL    C8225198   0.436   1.566   3.907  0.0589  0.2031 -0.1288
   79MOL    C8325199   0.317   1.520   3.995 -0.0690  0.8038  0.0127
   79MOL    O8425200   0.198   1.546   3.923  0.3886  0.6385 -0.5783
   79MOL    C8525201   0.132   1.667   3.953 -0.8705  0.6586 -0.4450
   79MOL    C8625202   7.804   1.631   3.957 -0.1398 -0.0485 -0.1529
   79MOL    C8725203   0.161   1.779   3.843 -0.8383 -0.6905 -0.2696
   79MOL    H8825204   0.392   1.642   3.843 -0.3104 -0.3942 -0.5901
   79MOL    H8925205   0.465   1.492   3.832 -2.8486  0.1525 -1.2857
   79MOL    H9025206   0.311   1.562   4.096 -0.5109  0.5249  0.1082
   79MOL    H9125207   0.173   1.700   4.048  0.4188 -1.4751 -0.2343
   79MOL    H9225208   7.743   1.713   3.994  0.5405  1.1357 -1.6182
   79MOL    H9325209   7.777   1.592   3.859 -2.5439  1.8046 -0.2649
   79MOL    H9425210   7.796   1.550   4.030  1.7004 -0.1682 -0.0552
   79MOL    H9525211   0.266   1.803   3.860 -0.5057 -1.2958 -1.4273
   79MOL    H9625212   0.142   1.738   3.744 -2.1877 -0.6202 -0.0555
   79MOL    H9725213   0.109   1.873   3.861  1.4026  0.5925 -0.3027
   79MOL    C9825214   0.326   1.371   4.014 -0.4816  0.6048 -0.1246
   79MOL    C9925215   0.266   1.298   4.137  0.1006 -0.4470  0.1085
   79MOL   O10025216   0.333   1.173   4.145 -0.7211  0.9976  0.1263
   79MOL   C10125217   0.427   1.157   4.248 -0.5162  0.8297  0.3062
   79MOL   C10225218   0.564   1.118   4.197  0.7178  0.4997  0.9407
   79MOL   C10325219   0.368   1.038   4.326  0.1297  0.0303 -0.1245
   79MOL   H10425220   0.309   1.316   3.921  0.6980 -0.6895  0.3959
   79MOL   H10525221   0.433   1.355   4.030 -0.8719 -1.0185  1.0138
   79MOL   H10625222   0.281   1.370   4.218 -2.0445  2.2147 -1.7616
   79MOL   H10725223   0.435   1.241   4.318 -3.5294  1.1860  0.3091
   79MOL   H10825224   0.618   1.196   4.143  0.3617  0.2977  0.2980
   79MOL   H10925225   0.547   1.037   4.127  0.3422  2.1384 -0.9274
   79MOL   H11025226   0.617   1.085   4.286  1.1689 -0.4051  0.3433
   79MOL   H11125227   0.271   1.048   4.374  0.1406 -0.8653  0.1002
   79MOL   H11225228   0.429   1.008   4.411 -1.8345  0.0926  1.3242
   79MOL   H11325229   0.365   0.946   4.268 -0.6929 -0.7188  1.0780
   79MOL   C11425230   0.111   1.293   4.134 -0.3110 -0.2057  0.4891
   79MOL   C11525231   0.046   1.187   4.038  0.0120  0.6150 -0.3882
   79MOL   O11625232   7.741   1.148   4.088  0.0711 -0.3086 -0.5228
   79MOL   C11725233   7.731   1.044   4.187 -0.5506  0.8388  0.5879
   79MOL   C11825234   7.768   0.904   4.121  0.3756 -0.0306  0.6913
   79MOL   C11925235   7.589   1.042   4.231 -0.3471  0.1018  0.3808
   79MOL   H12025236   0.066   1.391   4.116  1.0103  0.0296 -1.8156
   79MOL   H12125237   0.090   1.266   4.237  1.3717 -1.7996  0.4520
   79MOL   H12225238   0.119   1.106   4.041 -0.1939  0.4885  2.5619
   79MOL   H12325239   7.803   1.065   4.266  0.8819 -1.0351 -0.1791
   79MOL   H12425240   0.054   0.898   4.102  0.4530 -2.3572  1.6276
   79MOL   H12525241   7.704   0.888   4.034  0.4791  0.7281  0.4756
   79MOL   H12625242   7.750   0.832   4.201  3.4809  0.0794  1.5517
   79MOL   H12725243   7.563   0.961   4.299 -2.2832 -0.3403 -0.8190
   79MOL   H12825244   7.524   1.034   4.143 -2.0888 -0.7891  1.7184
   79MOL   H12925245   7.555   1.127   4.290  1.1443 -0.0739  1.4945
   79MOL   C13025246   0.021   1.214   3.890  0.6802 -0.0300  0.5454
   79MOL   C13125247   0.013   1.084   3.795  0.4507  0.7326  0.0404
   79MOL   O13225248   0.153   1.052   3.764  0.1918  0.4560  0.7615
   79MOL   C13325249   0.207   0.922   3.784 -0.4039 -0.6406  0.3839
   79MOL   C13425250   0.125   0.817   3.710  0.6514 -0.0729 -0.1514
   79MOL   C13525251   0.348   0.923   3.733 -0.7012  0.1141  0.5752
   79MOL   H13625252   0.092   1.281   3.842  0.9739 -1.7583 -1.4865
   79MOL   H13725253   7.750   1.274   3.883 -0.0541 -0.9636  1.7490
   79MOL   H13825254   7.794   1.007   3.862  0.6954  1.4330  0.9939
   79MOL   H13925255   0.209   0.915   3.893 -0.1886 -1.2598  0.3405
   79MOL   H14025256   0.020   0.816   3.739  0.1750 -1.7341 -1.8535
   79MOL   H14125257   0.158   0.716   3.735 -0.8667 -0.6513 -0.4765
   79MOL   H14225258   0.134   0.836   3.603  2.2685 -0.2916 -0.0783
   79MOL   H14325259   0.410   1.001   3.779  0.8349 -0.9037  0.2850
   79MOL   H14425260   0.384   0.825   3.764 -0.1793 -0.2953 -1.2921
   79MOL   H14525261   0.367   0.935   3.626 -0.7771 -0.4749  0.4983
   79MOL   C14625262   7.743   1.086   3.677 -0.4972 -0.8334 -0.4142
   79MOL   C14725263   7.775   1.180   3.559 -0.1817  0.7163 -0.3242
   79MOL   O14825264   0.022   1.101   3.464  0.3720 -0.1744  0.8124
   79MOL   C14925265   0.116   1.167   3.383  0.6833 -0.2343  0.2012
   79MOL   C15025266   0.089   1.126   3.233 -0.6523  0.1812 -0.1406
   79MOL   C15125267   0.256   1.130   3.425  0.1752 -0.3838 -0.2469
   79MOL   H15225268   7.641   1.099   3.713 -0.0576 -1.1199  0.9634
   79MOL   H15325269   7.732   0.988   3.631 -1.0141 -1.7460  1.5820
   79MOL   H15425270   0.021   1.257   3.597 -1.1274  0.3973  2.0920
   79MOL   H15525271   0.098   1.274   3.382 -0.7977 -0.4643  0.1590
   79MOL   H15625272   0.114   1.022   3.212 -1.6116 -0.6758  2.6432
   79MOL   H15725273   0.123   1.195   3.157 -2.3759 -1.2467 -2.2770
   79MOL   H15825274   7.802   1.127   3.215 -1.0175  1.9442  1.9447
   79MOL   H15925275   0.259   1.024   3.401  0.2332 -0.7910  1.5004
   79MOL   H16025276   0.261   1.153   3.531 -2.0152 -2.5087  0.3643
   79MOL   H16125277   0.332   1.190   3.376  1.5452 -0.3777  1.8206
   79MOL   C16225278   7.642   1.244   3.492 -0.2899 -0.0670 -0.1565
   79MOL   C16325279   7.587   1.369   3.572  0.0325 -0.9981 -0.3467
   79MOL   O16425280   7.568   1.329   3.707 -0.2727 -0.5424 -0.1100
   79MOL   C16525281   7.436   1.352   3.757  0.2066 -0.7443  1.0877
   79MOL   C16625282   7.442   1.427   3.887 -0.4474  0.4811 -0.3530
   79MOL   C16725283   7.386   1.211   3.778 -0.0572 -0.7474  0.2539
   79MOL   H16825284   7.665   1.266   3.387 -1.4317 -1.1741 -0.6412
   79MOL   H16925285   7.562   1.171   3.491 -0.4459  0.0518  2.1204
   79MOL   H17025286   7.490   1.382   3.523 -0.1322 -0.5630  0.0944
   79MOL   H17125287   7.376   1.406   3.683  0.8055  0.6360  1.5945
   79MOL   H17225288   7.340   1.428   3.928 -1.6144  1.1618 -3.1608
   79MOL   H17325289   7.485   1.525   3.866 -0.6656  0.5837 -0.3267
   79MOL   H17425290   7.509   1.380   3.959  0.1168  0.6498 -0.7737
   79MOL   H17525291   7.445   1.157   3.852 -2.7238 -2.0021  1.5192
   79MOL   H17625292   7.401   1.155   3.686  0.3545  1.3896 -1.0169
   79MOL   H17725293   7.284   1.201   3.814  1.1291 -0.9824  3.7636
   79MOL   C17825294   7.667   1.499   3.567 -0.3452  0.0359 -0.0643
   79MOL   C17925295   7.700   1.567   3.433 -0.5394 -0.4629 -0.3282
   79MOL   O18025296   7.572   1.613   3.385 -0.1048  0.3606 -0.4105
   79MOL   C18125297   7.548   1.604   3.241  0.0423  0.4103 -0.4656
   79MOL   C18225298   7.483   1.727   3.186 -0.1120 -0.1070  0.4354
   79MOL   C18325299   7.472   1.476   3.215  0.6617 -0.3590 -0.6128
   79MOL   H18425300   7.763   1.477   3.614 -0.2473  2.2100  0.7949
   79MOL   H18525301   7.627   1.567   3.641 -1.1744 -0.6121  0.0917
   79MOL   H18625302   7.736   1.487   3.369 -1.4254  0.1180 -1.5801
   79MOL   H18725303   7.642   1.597   3.187  1.6957  0.4151  2.3372
   79MOL   H18825304   7.464   1.723   3.079  0.2801  0.8933  0.3216
   79MOL   H18925305   7.532   1.825   3.189  0.2078 -0.1905 -1.3011
   79MOL   H19025306   7.381   1.737   3.225 -0.0300 -1.2556  0.9373
   79MOL   H19125307   7.418   1.487   3.121  0.2219  0.0836 -0.3041
   79MOL   H19225308   7.404   1.444   3.294  2.3775 -2.5865  0.0267
   79MOL   H19325309   7.542   1.392   3.205 -1.1301 -2.1394  1.5071
   79MOL   C19425310   7.803   1.678   3.455  0.3933  0.7242 -0.1729
   79MOL   C19525311   0.034   1.744   3.325  0.0604  0.2182 -0.2638
   79MOL   O19625312   0.104   1.637   3.271  0.2800 -0.3886 -0.3141
   79MOL   C19725313   0.145   1.639   3.133  0.5568  0.6600  0.6229
   79MOL   C19825314   0.284   1.703   3.104 -0.6773 -0.8305 -0.2037
   79MOL   C19925315   0.118   1.503   3.064 -0.4282  0.0772 -0.6215
   79MOL   H20025316   7.750   1.744   3.523  0.5925 -0.7863  1.4968
   79MOL   H20125317   0.063   1.633   3.513  0.6323  0.8952 -0.3709
   79MOL   H20225318   7.764   1.770   3.271  0.3079  1.1934 -0.2153
   79MOL   H20325319   0.076   1.704   3.079  1.2502  1.7100  0.9870
   79MOL   H20425320   0.289   1.811   3.122 -0.5005 -1.0574  1.0909
   79MOL   H20525321   0.369   1.664   3.159  0.3056  2.1200  0.4626
   79MOL   H20625322   0.305   1.700   2.997  0.5745 -0.2542  0.0250
   79MOL   H20725323   0.141   1.522   2.960 -0.9836 -3.4786 -1.4663
   79MOL   H20825324   0.194   1.432   3.099 -1.0285  0.8717  2.4702
   79MOL   H20925325   0.020   1.454   3.065 -0.7184  0.6634 -0.0282
   79MOL   C21025326   0.113   1.875   3.333  0.0756 -0.3668 -0.4402
   79MOL   C21125327   0.043   1.991   3.418 -0.3517 -0.0747 -0.0334
   79MOL   O21225328   0.139   2.094   3.423 -0.4887  0.9924 -0.2115
   79MOL   C21325329   0.232   2.100   3.526 -0.0527  0.1603 -0.2766
   79MOL   C21425330   0.323   2.216   3.487  0.1202  0.7271  0.0662
   79MOL   C21525331   0.185   2.129   3.664  0.0526 -0.0793 -0.8922
   79MOL   H21625332   0.123   1.907   3.229 -1.3660  2.1612  0.1560
   79MOL   H21725333   0.214   1.857   3.369 -0.3879  0.1539  1.1710
   79MOL   H21825334   0.018   1.954   3.517  0.9241 -1.9229 -0.3852
   79MOL   H21925335   0.290   2.008   3.531  0.5768  0.5667 -0.0340
   79MOL   H22025336   0.275   2.313   3.480  2.2526  1.6417 -2.5663
   79MOL   H22125337   0.364   2.202   3.387  0.1085  3.1221 -0.3027
   79MOL   H22225338   0.399   2.223   3.565  0.5545  0.6395 -0.3471
   79MOL   H22325339   0.117   2.047   3.683 -1.5829  1.3615 -0.4028
   79MOL   H22425340   0.136   2.226   3.675  0.2475  0.0092 -0.7782
   79MOL   H22525341   0.269   2.137   3.734 -0.2630 -0.6544 -0.4484
   79MOL   C22625342   7.731   2.052   3.363 -0.6763  0.2318  0.3002
   79MOL   C22725343   7.628   2.090   3.467 -0.0118 -0.3471  0.0122
   79MOL   O22825344   7.575   1.969   3.514  1.0026  0.4273 -0.1142
   79MOL   C22925345   7.510   1.976   3.643  0.2129  0.9617  0.6922
   79MOL   C23025346   7.631   1.944   3.756 -0.0347 -0.3854  0.2658
   79MOL   C23125347   7.408   1.862   3.650  0.3561 -0.6905 -0.8683
   79MOL   H23225348   7.680   1.979   3.300  0.2775  1.7685 -2.3079
   79MOL   H23325349   7.752   2.139   3.301  1.6335  0.9033  1.9425
   79MOL   H23425350   7.689   2.138   3.544  1.0846 -0.1781 -0.9593
   79MOL   H23525351   7.465   2.073   3.663  0.2024  0.8312  1.3235
   79MOL   H23625352   7.661   1.840   3.751 -0.4361 -0.4652 -0.6733
   79MOL   H23725353   7.715   2.009   3.731 -0.3285 -0.8449 -2.0400
   79MOL   H23825354   7.593   1.964   3.856 -1.7593 -0.6045 -0.3216
   79MOL   H23925355   7.344   1.896   3.731 -0.6418  0.6493 -2.1951
   79MOL   H24025356   7.461   1.769   3.672  1.7864 -0.3202 -2.5632
   79MOL   H24125357   7.342   1.836   3.567  0.7150 -1.5048 -0.9084
   79MOL   C24225358   7.520   2.187   3.422  0.4030 -0.1260  0.1589
   79MOL   C24325359   7.553   2.342   3.399 -0.6846  0.2099 -0.4782
   79MOL   O24425360   7.607   2.389   3.522  0.3388  0.4348  0.0945
   79MOL   C24525361   7.669   2.520   3.524  0.3071  0.5638 -0.0063
   79MOL   C24625362   7.712   2.561   3.663 -0.8328 -0.4615 -0.1861
   79MOL   C24725363   7.785   2.530   3.426  0.5800  0.1172 -0.3776
   79MOL   H24825364   7.491   2.150   3.324  0.8846 -0.8915  0.3076
   79MOL   H24925365   7.432   2.199   3.485 -0.3017 -1.0693 -0.6366
   79MOL   H25025366   7.627   2.340   3.320  0.4785 -0.7629  0.6042
   79MOL   H25125367   7.593   2.592   3.495 -0.1614  0.1841  0.2605
   79MOL   H25225368   7.751   2.662   3.654  2.1928 -1.5242  0.3868
   79MOL   H25325369   7.623   2.556   3.727 -1.5417  2.3404 -0.8885
   79MOL   H25425370   7.781   2.494   3.713 -1.1877  2.0473  3.8340
   79MOL   H25525371   7.760   2.549   3.322  0.1575 -0.6151 -0.4081
   79MOL   H25625372   0.031   2.611   3.457  0.7605  0.0839 -0.6808
   79MOL   H25725373   0.013   2.433   3.417  2.6047  1.1060 -0.3071
   79MOL   C25825374   7.426   2.419   3.360  1.1807 -0.0092  1.4415
   79MOL   C25925375   7.361   2.370   3.221 -0.9001  0.2390 -0.6478
   79MOL   O26025376   7.455   2.409   3.124  0.5041 -0.1343  0.3491
   79MOL   C26125377   7.468   2.321   3.012 -0.7077 -0.1239 -0.0008
   79MOL   C26225378   7.549   2.396   2.909  0.1959  0.2415  0.2695
   79MOL   C26325379   7.537   2.195   3.043  0.1059  0.2899  0.3779
   79MOL   H26425380   7.354   2.401   3.440 -2.2183  2.5475 -0.8863
   79MOL   H26525381   7.435   2.527   3.360 -1.4552  0.3183 -2.9083
   79MOL   H26625382   7.349   2.261   3.224 -0.6768  0.2269 -0.1629
   79MOL   H26725383   7.376   2.290   2.962  0.0303  0.3254 -1.6595
   79MOL   H26825384   7.600   2.341   2.830 -0.8153 -0.5345  0.1461
   79MOL   H26925385   7.633   2.450   2.951  0.8072  0.1556 -0.8237
   79MOL   H27025386   7.487   2.474   2.866 -1.3797 -0.6076  0.9496
   79MOL   H27125387   7.630   2.216   3.095 -0.8831  3.2015  1.0329
   79MOL   H27225388   7.473   2.126   3.098  1.3391 -0.5952  0.7270
   79MOL   H27325389   7.561   2.137   2.953 -0.0856 -0.5036  0.8323
   79MOL   C27425390   7.223   2.431   3.219  0.3535 -0.3367 -0.4410
   79MOL   C27525391   7.135   2.371   3.109 -0.0749 -0.1950 -0.3464
   79MOL   O27625392   7.089   2.243   3.153  0.0869  0.5890 -0.1220
   79MOL   C27725393   7.051   2.150   3.046  0.4820 -0.0051 -0.4245
   79MOL   C27825394   6.925   2.072   3.097  0.2945  0.7908  0.4497
   79MOL   C27925395   7.165   2.058   3.020  0.2392  0.0909  0.0805
   79MOL   H28025396   7.178   2.410   3.316  2.4215  2.1583  1.1209
   79MOL   H28125397   7.246   2.536   3.199  0.1665 -0.0822  0.6233
   79MOL   H28225398   7.200   2.377   3.021 -1.2205 -1.2827 -1.2859
   79MOL   H28325399   7.019   2.212   2.962 -0.6083 -1.0672 -0.7937
   79MOL   H28425400   6.940   2.011   3.186 -1.8795 -0.9681 -0.3517
   79MOL   H28525401   6.853   2.152   3.116  0.1337  0.5042  1.0651
   79MOL   H28625402   6.887   1.991   3.036 -0.7536  0.0041  2.1117
   79MOL   H28725403   7.264   2.102   3.031 -0.1321 -0.1250  6.0521
   79MOL   H28825404   7.157   2.027   2.916 -1.6672 -3.1913  1.1290
   79MOL   H28925405   7.166   1.966   3.078  1.9345 -0.4793 -0.8561
   79MOL   C29025406   7.015   2.467   3.073  0.0660  0.0573  0.2554
   79MOL   C29125407   7.038   2.582   2.978 -0.1287 -0.1015  0.3529
   79MOL   O29225408   6.942   2.689   3.012  0.0332  0.3895  0.5486
   79MOL   C29325409   6.807   2.670   2.960 -0.0491 -0.1992  0.3254
   79MOL   C29425410   6.766   2.800   2.893 -0.7510  0.3382 -0.4662
   79MOL   C29525411   6.700   2.614   3.049  0.2789 -0.3392  0.2149
   79MOL   H29625412   6.967   2.496   3.166  0.1315 -0.9223  0.6056
   79MOL   H29725413   6.941   2.399   3.030 -1.0521  0.3454  1.6992
   79MOL   H29825414   7.025   2.550   2.875  0.7270  1.1599 -0.1678
   79MOL   H29925415   6.812   2.589   2.887 -0.7496 -0.3995  0.4911
   79MOL   H30025416   6.660   2.798   2.867 -1.5948 -2.0635  2.8447
   79MOL   H30125417   6.774   2.890   2.954  0.9165  0.9289 -1.5149
   79MOL   H30225418   6.830   2.818   2.806 -0.1033  0.2470 -0.0133
   79MOL   H30325419   6.738   2.523   3.095  2.3503  1.0890  1.4171
   79MOL   H30425420   6.674   2.680   3.132  3.0663 -0.3403  1.1444
   79MOL   H30525421   6.607   2.590   2.998 -0.4224  2.0244  0.3351
   79MOL   C30625422   7.175   2.664   2.980 -0.0982 -0.4354  0.1755
   79MOL   C30725423   7.190   2.770   2.875 -0.3821  0.0904  0.2882
   79MOL   O30825424   7.191   2.717   2.740  0.0439  0.1101  0.7687
   79MOL   C30925425   7.156   2.811   2.643 -0.1893 -0.3943 -0.2964
   79MOL   C31025426   7.277   2.879   2.579 -0.9333  0.4690 -0.2767
   79MOL   C31125427   7.071   2.734   2.537  0.5580 -0.4369  0.7079
   79MOL   H31225428   7.257   2.595   2.957 -0.6748 -0.6871 -1.1403
   79MOL   H31325429   7.199   2.715   3.074  2.8314 -3.6065  1.2510
   79MOL   H31425430   7.099   2.829   2.885  0.8954  2.2705 -0.6092
   79MOL   H31525431   7.089   2.890   2.679  0.5442  0.2191 -0.2660
   79MOL   H31625432   7.351   2.925   2.644 -1.7110 -0.0524  0.9860
   79MOL   H31725433   7.253   2.953   2.503  4.2144  3.1923  0.5651
   79MOL   H31825434   7.341   2.803   2.534 -0.5890  0.6666 -0.1194
   79MOL   H31925435   7.051   2.796   2.450  0.3122  0.1688  1.1955
   79MOL   H32025436   6.981   2.681   2.569  0.9305 -1.0494  0.7350
   79MOL   H32125437   7.132   2.654   2.495  1.6466  0.4686  0.5390
   79MOL   H32225438   7.279   2.832   2.881  0.1124 -0.4083 -1.6762
   80MOL     C125439   4.616   2.693   0.182  0.1699  0.0687 -0.2748
   80MOL     C225440   4.503   2.760   0.274  0.7344  0.0890 -0.2156
   80MOL     O325441   4.564   2.858   0.355 -0.4804 -0.1783  0.4973
   80MOL     C425442   4.629   2.810   0.466 -0.3356  0.0484 -0.2505
   80MOL     C525443   4.542   2.854   0.595  0.2126  0.2736 -0.6140
   80MOL     C625444   4.771   2.880   0.477 -0.0752  0.9075  0.2711
   80MOL     H725445   4.580   2.599   0.139 -2.2823  0.1059  1.5787
   80MOL     H825446   4.672   2.754   0.111 -0.0661  0.3514 -0.2161
   80MOL     H925447   4.451   2.690   0.341  0.6849 -1.6277 -2.0073
   80MOL    H1025448   4.641   2.702   0.473 -2.4712 -0.1342  0.6896
   80MOL    H1125449   4.439   2.839   0.563  0.1691  0.4994 -0.5860
   80MOL    H1225450   4.551   2.785   0.679 -0.5269 -0.1794 -0.9007
   80MOL    H1325451   4.555   2.953   0.639 -1.3104 -0.3814  1.4018
   80MOL    H1425452   4.763   2.988   0.489  0.5930  1.1559 -1.3276
   80MOL    H1525453   4.828   2.827   0.552 -1.3770 -0.5194  0.2687
   80MOL    H1625454   4.818   2.872   0.379 -1.6735  0.8776 -0.5077
   80MOL    H1725455   4.689   2.649   0.250 -0.9144 -1.5368 -0.1028
   80MOL    C1825456   4.390   2.831   0.190  0.4471  0.1984  0.3760
   80MOL    C1925457   4.310   2.735   0.107 -0.4010 -0.0374  0.2151
   80MOL    O2025458   4.314   2.791   7.795 -0.2796 -0.6288 -0.5286
   80MOL    C2125459   4.319   2.695   7.689  0.1732  0.2998 -0.3068
   80MOL    C2225460   4.459   2.630   7.683 -0.0434 -0.0901 -0.0189
   80MOL    C2325461   4.299   2.781   7.563  0.3368 -0.4852  0.3143
   80MOL    H2425462   4.322   2.893   0.248  0.0649 -0.3561  0.5216
   80MOL    H2525463   4.447   2.894   0.122 -2.4561  1.9957 -0.4590
   80MOL    H2625464   4.346   2.633   0.120  0.7017  0.1572 -1.1442
   80MOL    H2725465   4.239   2.622   7.700 -0.3417  0.6104 -1.8828
   80MOL    H2825466   4.476   2.567   7.770  2.5859 -0.2541 -0.6050
   80MOL    H2925467   4.471   2.564   7.597  1.9117  0.1973  0.0076
   80MOL    H3025468   4.540   2.700   7.664  0.1365 -0.3870 -0.3590
   80MOL    H3125469   4.277   2.713   7.481 -0.5812 -0.1997  0.3263
   80MOL    H3225470   4.394   2.830   7.541  1.0999 -2.6081 -1.2357
   80MOL    H3325471   4.220   2.855   7.558  0.7092 -0.1431 -0.5770
   80MOL    C3425472   4.162   2.725   0.142  0.1323 -0.3948 -0.2826
   80MOL    C3525473   4.114   2.626   0.257 -0.2492 -0.7138 -0.4581
   80MOL    O3625474   3.977   2.640   0.295  0.3286  0.2701 -0.2694
   80MOL    C3725475   3.959   2.747   0.394  0.1285  0.1939 -0.5534
   80MOL    C3825476   3.813   2.799   0.365  0.7537 -0.2644 -0.3938
   80MOL    C3925477   3.981   2.675   0.534 -0.2874  0.1507  0.4855
   80MOL    H4025478   4.098   2.706   0.055  0.5233  0.6377 -0.8049
   80MOL    H4125479   4.121   2.816   0.185 -0.7413 -0.5315 -0.8018
   80MOL    H4225480   4.181   2.653   0.338 -0.8206 -1.3343  0.2328
   80MOL    H4325481   4.036   2.824   0.393 -0.3008  0.6295 -0.3503
   80MOL    H4425482   3.786   2.884   0.428 -1.1201  0.4458 -2.0821
   80MOL    H4525483   3.743   2.718   0.383 -0.2971  1.3131  3.0744
   80MOL    H4625484   3.821   2.828   0.260 -0.2852  1.9339  0.1078
   80MOL    H4725485   3.950   2.755   0.601  0.6456  2.4594 -1.7532
   80MOL    H4825486   3.923   2.584   0.552 -2.1944  1.4736  1.2002
   80MOL    H4925487   4.084   2.645   0.553 -0.1520  0.6724  0.5752
   80MOL    C5025488   4.127   2.479   0.214 -0.4532 -0.2832 -0.1762
   80MOL    C5125489   4.132   2.376   0.328 -0.0172  0.0046  0.0614
   80MOL    O5225490   4.243   2.405   0.414 -0.1294  0.0385 -0.4297
   80MOL    C5325491   4.271   2.331   0.533  0.0484 -0.0511  0.1603
   80MOL    C5425492   4.161   2.319   0.634  0.4251 -0.2651  0.0706
   80MOL    C5525493   4.399   2.392   0.599  0.6131  0.5396  0.3110
   80MOL    H5625494   4.043   2.453   0.150 -0.5046 -0.3438 -0.0832
   80MOL    H5725495   4.216   2.469   0.151 -0.3582  0.7038 -0.2122
   80MOL    H5825496   4.051   2.390   0.400  2.0912 -0.0118  2.5214
   80MOL    H5925497   4.306   2.231   0.508 -1.4402  0.3874 -4.0863
   80MOL    H6025498   4.083   2.250   0.604  1.2003 -1.6155  1.1064
   80MOL    H6125499   4.118   2.418   0.650  0.2627 -0.2604 -0.3981
   80MOL    H6225500   4.197   2.274   0.727 -0.0193 -0.5354  0.1121
   80MOL    H6325501   4.384   2.493   0.636  1.3507  1.3400 -1.4935
   80MOL    H6425502   4.489   2.383   0.538  1.9054  3.8890  1.6704
   80MOL    H6525503   4.426   2.326   0.682 -2.6933 -0.0744  0.9752
   80MOL    C6625504   4.123   2.224   0.285  0.3633  0.1456 -0.0306
   80MOL    C6725505   3.995   2.171   0.223  0.2685 -0.3681 -0.4126
   80MOL    O6825506   3.891   2.188   0.328 -0.2328 -0.1468 -0.4084
   80MOL    C6925507   3.796   2.292   0.298  0.1342  0.4609 -0.4305
   80MOL    C7025508   3.693   2.252   0.194 -0.4253 -0.3385 -0.3770
   80MOL    C7125509   3.722   2.338   0.423 -0.0795 -1.1986  0.4423
   80MOL    H7225510   4.199   2.211   0.208 -0.7682 -0.3259 -1.0842
   80MOL    H7325511   4.155   2.162   0.369 -0.3888  0.5803  0.5894
   80MOL    H7425512   3.972   2.228   0.134 -1.8357 -0.4020  0.0725
   80MOL    H7525513   3.840   2.388   0.269 -2.6745  1.9517  0.0308
   80MOL    H7625514   3.618   2.328   0.171 -0.0751 -0.2327 -1.1852
   80MOL    H7725515   3.749   2.232   0.103 -0.3921 -1.3724 -0.1403
   80MOL    H7825516   3.652   2.161   0.238 -0.0488 -0.0501  0.5906
   80MOL    H7925517   3.671   2.254   0.470 -1.5016  0.7015  2.4063
   80MOL    H8025518   3.659   2.424   0.400  2.3512  0.8277  1.2118
   80MOL    H8125519   3.802   2.366   0.492  0.3401 -0.9932 -0.1239
   80MOL    C8225520   4.010   2.024   0.176  0.9217  0.1076 -0.5920
   80MOL    C8325521   3.883   1.972   0.102 -0.3276  0.1303  0.1916
   80MOL    O8425522   3.938   1.879   7.818 -0.5277 -0.4294  0.1862
   80MOL    C8525523   3.947   1.925   7.681  0.0716  0.6187  0.6001
   80MOL    C8625524   3.916   1.804   7.598  0.8717  0.5774 -0.0778
   80MOL    C8725525   4.076   1.992   7.648  0.5349  0.0605 -0.1123
   80MOL    H8825526   4.102   2.004   0.122  1.6155  1.6260 -0.0230
   80MOL    H8925527   4.020   1.970   0.270  0.0697 -0.0999 -0.6180
   80MOL    H9025528   3.832   2.057   0.058  1.6562 -0.8813 -4.2520
   80MOL    H9125529   3.872   2.002   7.661  0.1677  0.2992 -1.0413
   80MOL    H9225530   3.896   1.827   7.493  2.7906 -2.3892 -1.1640
   80MOL    H9325531   3.990   1.726   7.617  0.6506  0.8014  1.8380
   80MOL    H9425532   3.829   1.756   7.641  0.5519  1.2277  0.0148
   80MOL    H9525533   4.092   2.078   7.712 -2.3631 -1.7300  3.1809
   80MOL    H9625534   4.152   1.920   7.680 -0.1012 -1.1364 -1.2295
   80MOL    H9725535   4.086   2.019   7.543 -0.7923  1.6438  0.1655
   80MOL    C9825536   3.794   1.898   0.205 -0.4394 -0.0710  0.3558
   80MOL    C9925537   3.666   1.839   0.153  0.1393  0.0826  0.1980
   80MOL   O10025538   3.578   1.944   0.105  0.1511 -0.1049 -0.2180
   80MOL   C10125539   3.536   1.935   7.791 -0.2036 -0.0969 -0.3107
   80MOL   C10225540   3.501   2.070   7.740  0.3832 -0.3663  0.5297
   80MOL   C10325541   3.431   1.826   7.780 -0.1088  0.2847  0.5879
   80MOL   H10425542   3.850   1.823   0.260 -1.0336 -0.2220  0.7651
   80MOL   H10525543   3.761   1.976   0.274 -1.0983 -1.3619  1.5314
   80MOL   H10625544   3.690   1.759   0.083  1.0524 -2.2767  3.0650
   80MOL   H10725545   3.619   1.914   7.724 -1.3750 -1.1379 -1.4676
   80MOL   H10825546   3.403   2.100   7.778 -0.6857 -1.9634 -0.8828
   80MOL   H10925547   3.493   2.079   7.632  2.5113 -3.7221  0.0298
   80MOL   H11025548   3.580   2.142   7.762  2.1857 -1.9372 -0.7149
   80MOL   H11125549   3.458   1.730   0.002  0.7847  0.5101  0.5382
   80MOL   H11225550   3.404   1.797   7.678  1.2413 -0.4989  0.4353
   80MOL   H11325551   3.344   1.870   0.008  0.1421  1.0560  0.3518
   80MOL   C11425552   3.593   1.781   0.280 -0.1295 -0.2083  0.5500
   80MOL   C11525553   3.661   1.665   0.365  1.0933  0.1130  0.1790
   80MOL   O11625554   3.578   1.641   0.472  0.5333  0.1483  0.1524
   80MOL   C11725555   3.591   1.728   0.589 -0.0344  0.1701  0.0347
   80MOL   C11825556   3.599   1.639   0.718 -0.7133 -0.5161 -0.7531
   80MOL   C11925557   3.468   1.813   0.605  0.2478 -0.6124 -0.0730
   80MOL   H12025558   3.503   1.738   0.236 -0.2150 -0.9639  1.4465
   80MOL   H12125559   3.569   1.870   0.338  0.8978 -0.3935  1.2634
   80MOL   H12225560   3.759   1.694   0.404  0.6818  0.0104  1.3302
   80MOL   H12325561   3.681   1.789   0.585 -1.6863  2.5312 -2.1490
   80MOL   H12425562   3.690   1.580   0.707  0.7541  1.4343  0.4963
   80MOL   H12525563   3.520   1.566   0.732 -0.2312 -0.5866  1.9165
   80MOL   H12625564   3.602   1.697   0.810  1.0835 -1.4742 -0.1807
   80MOL   H12725565   3.385   1.753   0.642 -3.3506  3.6610 -0.8043
   80MOL   H12825566   3.435   1.853   0.509 -1.2970 -2.7357 -0.4720
   80MOL   H12925567   3.487   1.896   0.674  0.1645 -0.3757 -0.3313
   80MOL   C13025568   3.685   1.532   0.293  0.2411 -0.0964  0.5522
   80MOL   C13125569   3.763   1.428   0.374  0.3271  0.4690 -0.2926
   80MOL   O13225570   3.903   1.449   0.376 -0.4860 -0.7120 -0.4559
   80MOL   C13325571   3.980   1.442   0.502  0.2129  0.1506 -0.2372
   80MOL   C13425572   4.116   1.389   0.460 -0.5214 -0.3364  0.1903
   80MOL   C13525573   3.979   1.584   0.561  0.5680  0.5713 -0.3354
   80MOL   H13625574   3.718   1.558   0.192 -2.3009 -1.0185 -0.5595
   80MOL   H13725575   3.588   1.484   0.279 -0.9651  2.0519  1.1627
   80MOL   H13825576   3.734   1.429   0.479 -1.4932 -0.6081 -0.7689
   80MOL   H13925577   3.928   1.385   0.579 -0.8219  0.6162 -0.5804
   80MOL   H14025578   4.096   1.287   0.424 -2.3163 -0.3861  1.2510
   80MOL   H14125579   4.187   1.393   0.543  0.3274  0.1951 -0.5496
   80MOL   H14225580   4.160   1.445   0.378 -0.5496 -0.7071 -0.0829
   80MOL   H14325581   3.976   1.657   0.480  1.1577  0.9034 -0.0540
   80MOL   H14425582   3.884   1.592   0.615  0.6889  0.4972 -0.1136
   80MOL   H14525583   4.066   1.589   0.626 -0.2749 -3.7368  1.2805
   80MOL   C14625584   3.759   1.281   0.318  0.3815  0.4040 -0.3911
   80MOL   C14725585   3.632   1.199   0.335 -0.3511  0.3134  0.4290
   80MOL   O14825586   3.650   1.077   0.268  0.0280 -0.2911 -0.5428
   80MOL   C14925587   3.552   1.048   0.168  0.4448  0.2684 -0.2980
   80MOL   C15025588   3.568   0.899   0.125 -0.0042  0.0782  0.2134
   80MOL   C15125589   3.562   1.141   0.039  0.5384  0.3286  0.6384
   80MOL   H15225590   3.842   1.229   0.366  0.1784 -0.0926 -0.5741
   80MOL   H15325591   3.790   1.283   0.213 -1.4877  0.3781 -0.9562
   80MOL   H15425592   3.553   1.247   0.276 -0.7512  1.9892  2.2562
   80MOL   H15525593   3.451   1.045   0.211  0.5906 -1.5957 -0.0097
   80MOL   H15625594   3.546   0.842   0.215 -1.5903  0.3256 -0.0085
   80MOL   H15725595   3.664   0.872   0.080  0.8746  1.8656  0.9609
   80MOL   H15825596   3.497   0.869   0.049  0.7817 -0.8642 -0.1613
   80MOL   H15925597   3.570   1.247   0.061 -0.3464  0.5343 -0.0205
   80MOL   H16025598   3.473   1.133   7.798  1.1297 -1.5873 -0.0281
   80MOL   H16125599   3.643   1.105   7.795  1.3045 -0.6935  2.1454
   80MOL   C16225600   3.580   1.180   0.483  0.3030  0.4830 -0.3583
   80MOL   C16325601   3.664   1.091   0.573 -0.8739 -0.0524  0.1786
   80MOL   O16425602   3.644   1.117   0.706 -0.6564  0.2211  0.0748
   80MOL   C16525603   3.728   1.205   0.778 -0.0050 -0.6640  0.0139
   80MOL   C16625604   3.820   1.129   0.871  0.2854  0.2456 -0.9131
   80MOL   C16725605   3.637   1.307   0.864 -0.6122  0.4513  0.5571
   80MOL   H16825606   3.571   1.282   0.520 -2.9157  1.1333 -2.6972
   80MOL   H16925607   3.484   1.130   0.470  1.2286 -1.1397 -1.0421
   80MOL   H17025608   3.767   1.114   0.544 -0.8539 -0.4639 -0.0941
   80MOL   H17125609   3.775   1.277   0.711 -1.8696  0.3594 -0.2367
   80MOL   H17225610   3.887   1.195   0.926  0.1052 -1.7867  1.8500
   80MOL   H17325611   3.889   1.059   0.822  0.2354 -0.9419  0.6896
   80MOL   H17425612   3.757   1.070   0.936  0.8650 -0.7163 -1.2065
   80MOL   H17525613   3.688   1.401   0.886 -0.2419 -0.1154  2.1571
   80MOL   H17625614   3.615   1.273   0.965 -1.9944  0.0047  0.1158
   80MOL   H17725615   3.541   1.332   0.818  0.6898  2.0612 -1.3981
   80MOL   C17825616   3.644   0.934   0.551  0.3060  0.1697 -0.0652
   80MOL   C17925617   3.771   0.853   0.591  0.2743  0.5276  0.1021
   80MOL   O18025618   3.735   0.722   0.623  0.7691 -0.7117 -0.0158
   80MOL   C18125619   3.791   0.661   0.730 -0.2945 -0.5232  0.9467
   80MOL   C18225620   3.777   0.513   0.711  0.0608 -0.0835  0.0987
   80MOL   C18325621   3.726   0.711   0.857 -0.3052 -0.3973  0.2597
   80MOL   H18425622   3.621   0.905   0.449  0.1083  0.6235 -0.1496
   80MOL   H18525623   3.558   0.909   0.613  0.4196 -0.7522 -0.2725
   80MOL   H18625624   3.814   0.900   0.680 -0.0789 -0.8867  1.0253
   80MOL   H18725625   3.898   0.685   0.722  0.3924 -3.4285  0.9907
   80MOL   H18825626   3.820   0.444   0.784  0.7380  1.7979  1.4920
   80MOL   H18925627   3.821   0.483   0.615  1.9291 -2.0497  1.5112
   80MOL   H19025628   3.673   0.482   0.702 -0.1466  0.9584 -1.2000
   80MOL   H19125629   3.776   0.659   0.938  0.6307  1.4366  0.8914
   80MOL   H19225630   3.618   0.704   0.870 -0.6003  0.5104 -1.6055
   80MOL   H19325631   3.752   0.816   0.869 -2.5118  0.2992 -0.9155
   80MOL   C19425632   3.865   0.854   0.473 -0.8315 -0.2768 -0.0716
   80MOL   C19525633   4.020   0.824   0.496  0.1984 -0.5087  0.6049
   80MOL   O19625634   4.067   0.935   0.564 -0.7258 -0.3691 -0.2100
   80MOL   C19725635   4.190   0.918   0.641  0.0238 -1.1242 -0.3287
   80MOL   C19825636   4.294   1.026   0.602  0.6324  0.1717 -0.0142
   80MOL   C19925637   4.156   0.917   0.794  0.0829 -0.0782  0.3082
   80MOL   H20025638   3.817   0.786   0.402 -0.7616 -0.5767  0.1672
   80MOL   H20125639   3.848   0.954   0.433 -2.1496 -0.0258  1.0712
   80MOL   H20225640   4.038   0.741   0.565  0.8797 -3.8390 -3.3773
   80MOL   H20325641   4.232   0.820   0.618  0.3349 -0.8179 -1.1001
   80MOL   H20425642   4.379   1.026   0.670  0.5556 -1.1714  0.0882
   80MOL   H20525643   4.335   1.029   0.501  0.5015 -0.7596 -0.0958
   80MOL   H20625644   4.252   1.127   0.610 -0.4382 -0.2449 -0.3820
   80MOL   H20725645   4.063   0.862   0.810 -1.3891  2.4854  0.7433
   80MOL   H20825646   4.238   0.880   0.856 -0.0744 -0.9480  0.0096
   80MOL   H20925647   4.134   1.018   0.827 -2.3218 -0.9577  1.5314
   80MOL   C21025648   4.091   0.808   0.359 -0.5466  0.1103  0.2084
   80MOL   C21125649   4.054   0.687   0.274  0.2267  0.5051 -0.6193
   80MOL   O21225650   4.137   0.705   0.159  0.9069  0.6569  0.0258
   80MOL   C21325651   4.070   0.710   0.030  0.0021  0.0262 -0.5504
   80MOL   C21425652   3.985   0.844   0.024  0.1874  0.2446 -1.0001
   80MOL   C21525653   4.160   0.708   7.732 -0.0510  0.1945  0.3942
   80MOL   H21625654   4.200   0.805   0.369 -0.6284 -0.3637  0.9406
   80MOL   H21725655   4.086   0.899   0.299  1.3747  0.1085  0.0157
   80MOL   H21825656   3.949   0.699   0.248 -0.5219 -0.2462  1.9895
   80MOL   H21925657   4.004   0.624   0.028  0.4383 -0.2908 -1.1955
   80MOL   H22025658   3.937   0.857   7.747 -0.7567  0.1216 -0.5552
   80MOL   H22125659   4.037   0.939   0.037 -0.2054  0.5985 -1.9682
   80MOL   H22225660   3.907   0.847   0.100  0.6515 -2.9782 -0.3398
   80MOL   H22325661   4.235   0.787   7.735  0.1114  0.1057 -0.7826
   80MOL   H22425662   4.108   0.724   7.637  0.8023  5.4270  0.6706
   80MOL   H22525663   4.221   0.618   7.732 -0.4238 -0.0598  0.0125
   80MOL   C22625664   4.083   0.544   0.338 -0.3852  0.3790  0.4222
   80MOL   C22725665   3.983   0.438   0.290  0.1207 -0.7186  0.1502
   80MOL   O22825666   3.858   0.467   0.353  0.7287 -0.6097  0.3182
   80MOL   C22925667   3.749   0.430   0.273  0.0940 -0.5340 -0.1897
   80MOL   C23025668   3.725   0.536   0.159 -0.2005  0.0999 -0.2437
   80MOL   C23125669   3.615   0.415   0.360  0.2846  0.6507 -0.1479
   80MOL   H23225670   4.047   0.568   0.439 -1.1867  0.6928  0.0693
   80MOL   H23325671   4.183   0.501   0.343 -2.2070 -4.1657 -0.0935
   80MOL   H23425672   3.979   0.446   0.181 -2.3021  2.9432  0.4311
   80MOL   H23525673   3.756   0.331   0.227 -0.6450 -0.8639  0.3908
   80MOL   H23625674   3.633   0.509   0.107 -1.5373  0.8824  1.6558
   80MOL   H23725675   3.722   0.639   0.195  0.7570  0.0300  0.0439
   80MOL   H23825676   3.801   0.524   0.082  0.0251 -2.7029  0.3860
   80MOL   H23925677   3.519   0.414   0.309 -0.2231 -2.0509  0.7943
   80MOL   H24025678   3.604   0.494   0.434 -0.1577 -0.0553  0.5455
   80MOL   H24125679   3.622   0.317   0.408  0.5667 -0.4424 -2.3662
   80MOL   C24225680   4.026   0.300   0.326  1.0961  0.1391  0.3417
   80MOL   C24325681   4.131   0.242   0.224 -0.0698 -0.3948 -0.2318
   80MOL   O24425682   4.062   0.230   0.103  0.6571 -0.5665 -0.1750
   80MOL   C24525683   4.133   0.206   7.803 -0.4589  0.0157 -0.2821
   80MOL   C24625684   4.051   0.106   7.721  0.3234  0.2337  0.7384
   80MOL   C24725685   4.152   0.332   7.731 -0.5534 -0.5770  0.0491
   80MOL   H24825686   4.057   0.292   0.430  0.5464  1.5935  0.6320
   80MOL   H24925687   3.945   0.228   0.329 -0.4429  1.7521 -0.9922
   80MOL   H25025688   4.220   0.304   0.216  0.9232 -1.6160  1.2628
   80MOL   H25125689   4.229   0.159   0.002  0.0689  1.6938  1.3865
   80MOL   H25225690   4.043   0.010   7.771  2.3189  0.1545  0.9658
   80MOL   H25325691   3.946   0.130   7.706 -0.3773 -3.2979 -0.2878
   80MOL   H25425692   4.095   0.085   7.623  1.5767  0.2168  1.2992
   80MOL   H25525693   4.248   0.382   7.749  0.6304 -2.3477 -1.1594
   80MOL   H25625694   4.156   0.323   7.623  0.0947  1.6717 -0.1555
   80MOL   H25725695   4.072   0.395   7.770 -1.2122 -1.0821 -0.4877
   80MOL   C25825696   4.185   0.108   0.270 -0.3904  0.0148  0.1547
   80MOL   C25925697   4.296   0.110   0.377  0.1380  0.1661 -0.8183
   80MOL   O26025698   4.400   0.172   0.303 -0.0906  0.5953 -0.1267
   80MOL   C26125699   4.492   0.246   0.384 -0.7417  0.0958 -0.3932
   80MOL   C26225700   4.609   0.281   0.289 -0.1763  0.1835  0.4260
   80MOL   C26325701   4.436   0.381   0.441  0.4029 -0.3003  0.1583
   80MOL   H26425702   4.102   0.041   0.295  0.1511 -1.3968 -1.7158
   80MOL   H26525703   4.221   0.052   0.183  2.5951  0.3183  1.1525
   80MOL   H26625704   4.264   0.177   0.457 -2.1413 -0.2958 -1.2954
   80MOL   H26725705   4.543   0.189   0.461 -1.5372 -0.5261 -0.3253
   80MOL   H26825706   4.577   0.341   0.204 -0.5657 -1.0857 -0.3256
   80MOL   H26925707   4.663   0.190   0.263  0.4008  0.2618  1.3197
   80MOL   H27025708   4.684   0.347   0.334  1.4193  0.3121 -2.2752
   80MOL   H27125709   4.363   0.367   0.521 -2.5656  2.8931 -1.8727
   80MOL   H27225710   4.521   0.437   0.479 -1.2696  0.6082  2.6905
   80MOL   H27325711   4.393   0.442   0.362  0.8531 -0.8067 -0.4858
   80MOL   C27425712   4.332   7.787   0.433 -0.2484 -0.1045 -1.0335
   80MOL   C27525713   4.391   7.786   0.573 -0.2250 -0.4464 -0.1004
   80MOL   O27625714   4.295   0.029   0.656  0.2012  0.4104 -0.0430
   80MOL   C27725715   4.330   0.057   0.792  0.6217  0.8565  0.3112
   80MOL   C27825716   4.189   0.079   0.854 -0.4524 -0.2243  0.2737
   80MOL   C27925717   4.429   0.178   0.794 -0.2005 -0.1254 -0.2720
   80MOL   H28025718   4.246   7.721   0.433  0.1229 -0.5977 -0.7021
   80MOL   H28125719   4.394   7.735   0.359  3.1364  0.2633  1.4158
   80MOL   H28225720   4.485   0.020   0.578 -2.3194  3.3391  0.6407
   80MOL   H28325721   4.378   7.791   0.838  0.8951  0.0859 -1.3908
   80MOL   H28425722   4.132   7.807   0.856 -1.1094  0.1870  0.5460
   80MOL   H28525723   4.203   0.104   0.959  1.4523 -1.1988  0.2740
   80MOL   H28625724   4.136   0.157   0.799 -1.5089 -0.9397  0.2725
   80MOL   H28725725   4.528   0.150   0.757  0.0192  1.3934 -0.8794
   80MOL   H28825726   4.446   0.209   0.897  0.3318  0.5529 -0.5599
   80MOL   H28925727   4.392   0.262   0.736 -1.5150 -1.2752 -1.1344
   80MOL   C29025728   4.415   7.643   0.620 -0.5035 -0.0112 -0.9632
   80MOL   C29125729   4.505   7.558   0.531 -0.4728 -0.2021  0.0741
   80MOL   O29225730   4.629   7.621   0.530 -0.4794  1.0101 -0.5646
   80MOL   C29325731   4.679   7.668   0.404  0.7956  0.0466  0.2011
   80MOL   C29425732   4.728   7.551   0.305  1.3339 -0.3798 -0.4635
   80MOL   C29525733   4.785   7.776   0.430 -0.3737 -0.4845  0.2415
   80MOL   H29625734   4.318   7.599   0.646  0.1353 -0.0296  1.5331
   80MOL   H29725735   4.475   7.649   0.711  0.7295 -1.2880 -1.6654
   80MOL   H29825736   4.478   7.532   0.429 -1.0295 -0.8250  0.3776
   80MOL   H29925737   4.600   7.727   0.357  0.4789  0.3259  1.0692
   80MOL   H30025738   4.773   7.589   0.214  3.0446  1.6035  1.1831
   80MOL   H30125739   4.820   7.512   0.347  2.0249 -0.6438 -2.1853
   80MOL   H30225740   4.652   7.475   0.284  1.4012 -0.2810 -1.0901
   80MOL   H30325741   4.815   0.004   0.337  1.0750 -1.4528  0.1894
   80MOL   H30425742   4.755   0.038   0.495 -0.8736 -1.5645  1.4113
   80MOL   H30525743   4.871   7.726   0.474 -0.9947  0.0268  2.0705
   80MOL   C30625744   4.535   7.421   0.599  0.4231 -0.1973  1.0355
   80MOL   C30725745   4.416   7.330   0.577 -0.0933  1.2138 -0.7811
   80MOL   O30825746   4.436   7.213   0.662  0.4487  0.0336 -0.5759
   80MOL   C30925747   4.324   7.122   0.654 -0.0865 -0.2747  0.2306
   80MOL   C31025748   4.377   6.991   0.714  0.3038  0.3468  0.0069
   80MOL   C31125749   4.197   7.163   0.727  0.0100 -0.2375 -0.7231
   80MOL   H31225750   4.547   7.448   0.703 -2.3234  3.0489  0.6074
   80MOL   H31325751   4.626   7.390   0.548 -0.9815  0.2135 -1.8565
   80MOL   H31425752   4.326   7.373   0.619  1.6226  3.3245  0.8648
   80MOL   H31525753   4.304   7.100   0.549 -0.7329 -0.5046  0.4034
   80MOL   H31625754   4.390   7.004   0.822 -1.2954 -2.6114  0.5897
   80MOL   H31725755   4.475   6.984   0.668  0.8789 -1.1170  1.4088
   80MOL   H31825756   4.317   6.903   0.691 -0.4513  1.0808 -0.8605
   80MOL   H31925757   4.157   7.254   0.683 -0.1491 -0.1499 -0.3946
   80MOL   H32025758   4.216   7.167   0.834  0.1839  2.7371 -0.8306
   80MOL   H32125759   4.115   7.091   0.722  1.1373 -1.6838  1.0417
   80MOL   H32225760   4.413   7.307   0.470  3.5806  0.8908 -0.9015
   81MOL     C125761   3.968   5.682   6.198  0.1163  0.2499  0.1530
   81MOL     C225762   4.018   5.705   6.052  0.1048  0.2744  0.5981
   81MOL     O325763   4.126   5.617   6.020 -0.1245  0.0589 -1.1083
   81MOL     C425764   4.261   5.647   6.059  0.0284 -0.1575  0.4381
   81MOL     C525765   4.315   5.770   5.983 -0.1376  0.3037  0.4922
   81MOL     C625766   4.346   5.522   6.046 -0.4603  0.8041 -0.7256
   81MOL     H725767   3.890   5.748   6.236 -1.2631 -1.1821 -0.1077
   81MOL     H825768   3.928   5.582   6.215 -0.8733  0.6953  0.4616
   81MOL     H925769   4.048   5.809   6.056 -1.7108  0.8103  0.6297
   81MOL    H1025770   4.280   5.675   6.162 -1.9409  2.9357 -0.0017
   81MOL    H1125771   4.267   5.862   6.019 -2.5740 -0.3704 -0.9561
   81MOL    H1225772   4.419   5.785   6.012 -0.0017  0.2200  0.0396
   81MOL    H1325773   4.308   5.764   5.875  2.0102 -2.9400  0.4780
   81MOL    H1425774   4.320   5.433   6.103  1.2825  1.5640  1.3077
   81MOL    H1525775   4.354   5.497   5.940  0.7695 -1.3642 -0.1529
   81MOL    H1625776   4.444   5.531   6.092 -1.3858  1.9290  1.0874
   81MOL    H1725777   4.043   5.699   6.276  1.3007  0.9872 -1.1231
   81MOL    C1825778   3.897   5.680   5.963 -0.0982  0.4136  0.1187
   81MOL    C1925779   3.887   5.773   5.844  0.6234 -0.1564  0.5115
   81MOL    O2025780   3.836   5.900   5.887 -0.2335  0.9482  0.4593
   81MOL    C2125781   3.851   6.008   5.794 -0.0360  0.5306  0.8183
   81MOL    C2225782   3.985   6.077   5.833 -0.3409 -0.4724  0.5426
   81MOL    C2325783   3.732   6.101   5.822  0.1543  0.9676  0.6044
   81MOL    H2425784   3.904   5.576   5.930 -2.3098  0.2558  0.0942
   81MOL    H2525785   3.799   5.686   6.010 -0.4202 -1.1138 -0.3165
   81MOL    H2625786   3.984   5.789   5.798  0.2797 -0.2820 -0.2772
   81MOL    H2725787   3.849   5.977   5.689  1.0672  0.9060  0.6772
   81MOL    H2825788   3.998   6.169   5.776 -0.6938 -0.7838 -0.0367
   81MOL    H2925789   3.974   6.103   5.938 -2.3092  0.1660  0.2067
   81MOL    H3025790   4.077   6.019   5.828  0.3078  0.5694  0.2947
   81MOL    H3125791   3.728   6.157   5.915 -2.1935  2.2233 -0.1901
   81MOL    H3225792   3.636   6.049   5.820  0.1959  0.9096  0.0101
   81MOL    H3325793   3.729   6.177   5.744 -0.3423 -0.7704 -1.1156
   81MOL    C3425794   3.792   5.713   5.735  0.8212  0.3496 -0.3249
   81MOL    C3525795   3.849   5.619   5.631 -0.2749 -0.2639 -1.7869
   81MOL    O3625796   3.905   5.501   5.685 -0.1277  0.0225  0.0513
   81MOL    C3725797   4.048   5.497   5.679 -0.3253 -0.5797  0.5626
   81MOL    C3825798   4.077   5.374   5.761 -0.1515 -0.3593 -0.4031
   81MOL    C3925799   4.094   5.480   5.527  0.1889 -0.2859  0.3025
   81MOL    H4025800   3.736   5.792   5.685 -0.3927  0.0637  0.5491
   81MOL    H4125801   3.714   5.662   5.792  0.6584 -0.1562 -1.0024
   81MOL    H4225802   3.932   5.670   5.582  1.4984  0.1947  1.5695
   81MOL    H4325803   4.107   5.577   5.722 -0.3287  0.1807 -0.8466
   81MOL    H4425804   4.053   5.402   5.864 -0.5964  1.8110 -1.0832
   81MOL    H4525805   4.183   5.357   5.747 -0.1473  0.2741 -1.1843
   81MOL    H4625806   4.025   5.283   5.728 -0.7604  0.0665 -0.6222
   81MOL    H4725807   4.192   5.434   5.517  0.5052  0.4989 -0.2735
   81MOL    H4825808   4.028   5.432   5.454  1.5924 -0.1801 -1.0596
   81MOL    H4925809   4.114   5.584   5.500 -2.2242  0.3523  0.8422
   81MOL    C5025810   3.753   5.578   5.515 -0.2703 -0.1963  0.5744
   81MOL    C5125811   3.618   5.523   5.560 -0.4317  0.4443 -0.0091
   81MOL    O5225812   3.574   5.423   5.470 -0.1895  0.0067  0.2093
   81MOL    C5325813   3.622   5.287   5.504 -0.0082  0.5469 -0.1923
   81MOL    C5425814   3.643   5.215   5.373  0.5139  0.0588  0.6413
   81MOL    C5525815   3.518   5.218   5.593 -0.0221 -0.7034 -0.7864
   81MOL    H5625816   3.748   5.669   5.454  1.2127 -1.9496 -2.3143
   81MOL    H5725817   3.798   5.502   5.451  0.6998 -0.0912  1.1268
   81MOL    H5825818   3.640   5.486   5.660 -2.5688  0.4746  0.4976
   81MOL    H5925819   3.720   5.307   5.548  0.9078 -2.4903 -0.7034
   81MOL    H6025820   3.723   5.256   5.311 -0.0506  1.6356  0.9169
   81MOL    H6125821   3.553   5.212   5.312  1.8563  1.2861 -1.4757
   81MOL    H6225822   3.671   5.111   5.384 -0.0553 -0.1953 -0.2464
   81MOL    H6325823   3.421   5.231   5.545  0.1306  1.5713 -0.5310
   81MOL    H6425824   3.530   5.254   5.695  0.4777 -1.8471 -0.4323
   81MOL    H6525825   3.532   5.110   5.604 -1.5007 -0.9298 -0.9407
   81MOL    C6625826   3.511   5.636   5.557  0.0907 -0.6349  0.5801
   81MOL    C6725827   3.394   5.588   5.645  0.3885  0.5049  0.7256
   81MOL    O6825828   3.273   5.658   5.609  0.4766  0.3031  0.2966
   81MOL    C6925829   3.208   5.596   5.499  0.2245 -0.3636  0.1464
   81MOL    C7025830   3.121   5.488   5.549  0.3078 -0.0472 -0.0532
   81MOL    C7125831   3.136   5.711   5.424 -0.3109 -0.0026 -0.1945
   81MOL    H7225832   3.548   5.729   5.599  0.6936 -0.6914  0.1698
   81MOL    H7325833   3.488   5.660   5.453  2.0132 -0.9018  0.0737
   81MOL    H7425834   3.382   5.480   5.637 -1.2097  0.6977  0.4462
   81MOL    H7525835   3.276   5.546   5.431  0.0249  1.2452 -1.2627
   81MOL    H7625836   3.034   5.519   5.607  1.2785  1.1942  0.7609
   81MOL    H7725837   3.084   5.425   5.468  1.4986  0.0458 -0.6859
   81MOL    H7825838   3.183   5.418   5.604 -1.6610 -1.4605  0.4415
   81MOL    H7925839   3.199   5.784   5.373  0.0031 -0.3346 -0.2895
   81MOL    H8025840   3.070   5.775   5.483 -1.8333 -1.8074  0.0975
   81MOL    H8125841   3.062   5.670   5.355 -0.2577  0.7792 -0.7335
   81MOL    C8225842   3.412   5.623   5.796 -1.3013  0.2892 -0.0663
   81MOL    C8325843   3.315   5.560   5.902  0.5161  1.0077 -0.0030
   81MOL    O8425844   3.336   5.418   5.895 -0.7540 -0.3203  0.0924
   81MOL    C8525845   3.254   5.325   5.973 -0.0311 -0.6364  0.1748
   81MOL    C8625846   3.315   5.187   5.947  0.1817  0.2272  0.0170
   81MOL    C8725847   3.113   5.317   5.918 -0.2267  0.3834  0.1463
   81MOL    H8825848   3.512   5.594   5.828 -2.2904 -2.4949  0.6930
   81MOL    H8925849   3.409   5.732   5.799  0.9498  0.3440  2.0467
   81MOL    H9025850   3.216   5.587   5.866  1.0907  1.1550 -1.5301
   81MOL    H9125851   3.243   5.359   6.076  0.5079  1.9816 -0.5841
   81MOL    H9225852   3.242   5.120   5.991 -0.7298  0.8893 -0.4825
   81MOL    H9325853   3.310   5.166   5.840 -1.6044 -2.5794  0.5991
   81MOL    H9425854   3.414   5.192   5.994  0.1816  0.8666 -0.0469
   81MOL    H9525855   3.053   5.245   5.973  1.1736 -1.1281 -0.2451
   81MOL    H9625856   3.058   5.411   5.919 -1.7123 -0.4614 -0.4911
   81MOL    H9725857   3.113   5.285   5.813  0.8237 -0.1264  0.2904
   81MOL    C9825858   3.332   5.623   6.041  0.4757 -0.2214  0.1261
   81MOL    C9925859   3.308   5.773   6.056  0.2076 -0.3691  0.5256
   81MOL   O10025860   3.360   5.817   6.177 -0.3649 -0.1327  0.0081
   81MOL   C10125861   3.467   5.908   6.169  0.3227  0.4277  0.7352
   81MOL   C10225862   3.587   5.833   6.139  0.0762 -0.2573 -0.1274
   81MOL   C10325863   3.469   5.990   6.297  0.5069 -0.1586 -0.0809
   81MOL   H10425864   3.273   5.567   6.113  1.0630 -1.2115 -0.1553
   81MOL   H10525865   3.428   5.598   6.086 -0.2741 -0.6557  1.5098
   81MOL   H10625866   3.348   5.836   5.976  1.3976 -0.3390  1.1326
   81MOL   H10725867   3.435   5.975   6.089 -0.7782 -3.6822 -2.3942
   81MOL   H10825868   3.682   5.886   6.142  0.4019 -0.7482 -1.4831
   81MOL   H10925869   3.584   5.787   6.040 -1.6789  1.5434 -0.9600
   81MOL   H11025870   3.593   5.757   6.217  0.4322  1.8723  1.9546
   81MOL   H11125871   3.375   6.044   6.308  0.3896 -0.4017  0.1078
   81MOL   H11225872   3.551   6.062   6.297  0.7364 -0.4001  0.8127
   81MOL   H11325873   3.484   5.925   6.384  0.1556  2.1127  1.7398
   81MOL   C11425874   3.152   5.797   6.058  0.8043  0.1303 -0.0043
   81MOL   C11525875   3.115   5.954   6.059 -0.5426  0.5679 -0.2815
   81MOL   O11625876   2.998   5.979   5.980 -1.1174  0.2239  0.4757
   81MOL   C11725877   3.016   6.049   5.855 -0.5779 -0.0718  0.2970
   81MOL   C11825878   2.880   6.075   5.801 -0.4515 -0.3145 -0.4136
   81MOL   C11925879   3.093   5.963   5.755 -0.0655 -0.0839 -0.9288
   81MOL   H12025880   3.107   5.757   6.149  3.6704  0.3620  1.5419
   81MOL   H12125881   3.099   5.752   5.974  2.3127 -0.5835 -0.5894
   81MOL   H12225882   3.197   6.017   6.026 -0.7426  1.7719  1.4282
   81MOL   H12325883   3.064   6.146   5.862 -0.3616 -0.1206 -0.5296
   81MOL   H12425884   2.824   6.114   5.886  2.6561  0.3171  1.4236
   81MOL   H12525885   2.832   5.989   5.753  0.7286 -1.0340 -0.3340
   81MOL   H12625886   2.877   6.155   5.727  1.8334 -1.1559 -1.4556
   81MOL   H12725887   3.123   6.013   5.663 -0.3694  1.9388  0.0533
   81MOL   H12825888   3.037   5.873   5.728  0.9608 -1.1698  0.4645
   81MOL   H12925889   3.184   5.924   5.801  0.0807  0.1259 -1.0376
   81MOL   C13025890   3.085   5.996   6.202  0.3073  0.4631 -0.2729
   81MOL   C13125891   3.081   6.148   6.220  0.2386 -0.2612 -0.5803
   81MOL   O13225892   3.209   6.200   6.180 -0.0554 -0.0107 -0.1007
   81MOL   C13325893   3.217   6.345   6.169 -0.1553  0.0665  0.8446
   81MOL   C13425894   3.365   6.381   6.144 -0.3227 -0.3193 -0.3591
   81MOL   C13525895   3.135   6.395   6.048  0.2469 -1.1893 -0.1927
   81MOL   H13625896   3.163   5.953   6.264 -0.5431  0.6543  0.9730
   81MOL   H13725897   2.986   5.955   6.221  1.2471 -2.1494 -0.8401
   81MOL   H13825898   2.995   6.191   6.169  1.2691  0.8856 -1.3681
   81MOL   H13925899   3.185   6.399   6.259 -1.2193  1.1558 -0.1744
   81MOL   H14025900   3.380   6.487   6.166  0.7656 -0.5269 -0.0829
   81MOL   H14125901   3.417   6.354   6.052 -1.5668 -3.3471 -0.2089
   81MOL   H14225902   3.424   6.328   6.218 -1.6681  1.0130  1.7411
   81MOL   H14325903   3.029   6.371   6.059 -0.4934  1.8075 -0.4630
   81MOL   H14425904   3.150   6.502   6.034  0.4486 -1.2491 -0.4380
   81MOL   H14525905   3.169   6.345   5.957  0.9522 -0.8398 -0.1209
   81MOL   C14625906   3.082   6.182   6.375 -0.1022 -0.0304 -0.6305
   81MOL   C14725907   2.950   6.137   6.454 -0.2660 -0.2310 -0.3447
   81MOL   O14825908   2.984   6.113   6.588  0.4215  0.8256 -0.3204
   81MOL   C14925909   3.022   5.969   6.610 -0.6941 -0.2544 -1.1963
   81MOL   C15025910   2.906   5.884   6.672 -0.5330  0.1447  0.0337
   81MOL   C15125911   3.127   6.000   6.709 -0.4595  0.0648  0.1057
   81MOL   H15225912   3.095   6.287   6.400  2.3926 -0.6637  0.8746
   81MOL   H15325913   3.168   6.133   6.419 -1.1171 -1.2594  0.0511
   81MOL   H15425914   2.908   6.050   6.404 -1.7647  1.2655 -1.7521
   81MOL   H15525915   3.075   5.917   6.530 -0.8799 -1.5335 -0.5056
   81MOL   H15625916   2.854   5.939   6.751 -2.2028  0.2703 -1.1497
   81MOL   H15725917   2.933   5.784   6.706 -3.8447  0.1830  3.1023
   81MOL   H15825918   2.823   5.873   6.603 -0.4936  1.7285 -0.2995
   81MOL   H15925919   3.088   6.030   6.806  0.7059 -0.6467  0.8165
   81MOL   H16025920   3.208   6.068   6.683  0.2296 -0.7485  0.0654
   81MOL   H16125921   3.179   5.909   6.743 -0.0432  0.8472  1.6260
   81MOL   C16225922   2.838   6.239   6.462 -0.2414  0.1070 -0.3103
   81MOL   C16325923   2.753   6.273   6.340  0.2419  0.7834 -0.2193
   81MOL   O16425924   2.689   6.159   6.283 -0.1117  0.0498  0.3478
   81MOL   C16525925   2.704   6.130   6.146  0.0710 -0.3612  0.0581
   81MOL   C16625926   2.608   6.225   6.062  0.5547 -0.1671  0.4305
   81MOL   C16725927   2.657   5.991   6.128  0.1216 -0.1955  0.1680
   81MOL   H16825928   2.779   6.215   6.550 -0.8151  2.1551 -0.1038
   81MOL   H16925929   2.887   6.328   6.501 -0.6976 -0.5919  1.9327
   81MOL   H17025930   2.809   6.314   6.256 -1.3621 -0.8178 -2.1181
   81MOL   H17125931   2.808   6.129   6.113  0.3667 -1.4539  0.9781
   81MOL   H17225932   2.624   6.193   5.959  1.5122 -0.1791  0.5771
   81MOL   H17325933   2.639   6.330   6.060 -0.0856  0.0089 -0.6002
   81MOL   H17425934   2.502   6.215   6.084  0.2411  0.0873 -0.9393
   81MOL   H17525935   2.561   5.986   6.180  0.0331 -0.1693  0.0056
   81MOL   H17625936   2.728   5.918   6.168  0.6948  1.0200  1.4339
   81MOL   H17725937   2.647   5.966   6.023  1.7768 -3.0701  0.6465
   81MOL   C17825938   2.642   6.372   6.369 -0.7950 -0.1552  0.6253
   81MOL   C17925939   2.673   6.511   6.411  0.7048  0.0621  0.3143
   81MOL   O18025940   2.629   6.596   6.311  0.0021  0.7150 -0.0255
   81MOL   C18125941   2.716   6.629   6.205  0.3486 -0.3307 -0.0664
   81MOL   C18225942   2.826   6.726   6.258  0.0220  0.1506 -0.0947
   81MOL   C18325943   2.617   6.688   6.091 -0.1188 -0.2753  0.1704
   81MOL   H18425944   2.577   6.328   6.444 -0.4415 -0.2522  0.8763
   81MOL   H18525945   2.577   6.382   6.282  0.2571  0.5436 -0.0883
   81MOL   H18625946   2.778   6.523   6.440  0.7374  0.9562 -0.1706
   81MOL   H18725947   2.755   6.536   6.163  1.5753 -0.3980  1.2133
   81MOL   H18825948   2.882   6.665   6.329  2.8403  0.6388 -1.8418
   81MOL   H18925949   2.785   6.811   6.313  0.9952  0.2120  0.5360
   81MOL   H19025950   2.892   6.748   6.174 -0.2019 -1.5865 -0.7507
   81MOL   H19125951   2.539   6.615   6.066  0.8382 -0.4433 -2.4489
   81MOL   H19225952   2.666   6.709   5.996  0.9247  0.7159  0.9189
   81MOL   H19325953   2.571   6.781   6.124 -0.7068 -0.1105 -1.0796
   81MOL   C19425954   2.591   6.558   6.525  0.3315  0.3764 -0.3168
   81MOL   C19525955   2.632   6.502   6.664 -0.4087 -0.1540 -0.2693
   81MOL   O19625956   2.514   6.498   6.741 -0.1262 -0.1684  0.2195
   81MOL   C19725957   2.425   6.390   6.732  0.1057  0.3812 -0.2967
   81MOL   C19825958   2.453   6.293   6.858 -0.4470 -0.7582  0.4035
   81MOL   C19925959   2.279   6.447   6.742  0.2821 -0.5260  0.5937
   81MOL   H20025960   2.585   6.667   6.534 -1.7893  0.3484 -1.1472
   81MOL   H20125961   2.497   6.508   6.506  0.9848  0.2004 -3.3201
   81MOL   H20225962   2.691   6.410   6.662  0.6099  0.4765  0.8717
   81MOL   H20325963   2.443   6.334   6.640  0.2959 -0.3655  0.1837
   81MOL   H20425964   2.465   6.348   6.952 -2.3845  2.1074 -0.9639
   81MOL   H20525965   2.384   6.210   6.869 -3.8123  2.1177  1.8973
   81MOL   H20625966   2.547   6.245   6.828  0.9538  0.7486  2.2575
   81MOL   H20725967   2.261   6.519   6.662  1.6015  0.4220  1.1321
   81MOL   H20825968   2.197   6.375   6.737 -0.2448  0.1427 -0.7171
   81MOL   H20925969   2.273   6.506   6.833 -0.6703 -1.1143  0.9178
   81MOL   C21025970   2.728   6.595   6.727 -0.1505 -0.4535 -0.4164
   81MOL   C21125971   2.790   6.531   6.855  0.4031 -0.1301 -0.3594
   81MOL   O21225972   2.906   6.467   6.818  0.3893  0.2260  0.1110
   81MOL   C21325973   2.964   6.364   6.899 -0.2485  0.3142 -0.2176
   81MOL   C21425974   2.879   6.232   6.896 -0.0031 -0.1006 -0.1767
   81MOL   C21525975   3.106   6.342   6.845  0.5292  0.2659  0.2850
   81MOL   H21625976   2.683   6.688   6.762 -0.8915 -1.0364  0.1864
   81MOL   H21725977   2.801   6.625   6.652  0.5466 -0.1509  0.3754
   81MOL   H21825978   2.711   6.465   6.891 -0.4406  1.4271  0.7001
   81MOL   H21925979   2.967   6.390   7.005  1.8940 -0.3839 -0.0776
   81MOL   H22025980   2.927   6.142   6.935  5.0701  2.1028 -1.0646
   81MOL   H22125981   2.863   6.202   6.792 -0.2681 -1.4839  0.2394
   81MOL   H22225982   2.778   6.243   6.936 -0.1800  0.8764 -0.8997
   81MOL   H22325983   3.158   6.262   6.898 -0.9894 -1.2228 -0.4580
   81MOL   H22425984   3.174   6.426   6.861 -1.3282  1.9822 -0.6220
   81MOL   H22525985   3.106   6.319   6.739  2.5019  2.6786 -0.2974
   81MOL   C22625986   2.832   6.627   6.969  0.2345  0.4390  0.7134
   81MOL   C22725987   2.719   6.636   7.071 -0.8761 -0.1526  0.2631
   81MOL   O22825988   2.676   6.505   7.116  0.1346  0.4231 -0.6420
   81MOL   C22925989   2.718   6.465   7.242  0.0926 -0.1106  0.4755
   81MOL   C23025990   2.682   6.310   7.253  0.6229 -0.9724  0.0994
   81MOL   C23125991   2.639   6.536   7.362  0.5919  0.1335  0.0597
   81MOL   H23225992   2.868   6.725   6.937 -0.1897  0.9990  1.9220
   81MOL   H23325993   2.920   6.602   7.028  0.5142  0.3138  0.2452
   81MOL   H23425994   2.766   6.688   7.155 -2.0544  0.6554  0.4278
   81MOL   H23525995   2.825   6.483   7.253 -0.1650  1.1531  1.0052
   81MOL   H23625996   2.576   6.292   7.236  0.1834  3.3194 -2.3773
   81MOL   H23725997   2.738   6.252   7.179 -0.3556 -2.3013  0.3881
   81MOL   H23825998   2.697   6.277   7.355 -0.7178 -0.1025  0.5835
   81MOL   H23925999   2.655   6.643   7.353 -0.6291  0.5603  2.5141
   81MOL   H24026000   2.681   6.502   7.457 -1.3817 -1.0431  0.5420
   81MOL   H24126001   2.537   6.501   7.348  0.0493  2.1396 -1.1082
   81MOL   C24226002   2.595   6.722   7.017 -0.0640 -0.4523  0.1512
   81MOL   C24326003   2.631   6.864   6.972  0.5962 -0.2021  0.2300
   81MOL   O24426004   2.661   6.934   7.098  0.8571 -0.0234  0.2070
   81MOL   C24526005   2.753   7.052   7.084  0.3106 -0.0871 -0.5786
   81MOL   C24626006   2.762   7.105   7.234 -1.0616  0.4180 -0.1198
   81MOL   C24726007   2.891   7.004   7.032 -0.0497  0.7684  1.1255
   81MOL   H24826008   2.549   6.686   6.925  1.2911 -1.1830 -0.2607
   81MOL   H24926009   2.524   6.716   7.099 -0.9231 -1.2547 -0.6362
   81MOL   H25026010   2.718   6.858   6.906 -1.8097 -0.9566 -2.9927
   81MOL   H25126011   2.721   7.136   7.022 -0.1773  0.1598 -0.0003
   81MOL   H25226012   2.729   7.031   7.306 -0.0106 -0.2641 -0.3234
   81MOL   H25326013   2.857   7.154   7.255 -1.7356  2.7459 -2.1821
   81MOL   H25426014   2.678   7.171   7.256 -1.5641 -0.5562  0.9175
   81MOL   H25526015   2.895   7.021   6.924 -1.3350 -2.5447  0.5046
   81MOL   H25626016   2.975   7.068   7.060  1.5546 -1.1687  0.7868
   81MOL   H25726017   2.919   6.904   7.065  0.9427  1.1406  1.4301
   81MOL   C25826018   2.509   6.943   6.904 -0.3037 -0.3523  0.2266
   81MOL   C25926019   2.505   6.930   6.745 -0.7625  0.0451 -0.0387
   81MOL   O26026020   2.625   7.005   6.708 -0.8963  0.1522 -0.0918
   81MOL   C26126021   2.684   6.986   6.588 -0.1033 -0.1677  0.1410
   81MOL   C26226022   2.665   7.127   6.529 -0.5403  0.3332 -0.0754
   81MOL   C26326023   2.829   6.940   6.609  0.3252  0.7732 -0.1192
   81MOL   H26426024   2.421   6.903   6.954 -0.9718  0.0191 -0.6247
   81MOL   H26526025   2.522   7.048   6.928  4.5028 -0.6404 -0.5576
   81MOL   H26626026   2.507   6.824   6.719 -0.6654 -0.3030  1.3484
   81MOL   H26726027   2.625   6.918   6.526 -0.7991 -0.0105  0.6249
   81MOL   H26826028   2.660   7.113   6.421  1.3365 -0.7450 -0.0591
   81MOL   H26926029   2.738   7.204   6.554 -0.0170 -0.0553 -0.3748
   81MOL   H27026030   2.568   7.169   6.552  0.0988  1.2009  1.0953
   81MOL   H27126031   2.890   7.011   6.665  0.2215  1.2430 -0.5932
   81MOL   H27226032   2.841   6.841   6.653 -1.2696  0.9565  0.7454
   81MOL   H27326033   2.877   6.948   6.511 -0.0351  0.9990 -0.2781
   81MOL   C27426034   2.376   7.007   6.692 -0.3779 -0.3218  0.2560
   81MOL   C27526035   2.259   6.918   6.640  0.4496  0.1114  0.1024
   81MOL   O27626036   2.306   6.846   6.525 -0.4430 -0.2483 -0.2104
   81MOL   C27726037   2.276   6.913   6.404  0.2682  0.0864 -0.1958
   81MOL   C27826038   2.143   6.855   6.359  1.1195  0.0375  0.2279
   81MOL   C27926039   2.376   6.870   6.306 -0.3264  0.2917 -0.4884
   81MOL   H28026040   2.358   7.083   6.767  0.7037 -0.5859  0.7984
   81MOL   H28126041   2.400   7.063   6.602 -1.6489 -1.3882 -0.7780
   81MOL   H28226042   2.177   6.984   6.613 -1.1932 -1.7996  0.3552
   81MOL   H28326043   2.282   7.022   6.398  1.9143 -0.0357 -1.2161
   81MOL   H28426044   2.122   6.883   6.255 -1.0584 -1.3071  0.2705
   81MOL   H28526045   2.132   6.747   6.369  3.0888 -0.0803  1.2769
   81MOL   H28626046   2.065   6.901   6.420  0.1272  2.4162 -2.6706
   81MOL   H28726047   2.396   6.764   6.324 -1.6241  0.1034 -0.1550
   81MOL   H28826048   2.472   6.921   6.318  0.2279 -0.4553 -1.6769
   81MOL   H28926049   2.341   6.887   6.204 -1.3458  2.3047  0.1730
   81MOL   C29026050   2.210   6.810   6.737  0.1431 -0.2505  0.1401
   81MOL   C29126051   2.141   6.870   6.857  0.3241 -0.0772 -0.3611
   81MOL   O29226052   2.029   6.943   6.809  0.0348  0.0296  0.2351
   81MOL   C29326053   2.005   7.069   6.866 -0.1533  0.0384 -0.0935
   81MOL   C29426054   1.949   7.062   7.011 -0.0228 -0.2625 -0.7023
   81MOL   C29526055   1.898   7.135   6.779 -0.6658  0.0862 -0.4358
   81MOL   H29626056   2.291   6.746   6.772 -0.8902  0.0596  3.3023
   81MOL   H29726057   2.136   6.747   6.688 -0.0086 -0.8839  1.1470
   81MOL   H29826058   2.205   6.942   6.908  1.8777 -1.3133 -0.4966
   81MOL   H29926059   2.093   7.133   6.872 -1.5179  2.1828 -2.2437
   81MOL   H30026060   2.015   7.008   7.078 -0.2690  0.3495  0.0471
   81MOL   H30126061   1.935   7.164   7.047 -0.0455 -0.3893 -0.3494
   81MOL   H30226062   1.864   6.994   7.010  0.7831 -1.2772 -0.8523
   81MOL   H30326063   1.942   7.150   6.681 -0.9743 -1.1395 -0.7816
   81MOL   H30426064   1.823   7.056   6.777  0.9113 -1.4463 -0.6635
   81MOL   H30526065   1.860   7.230   6.815 -2.8012 -0.5767 -0.8937
   81MOL   C30626066   2.105   6.765   6.970  0.8992  0.2026  0.2709
   81MOL   C30726067   2.231   6.713   7.050 -0.2818  0.1304 -0.4547
   81MOL   O30826068   2.173   6.626   7.148  0.1115  0.5986  0.7596
   81MOL   C30926069   2.265   6.549   7.219 -0.3249  0.6913  0.6655
   81MOL   C31026070   2.260   6.624   7.358 -0.3153 -0.2561  0.5708
   81MOL   C31126071   2.204   6.411   7.227 -0.2223  0.2819 -0.7642
   81MOL   H31226072   2.050   6.682   6.924 -0.2133  1.4284 -0.6444
   81MOL   H31326073   2.032   6.800   7.042 -2.3276 -2.0664 -1.7517
   81MOL   H31426074   2.298   6.663   6.981 -1.1226 -2.1180  0.3131
   81MOL   H31526075   2.364   6.539   7.176 -0.5571 -2.4594  0.8039
   81MOL   H31626076   2.334   6.582   7.426 -0.7646 -3.4110 -0.7972
   81MOL   H31726077   2.166   6.626   7.414  0.7147  0.0999  2.3323
   81MOL   H31826078   2.287   6.726   7.330 -0.1046 -0.1917  1.0069
   81MOL   H31926079   2.261   6.338   7.284 -2.2104 -2.1763 -1.7672
   81MOL   H32026080   2.199   6.352   7.135 -1.3475 -0.6668 -0.1084
   81MOL   H32126081   2.109   6.402   7.280  0.8170  1.9779  1.4524
   81MOL   H32226082   2.292   6.788   7.100  0.3911 -0.8257  0.1722
   82MOL     C126083   1.991   1.792   0.687 -0.3977 -0.0560 -0.0023
   82MOL     C226084   1.865   1.820   0.775 -0.1187  0.6374 -0.2429
   82MOL     O326085   1.745   1.826   0.700 -0.0692  0.1269  0.0801
   82MOL     C426086   1.740   1.923   0.599 -0.4474 -0.1547  0.0598
   82MOL     C526087   1.756   2.064   0.646  0.8325 -0.0846  0.2988
   82MOL     C626088   1.605   1.898   0.537  0.0510  0.2743 -1.3502
   82MOL     H726089   2.028   1.884   0.643  1.4466 -0.5527  0.4787
   82MOL     H826090   2.071   1.765   0.756 -0.8650 -0.5035  0.3766
   82MOL     H926091   1.878   1.921   0.814  1.9050  0.6246 -0.7932
   82MOL    H1026092   1.805   1.910   0.512 -1.0077  3.9031 -1.0514
   82MOL    H1126093   1.706   2.072   0.743  0.9533  3.2340  0.1347
   82MOL    H1226094   1.859   2.084   0.672  0.9081  1.1681 -0.9656
   82MOL    H1326095   1.718   2.144   0.583 -0.9673 -1.3010 -0.2191
   82MOL    H1426096   1.582   1.793   0.518  1.9988 -0.2273 -1.0256
   82MOL    H1526097   1.525   1.935   0.601  2.1473  0.9547  0.9390
   82MOL    H1626098   1.600   1.956   0.445 -0.1459  1.8154 -0.3803
   82MOL    H1726099   1.983   1.712   0.613  1.1796  1.4671 -1.8611
   82MOL    C1826100   1.845   1.727   0.894 -0.1182 -0.0522 -0.2035
   82MOL    C1926101   1.946   1.731   1.010  0.0613  0.1403  0.1787
   82MOL    O2026102   1.905   1.650   1.119  0.0962  0.0944  0.3776
   82MOL    C2126103   1.925   1.515   1.091  0.3039  0.1785 -0.1167
   82MOL    C2226104   1.792   1.439   1.115 -0.2514  0.1827  0.4429
   82MOL    C2326105   2.041   1.464   1.177  0.5336 -0.4172  0.4484
   82MOL    H2426106   1.742   1.744   0.925 -0.8692 -0.5536 -2.3218
   82MOL    H2526107   1.844   1.629   0.845  0.9007 -0.6288  0.9019
   82MOL    H2626108   2.037   1.690   0.967 -0.3021 -1.8899  1.2731
   82MOL    H2726109   1.960   1.497   0.990 -0.5071 -1.1483 -0.1694
   82MOL    H2826110   1.753   1.464   1.213  1.4191  2.5064  0.5596
   82MOL    H2926111   1.728   1.479   1.037  0.9979 -0.9601 -1.2257
   82MOL    H3026112   1.798   1.333   1.091 -2.1709 -0.0246  0.8191
   82MOL    H3126113   2.053   1.356   1.175 -1.6714 -0.6783 -0.5707
   82MOL    H3226114   2.033   1.505   1.278 -1.0524  2.6362 -0.8522
   82MOL    H3326115   2.140   1.502   1.151  0.4425  0.3644  1.2164
   82MOL    C3426116   1.970   1.868   1.077 -0.3180 -0.3701  0.8256
   82MOL    C3526117   2.085   1.960   1.025  0.7251  0.3502  0.7994
   82MOL    O3626118   2.066   2.096   1.071 -0.7473  0.4889  0.4624
   82MOL    C3726119   1.963   2.167   0.991 -0.2471  0.1906  0.0809
   82MOL    C3826120   1.936   2.277   1.087 -0.1903  0.4207  0.2444
   82MOL    C3926121   2.031   2.212   0.860 -0.5326  0.2844 -0.5831
   82MOL    H4026122   2.006   1.844   1.177  0.5403  0.1252  0.6314
   82MOL    H4126123   1.869   1.909   1.084 -0.5428 -1.0187  1.6077
   82MOL    H4226124   2.075   1.950   0.917 -0.4331  0.8693  0.8595
   82MOL    H4326125   1.875   2.106   0.972 -2.9231  4.0115 -0.2780
   82MOL    H4426126   1.877   2.356   1.042 -1.8353 -0.2731  1.1395
   82MOL    H4526127   2.026   2.330   1.121 -0.3287 -1.0945  3.0985
   82MOL    H4626128   1.883   2.237   1.173 -0.7526  0.2780 -0.1706
   82MOL    H4726129   1.977   2.292   0.811  0.5912  2.1183  1.1106
   82MOL    H4826130   2.132   2.251   0.874 -1.0972  1.0291  1.6751
   82MOL    H4926131   2.033   2.129   0.789 -1.5719 -0.2545 -0.0071
   82MOL    C5026132   2.226   1.924   1.060  0.1511  1.1319 -0.4053
   82MOL    C5126133   2.332   1.989   0.967 -0.7827  0.1281  0.1226
   82MOL    O5226134   2.321   1.913   0.844 -0.3509 -0.2246 -0.1853
   82MOL    C5326135   2.381   1.978   0.736 -0.2396  0.4749  0.0134
   82MOL    C5426136   2.289   2.086   0.668  0.0936  0.5148 -0.1937
   82MOL    C5526137   2.412   1.865   0.635  0.0261 -0.3977 -0.4246
   82MOL    H5626138   2.246   1.952   1.163 -0.7203 -0.6118  0.2565
   82MOL    H5726139   2.228   1.815   1.049 -0.5011  1.1428 -0.6406
   82MOL    H5826140   2.303   2.093   0.961  0.6265  0.4219 -2.3046
   82MOL    H5926141   2.470   2.039   0.751  0.6920 -0.1985 -2.4623
   82MOL    H6026142   2.194   2.046   0.633  0.1059  0.1638  0.1662
   82MOL    H6126143   2.354   2.130   0.593  1.3324 -0.8806  0.0277
   82MOL    H6226144   2.270   2.171   0.734 -2.5547  0.6649 -1.1065
   82MOL    H6326145   2.476   1.923   0.569  1.1727  1.0552  1.9014
   82MOL    H6426146   2.326   1.827   0.579 -0.2875  1.5241 -1.2936
   82MOL    H6526147   2.472   1.779   0.666 -2.3844 -1.7345  0.7350
   82MOL    C6626148   2.474   1.969   1.028  0.2381 -0.8113  0.1446
   82MOL    C6726149   2.516   2.065   1.141  0.5089  0.2939  0.1768
   82MOL    O6826150   2.502   2.204   1.114  0.5942 -0.2513  0.5491
   82MOL    C6926151   2.396   2.267   1.183 -0.4088  0.0563 -0.7296
   82MOL    C7026152   2.445   2.318   1.324  0.4421  0.0304  0.9177
   82MOL    C7126153   2.341   2.370   1.082 -0.4578  0.0028  0.4950
   82MOL    H7226154   2.482   1.867   1.063 -1.0448 -0.8177  0.4540
   82MOL    H7326155   2.541   1.971   0.941 -1.1162 -2.0383 -0.9568
   82MOL    H7426156   2.462   2.035   1.231 -0.2121  2.1180  0.3818
   82MOL    H7526157   2.313   2.199   1.203  0.2762 -0.6522 -0.2398
   82MOL    H7626158   2.463   2.241   1.399 -1.3175 -1.4860 -0.1949
   82MOL    H7726159   2.541   2.370   1.314 -0.6713  1.5853 -2.0994
   82MOL    H7826160   2.379   2.393   1.369  0.3207 -0.1258  1.0001
   82MOL    H7926161   2.318   2.317   0.989 -0.6965  0.5065  0.2628
   82MOL    H8026162   2.413   2.443   1.044  0.8333 -1.1338  0.7343
   82MOL    H8126163   2.257   2.426   1.124 -2.0017 -2.8235  1.3000
   82MOL    C8226164   2.660   2.063   1.192 -0.4007  0.1300  0.3408
   82MOL    C8326165   2.718   1.921   1.232 -0.2892  0.4129  0.1756
   82MOL    O8426166   2.859   1.919   1.243 -0.9254  0.4208  0.0859
   82MOL    C8526167   2.934   1.943   1.125 -0.0678  0.5019 -0.5108
   82MOL    C8626168   2.931   1.815   1.040 -0.3908 -1.3824  0.1588
   82MOL    C8726169   3.072   1.971   1.184  0.1561  0.5811  0.5687
   82MOL    H8826170   2.718   2.106   1.111  0.3647  0.7751  1.2176
   82MOL    H8926171   2.672   2.132   1.276 -0.6482 -2.1535  2.3065
   82MOL    H9026172   2.689   1.848   1.157 -2.0131  0.5278  0.7018
   82MOL    H9126173   2.906   2.024   1.058 -0.0416  1.0824  0.1716
   82MOL    H9226174   2.963   1.726   1.093 -0.6596 -1.6022 -0.0494
   82MOL    H9326175   2.833   1.800   0.996 -0.7763  0.9854  0.0959
   82MOL    H9426176   2.998   1.834   0.956 -1.7814 -0.9685 -0.8654
   82MOL    H9526177   3.079   2.077   1.210  1.1546  0.3496  1.2348
   82MOL    H9626178   3.082   1.915   1.276  0.8028  1.3648  0.9801
   82MOL    H9726179   3.150   1.950   1.110  0.2612  1.3890  0.4374
   82MOL    C9826180   2.664   1.870   1.364  0.2037 -0.7289  0.3148
   82MOL    C9926181   2.644   1.722   1.388 -0.1717 -0.0694  0.1016
   82MOL   O10026182   2.537   1.714   1.488  0.1613 -0.0441  0.1988
   82MOL   C10126183   2.423   1.640   1.459 -0.2802 -0.3190  0.2153
   82MOL   C10226184   2.323   1.729   1.388 -0.3992 -0.1253 -0.8968
   82MOL   C10326185   2.367   1.581   1.597  0.0204 -0.1733  0.6203
   82MOL   H10426186   2.716   1.913   1.450 -1.5573 -0.3675  1.2191
   82MOL   H10526187   2.563   1.908   1.375  0.2010 -0.7904  0.5067
   82MOL   H10626188   2.610   1.688   1.291 -2.1784  1.9033  0.0745
   82MOL   H10726189   2.444   1.555   1.394 -0.8259  0.6334 -1.2210
   82MOL   H10826190   2.372   1.757   1.294  0.7834  1.6827  0.2222
   82MOL   H10926191   2.292   1.823   1.434  1.1260 -0.2313  0.3518
   82MOL   H11026192   2.237   1.669   1.360 -1.2991  0.6647  0.1067
   82MOL   H11126193   2.278   1.520   1.578 -0.3342  0.4969  0.1068
   82MOL   H11226194   2.350   1.658   1.671  0.1375  1.6869 -1.2330
   82MOL   H11326195   2.441   1.514   1.642  1.7674  2.1247  1.2768
   82MOL   C11426196   2.774   1.653   1.447  0.0678  0.0011 -0.0800
   82MOL   C11526197   2.762   1.499   1.457 -0.2987 -0.3690  0.2217
   82MOL   O11626198   2.753   1.431   1.330  0.0534  0.2668 -0.2251
   82MOL   C11726199   2.868   1.416   1.247  0.0842 -0.2355 -0.2344
   82MOL   C11826200   2.819   1.453   1.110  0.7937 -0.0087  0.0554
   82MOL   C11926201   2.915   1.266   1.260  0.0437 -0.0586 -0.2733
   82MOL   H12026202   2.780   1.691   1.549 -1.3254 -0.3625  0.1557
   82MOL   H12126203   2.857   1.671   1.379 -0.1995 -0.8952 -0.6489
   82MOL   H12226204   2.661   1.479   1.493 -0.5778  0.1810 -0.2379
   82MOL   H12326205   2.947   1.488   1.265  0.3681 -0.7874  0.7631
   82MOL   H12426206   2.797   1.559   1.121  3.1284  0.6114 -1.0124
   82MOL   H12526207   2.730   1.397   1.082  0.9795 -0.9132  1.2491
   82MOL   H12626208   2.898   1.440   1.036  0.8781 -0.6027  0.2453
   82MOL   H12726209   2.982   1.256   1.175  1.0933  0.1474  0.5244
   82MOL   H12826210   2.845   1.184   1.272 -0.2789  0.0902 -1.1426
   82MOL   H12926211   2.970   1.265   1.354  1.5838  1.1235 -1.1426
   82MOL   C13026212   2.881   1.445   1.544  0.1254  0.2739  0.8766
   82MOL   C13126213   2.884   1.476   1.690  0.8423 -0.3515  0.1873
   82MOL   O13226214   2.962   1.368   1.758  0.0938  0.0966  0.1339
   82MOL   C13326215   3.101   1.406   1.775 -0.1453 -0.1431  0.0926
   82MOL   C13426216   3.128   1.472   1.919  0.5458  0.0375 -0.1548
   82MOL   C13526217   3.184   1.273   1.757  0.3644  0.1564  0.6769
   82MOL   H13626218   2.979   1.451   1.495 -1.0772 -0.3166 -1.6674
   82MOL   H13726219   2.862   1.337   1.546  1.5172  0.0258  2.0677
   82MOL   H13826220   2.936   1.569   1.713 -0.2164 -0.0539  1.4134
   82MOL   H13926221   3.147   1.473   1.702  1.2882  0.1733  1.2529
   82MOL   H14026222   3.236   1.481   1.933  0.3800 -0.3487  1.5300
   82MOL   H14126223   3.091   1.427   2.012  0.4899  0.5350  0.0621
   82MOL   H14226224   3.092   1.574   1.926 -1.2100 -0.6862  1.9810
   82MOL   H14326225   3.282   1.292   1.800  0.7620 -0.9300  0.2550
   82MOL   H14426226   3.124   1.192   1.799 -2.0100  1.1019 -0.7298
   82MOL   H14526227   3.201   1.242   1.654  0.4797  0.4081  0.6191
   82MOL   C14626228   2.750   1.463   1.773  1.0875  0.9313  0.0645
   82MOL   C14726229   2.755   1.528   1.920  0.1478 -0.4903 -0.5888
   82MOL   O14826230   2.669   1.647   1.921 -0.1561  0.1328  0.0790
   82MOL   C14926231   2.718   1.765   1.850  0.4997  0.5542  0.1716
   82MOL   C15026232   2.775   1.848   1.963 -1.1747  0.1875  0.6904
   82MOL   C15126233   2.605   1.847   1.784 -0.5744  0.0557 -0.0684
   82MOL   H15226234   2.710   1.362   1.765 -1.8140  1.9791  0.5848
   82MOL   H15326235   2.663   1.516   1.735  0.9651  1.9865  1.7661
   82MOL   H15426236   2.855   1.563   1.944 -1.1527  2.7640  0.2900
   82MOL   H15526237   2.787   1.739   1.770 -0.5316  0.2808 -0.6530
   82MOL   H15626238   2.711   1.854   2.051 -1.0742 -1.4571  0.8944
   82MOL   H15726239   2.800   1.949   1.930  1.0196 -0.5785 -0.0657
   82MOL   H15826240   2.869   1.803   1.993 -0.2803  1.7752  0.3138
   82MOL   H15926241   2.541   1.786   1.721 -1.1905  1.3562 -0.7187
   82MOL   H16026242   2.646   1.926   1.721  0.9176 -2.4435 -2.3259
   82MOL   H16126243   2.551   1.895   1.866 -0.1909 -2.5496  1.7704
   82MOL   C16226244   2.696   1.435   2.031 -0.1689 -0.8050 -0.2950
   82MOL   C16326245   2.704   1.493   2.174 -0.6349 -0.1356  0.7361
   82MOL   O16426246   2.629   1.425   2.271 -0.0921  0.5031 -0.1577
   82MOL   C16526247   2.488   1.461   2.272 -0.1964 -0.6101  0.1829
   82MOL   C16626248   2.468   1.582   2.363  0.6735 -0.1186 -0.1830
   82MOL   C16726249   2.421   1.344   2.343  0.3306 -0.0808 -0.1937
   82MOL   H16826250   2.593   1.412   2.005 -0.3008 -0.6415  0.0817
   82MOL   H16926251   2.739   1.334   2.028 -3.3034 -2.1520 -2.9479
   82MOL   H17026252   2.681   1.599   2.173  0.1986  0.0467  0.5784
   82MOL   H17126253   2.461   1.476   2.168  3.2023 -1.4125 -0.8975
   82MOL   H17226254   2.476   1.554   2.468  1.5010  0.7207 -0.0119
   82MOL   H17326255   2.368   1.625   2.351  0.0269 -1.2208  1.0973
   82MOL   H17426256   2.541   1.658   2.336 -0.1689  0.4462 -0.9017
   82MOL   H17526257   2.448   1.249   2.295  1.1690 -0.3202  0.7293
   82MOL   H17626258   2.313   1.340   2.335  0.3758  0.9896 -1.5196
   82MOL   H17726259   2.450   1.334   2.448 -2.6431 -2.4855  0.4741
   82MOL   C17826260   2.841   1.482   2.243 -0.0527 -0.2765  0.0990
   82MOL   C17926261   2.858   1.566   2.373 -0.5922 -0.0854  0.0200
   82MOL   O18026262   2.992   1.541   2.418  0.0378  0.4766 -0.4253
   82MOL   C18126263   3.010   1.450   2.525  0.6173 -0.9795  0.3165
   82MOL   C18226264   3.151   1.472   2.571  0.1710 -0.6497  0.3261
   82MOL   C18326265   2.982   1.305   2.492 -0.4985  0.4280 -0.1181
   82MOL   H18426266   2.920   1.517   2.177 -0.4447 -2.4103 -1.5692
   82MOL   H18526267   2.871   1.379   2.260  0.4573 -0.1132  0.1778
   82MOL   H18626268   2.775   1.543   2.440 -0.7759 -1.6156 -0.7052
   82MOL   H18726269   2.944   1.477   2.608  1.5060 -1.9325  1.3483
   82MOL   H18826270   3.229   1.442   2.502  1.3796  0.4581  1.1712
   82MOL   H18926271   3.181   1.409   2.655  2.0163 -2.3564 -1.5437
   82MOL   H19026272   3.167   1.577   2.596 -0.3313 -0.4814 -0.0766
   82MOL   H19126273   3.044   1.275   2.408  1.6436  1.6348  0.9898
   82MOL   H19226274   2.879   1.293   2.457 -1.1648 -2.3653  2.5548
   82MOL   H19326275   2.996   1.234   2.574 -0.3707 -1.0573 -1.3971
   82MOL   C19426276   2.862   1.716   2.349 -0.8021  0.1891  0.1429
   82MOL   C19526277   2.877   1.796   2.481 -0.6851  0.4675  0.2940
   82MOL   O19626278   2.747   1.772   2.535  0.5250  0.3644 -0.4506
   82MOL   C19726279   2.746   1.792   2.677  0.5601  0.0835 -0.2875
   82MOL   C19826280   2.602   1.835   2.718  0.8674 -0.1850  0.4488
   82MOL   C19926281   2.798   1.672   2.756 -0.4143  0.4831  0.0165
   82MOL   H20026282   2.940   1.743   2.278 -2.4899 -0.1090 -1.8831
   82MOL   H20126283   2.769   1.749   2.302 -0.7548 -0.3124 -0.3071
   82MOL   H20226284   2.952   1.747   2.543 -1.6090  0.1265  1.1590
   82MOL   H20326285   2.804   1.882   2.698 -0.8551  0.8179  0.5890
   82MOL   H20426286   2.595   1.871   2.821  0.0945 -1.5033  0.8670
   82MOL   H20526287   2.564   1.906   2.644 -1.3397 -2.2726 -0.4980
   82MOL   H20626288   2.537   1.748   2.707 -0.6597  0.8325  1.1606
   82MOL   H20726289   2.902   1.649   2.734 -0.4778 -0.7071  0.9331
   82MOL   H20826290   2.784   1.685   2.863  0.4413 -1.6465  0.4026
   82MOL   H20926291   2.739   1.584   2.728 -0.8531 -0.0978  2.6254
   82MOL   C21026292   2.898   1.946   2.444  0.1186  0.2061  0.6226
   82MOL   C21126293   3.048   1.988   2.438 -0.4166 -0.0209 -0.3712
   82MOL   O21226294   3.046   2.110   2.363 -0.5373  0.3052  0.1815
   82MOL   C21326295   3.061   2.100   2.223  0.5790  0.7415 -0.0451
   82MOL   C21426296   3.018   2.241   2.171 -0.4546 -0.7755  0.2867
   82MOL   C21526297   3.202   2.063   2.193 -0.4986 -0.0538 -0.2797
   82MOL   H21626298   2.839   2.014   2.505 -3.0179 -3.0884  1.4278
   82MOL   H21726299   2.851   1.963   2.347  0.9164 -0.5348  0.0916
   82MOL   H21826300   3.111   1.912   2.391  2.6049  2.4957 -0.5628
   82MOL   H21926301   2.991   2.023   2.192  2.3093 -0.4309 -1.1022
   82MOL   H22026302   3.018   2.248   2.062  1.7911  1.4804  0.3805
   82MOL   H22126303   3.093   2.310   2.208 -0.0080 -1.2832  0.3395
   82MOL   H22226304   2.927   2.283   2.213 -0.3752  1.0694 -1.3427
   82MOL   H22326305   3.263   2.147   2.227 -0.1431 -0.9588  1.3629
   82MOL   H22426306   3.216   2.048   2.086 -1.2739 -0.3399 -0.3361
   82MOL   H22526307   3.246   1.979   2.246  2.2638  1.7850  0.4984
   82MOL   C22626308   3.111   2.018   2.574  0.7010 -0.4572  0.3443
   82MOL   C22726309   3.265   2.050   2.560  0.0289 -0.2560 -0.8060
   82MOL   O22826310   3.340   1.982   2.663  0.0986  0.2777  0.1839
   82MOL   C22926311   3.352   1.841   2.654  0.0162  0.1496 -0.4330
   82MOL   C23026312   3.363   1.777   2.800 -0.5548  0.0498 -0.7778
   82MOL   C23126313   3.466   1.800   2.557  0.1510 -0.2389 -0.9330
   82MOL   H23226314   3.099   1.934   2.642 -2.5848 -1.1354 -0.9725
   82MOL   H23326315   3.059   2.101   2.622 -1.1515 -0.1642 -2.0798
   82MOL   H23426316   3.304   2.016   2.463 -3.7637  0.1173 -2.5645
   82MOL   H23526317   3.260   1.801   2.612  0.4972 -1.2176 -0.2333
   82MOL   H23626318   3.272   1.797   2.857 -0.3933 -2.2037  0.3161
   82MOL   H23726319   3.376   1.669   2.788 -1.8837  0.0911 -2.9501
   82MOL   H23826320   3.433   1.818   2.872 -0.4157  0.7710 -1.3203
   82MOL   H23926321   3.455   1.848   2.459 -1.4940 -1.2951 -1.2873
   82MOL   H24026322   3.454   1.693   2.541  2.9395 -1.0238  1.7982
   82MOL   H24126323   3.567   1.810   2.595 -1.2887 -0.1414  3.0853
   82MOL   C24226324   3.309   2.191   2.563  0.4312  0.0825  0.1479
   82MOL   C24326325   3.460   2.202   2.549 -0.0166 -0.1690 -0.3680
   82MOL   O24426326   3.489   2.341   2.574 -0.4378  0.0224 -0.1128
   82MOL   C24526327   3.592   2.365   2.678  0.7514  0.2328 -0.4950
   82MOL   C24626328   3.643   2.503   2.643 -0.7309 -0.4433  0.0600
   82MOL   C24726329   3.530   2.363   2.816  0.4503  0.8866 -0.2874
   82MOL   H24826330   3.255   2.254   2.493 -0.6791  3.1511  3.5881
   82MOL   H24926331   3.276   2.234   2.658 -2.4144 -2.9241  0.6215
   82MOL   H25026332   3.495   2.132   2.624 -0.0066  0.4539  0.2131
   82MOL   H25126333   3.665   2.284   2.684 -0.1848 -0.5823 -0.0022
   82MOL   H25226334   3.718   2.500   2.564 -0.5422 -3.0269  0.3201
   82MOL   H25326335   3.565   2.568   2.602 -0.5865 -0.0220  0.4426
   82MOL   H25426336   3.682   2.557   2.730  1.7077  1.1481 -1.9483
   82MOL   H25526337   3.598   2.412   2.885 -1.3706  1.0280  1.4376
   82MOL   H25626338   3.442   2.425   2.822  0.7420  1.1210  2.0405
   82MOL   H25726339   3.502   2.263   2.851  0.2775  0.1750 -2.3571
   82MOL   C25826340   3.518   2.162   2.407 -0.2414 -0.0607  0.3678
   82MOL   C25926341   3.669   2.180   2.379 -0.1322 -0.0150  0.4409
   82MOL   O26026342   3.698   2.171   2.234  0.0617  0.2392 -0.1275
   82MOL   C26126343   3.705   2.291   2.156 -0.2627 -0.4206 -0.3703
   82MOL   C26226344   3.844   2.353   2.147  0.3645  1.4156  0.1156
   82MOL   C26326345   3.645   2.245   2.027 -0.0994  0.6069 -0.2530
   82MOL   H26426346   3.492   2.057   2.395 -0.2457 -0.1272  0.9640
   82MOL   H26526347   3.459   2.224   2.339 -0.1887 -0.6346 -0.2166
   82MOL   H26626348   3.716   2.273   2.409  1.9362 -1.0252  0.4194
   82MOL   H26726349   3.641   2.371   2.193  1.2800 -0.4291  2.4509
   82MOL   H26826350   3.912   2.272   2.119  1.2941  1.6499  1.7031
   82MOL   H26926351   3.871   2.368   2.251 -1.9384  0.6357  0.8710
   82MOL   H27026352   3.851   2.441   2.084 -2.8920  2.1987  0.7414
   82MOL   H27126353   3.543   2.209   2.036 -0.4974  2.2825  2.5022
   82MOL   H27226354   3.627   2.329   1.960 -0.3418  0.4499 -0.3864
   82MOL   H27326355   3.719   2.180   1.980  1.8408  1.4574  1.5169
   82MOL   C27426356   3.752   2.073   2.453 -0.1973  0.2483  0.0244
   82MOL   C27526357   3.899   2.062   2.406 -0.1526  0.3513  0.0740
   82MOL   O27626358   3.981   2.024   2.518  0.3647  0.4095 -0.0131
   82MOL   C27726359   4.064   2.116   2.588 -1.3422 -0.2743  0.4505
   82MOL   C27826360   4.153   2.039   2.690 -0.2738 -0.4941 -0.0859
   82MOL   C27926361   3.987   2.226   2.649  0.0485 -0.0037 -0.8167
   82MOL   H28026362   3.753   2.102   2.558 -1.7634 -0.9723  0.4099
   82MOL   H28126363   3.702   1.976   2.454 -0.3594  0.2998 -1.4294
   82MOL   H28226364   3.926   2.159   2.363 -0.1053  0.7420  0.9715
   82MOL   H28326365   4.120   2.174   2.514 -1.2116 -0.7429  0.1814
   82MOL   H28426366   4.227   2.109   2.731 -0.2594 -0.6557  0.1608
   82MOL   H28526367   4.098   1.988   2.769 -2.4401  0.4437 -0.9576
   82MOL   H28626368   4.202   1.953   2.645 -0.8116 -0.7704 -0.1397
   82MOL   H28726369   3.918   2.179   2.718  0.3119  0.3702 -0.2989
   82MOL   H28826370   3.933   2.298   2.589 -0.8134  0.8234  0.9274
   82MOL   H28926371   4.039   2.296   2.714  0.3192 -0.9339 -0.0251
   82MOL   C29026372   3.914   1.952   2.295  0.2741  0.1007 -0.8333
   82MOL   C29126373   4.063   1.952   2.241 -0.2373 -0.4824 -1.0522
   82MOL   O29226374   4.080   1.851   2.146 -0.3967 -0.4930  0.3443
   82MOL   C29326375   4.099   1.717   2.189  0.2976  0.0799 -0.0415
   82MOL   C29426376   4.244   1.687   2.227  0.6874 -0.2036  0.6552
   82MOL   C29526377   4.058   1.635   2.065 -0.5305  0.6827  0.5293
   82MOL   H29626378   3.839   1.963   2.217 -0.3493  0.3632 -0.2084
   82MOL   H29726379   3.887   1.851   2.327 -2.6790  1.0475 -0.1456
   82MOL   H29826380   4.119   1.929   2.333  1.5659  0.2524 -1.9339
   82MOL   H29926381   4.031   1.692   2.270 -0.2090 -0.9382 -0.7545
   82MOL   H30026382   4.308   1.726   2.148  1.2759 -0.4334  1.0179
   82MOL   H30126383   4.284   1.725   2.321  4.8315 -0.7475 -0.7998
   82MOL   H30226384   4.259   1.580   2.238 -1.8254 -0.3370  3.3348
   82MOL   H30326385   3.954   1.656   2.039 -0.0421  1.0641 -1.1256
   82MOL   H30426386   4.121   1.655   1.979 -0.8394  0.0488  0.1487
   82MOL   H30526387   4.066   1.526   2.076  0.1051  0.6910  0.1571
   82MOL   C30626388   4.102   2.082   2.173  0.3876 -0.5492  0.0616
   82MOL   C30726389   4.252   2.080   2.135  0.2816 -0.3427 -0.3501
   82MOL   O30826390   4.336   2.159   2.216 -0.0611 -0.3003 -0.4326
   82MOL   C30926391   4.384   2.091   2.326 -0.1736  0.3876 -0.4927
   82MOL   C31026392   4.513   2.022   2.285 -0.1925 -0.2738 -0.5793
   82MOL   C31126393   4.412   2.191   2.436  0.4418  0.0785 -0.0664
   82MOL   H31226394   4.088   2.178   2.224  0.8481 -0.6079  0.3083
   82MOL   H31326395   4.047   2.083   2.079 -0.4549 -2.1010  0.5263
   82MOL   H31426396   4.288   1.978   2.122  0.6108 -0.1833 -0.7110
   82MOL   H31526397   4.317   2.015   2.366 -0.0275  0.9671  0.8683
   82MOL   H31626398   4.574   2.076   2.213  1.0461 -2.6103 -1.3192
   82MOL   H31726399   4.474   1.935   2.232 -2.0365  0.5434 -0.5979
   82MOL   H31826400   4.576   1.984   2.366 -0.8194 -0.1516 -0.0327
   82MOL   H31926401   4.326   2.254   2.460 -0.4764 -1.0301 -0.3956
   82MOL   H32026402   4.483   2.267   2.403  0.5003 -0.3056 -0.8344
   82MOL   H32126403   4.449   2.132   2.521  0.6730  2.0462  1.2236
   82MOL   H32226404   4.253   2.117   2.032  0.0340 -0.6310 -0.4609
   83MOL     C126405   1.278   3.781   0.725 -0.0867 -0.3196  0.4080
   83MOL     C226406   1.342   3.732   0.593  0.3992 -0.2582 -0.3518
   83MOL     O326407   1.466   3.808   0.572 -0.4870  0.2384  0.3533
   83MOL     C426408   1.463   3.905   0.463  0.0075  0.2852 -0.0036
   83MOL     C526409   1.612   3.922   0.422 -0.4145 -0.7729  0.2541
   83MOL     C626410   1.394   4.039   0.492  0.1435  0.3960 -0.6260
   83MOL     H726411   1.229   3.876   0.706 -1.9611 -1.2392  0.5701
   83MOL     H826412   1.202   3.713   0.763 -0.2261 -0.1405  0.4524
   83MOL     H926413   1.278   3.753   0.507 -0.2122 -0.9953 -0.0821
   83MOL    H1026414   1.401   3.861   0.385  0.8472 -1.1499  0.1194
   83MOL    H1126415   1.671   3.974   0.497 -0.1940 -0.0902 -0.3924
   83MOL    H1226416   1.653   3.822   0.412  0.1741 -0.2878 -2.4327
   83MOL    H1326417   1.636   3.985   0.337  1.7131  0.6404  1.8481
   83MOL    H1426418   1.420   4.082   0.589  0.3228 -0.2461 -0.3850
   83MOL    H1526419   1.414   4.117   0.418 -0.3464  2.3674  1.2482
   83MOL    H1626420   1.286   4.031   0.505  0.2065 -2.7956 -1.7200
   83MOL    H1726421   1.358   3.792   0.799  0.9689 -0.6818 -0.6670
   83MOL    C1826422   1.382   3.588   0.602 -0.4028 -0.4746  0.1164
   83MOL    C1926423   1.447   3.524   0.479  0.2321  0.0667  0.0459
   83MOL    O2026424   1.339   3.495   0.390  0.1939  0.1281 -0.1308
   83MOL    C2126425   1.370   3.493   0.252  0.4274  0.5130 -0.0793
   83MOL    C2226426   1.367   3.633   0.181  0.1689  0.7649  0.8704
   83MOL    C2326427   1.269   3.395   0.180 -0.0567  0.0086 -0.4779
   83MOL    H2426428   1.448   3.568   0.686  0.3373  2.3909  0.2681
   83MOL    H2526429   1.295   3.528   0.628  1.0020 -4.2323 -3.2949
   83MOL    H2626430   1.516   3.596   0.436 -0.3800  0.7129  0.1452
   83MOL    H2726431   1.469   3.453   0.229  0.5296 -0.0691  1.3548
   83MOL    H2826432   1.406   3.627   0.079 -0.2050 -1.1923  0.8229
   83MOL    H2926433   1.266   3.673   0.180  0.6487  1.9946  0.1684
   83MOL    H3026434   1.433   3.696   0.240  1.2254  0.6129 -0.1173
   83MOL    H3126435   1.263   3.293   0.218 -0.3477  0.1576 -0.1245
   83MOL    H3226436   1.288   3.386   0.072 -0.3148 -0.8048 -0.4594
   83MOL    H3326437   1.170   3.440   0.182  0.3045  0.7506  1.3063
   83MOL    C3426438   1.524   3.397   0.502 -0.8008  0.6799 -0.1158
   83MOL    C3526439   1.665   3.409   0.562 -0.3171 -0.0559 -0.3922
   83MOL    O3626440   1.690   3.274   0.602 -0.0326  0.4531 -0.2904
   83MOL    C3726441   1.763   3.263   0.728 -0.2924  0.1995 -0.3624
   83MOL    C3826442   1.662   3.280   0.848 -0.3912  0.1835  0.6024
   83MOL    C3926443   1.845   3.129   0.736 -0.4379 -0.6211 -0.7946
   83MOL    H4026444   1.533   3.337   0.411 -1.7438  0.6155 -0.1720
   83MOL    H4126445   1.461   3.333   0.565  0.3510 -0.0236  0.3434
   83MOL    H4226446   1.657   3.473   0.649  0.3885 -0.8630  0.2807
   83MOL    H4326447   1.835   3.345   0.739  0.6032 -0.3517 -2.0088
   83MOL    H4426448   1.603   3.372   0.850  1.4721  1.4140  0.0957
   83MOL    H4526449   1.703   3.271   0.949  1.1456 -1.0367 -0.1025
   83MOL    H4626450   1.590   3.199   0.839 -0.3465  0.2239 -0.0823
   83MOL    H4726451   1.896   3.118   0.833  3.0970 -1.0410 -2.6073
   83MOL    H4826452   1.791   3.040   0.704  2.0359 -2.0061 -1.2828
   83MOL    H4926453   1.926   3.139   0.664  0.0877  0.1239 -0.1060
   83MOL    C5026454   1.781   3.468   0.480 -0.6045 -0.4520  0.4536
   83MOL    C5126455   1.798   3.420   0.332 -0.4790 -0.0800  0.0602
   83MOL    O5226456   1.842   3.287   0.342 -0.5663  0.1570 -0.2846
   83MOL    C5326457   1.772   3.180   0.277  0.4815 -0.4769 -0.2414
   83MOL    C5426458   1.826   3.044   0.336  0.2278  0.0835  0.0934
   83MOL    C5526459   1.777   3.195   0.129  0.3854  0.2891  0.0595
   83MOL    H5626460   1.772   3.576   0.469  0.6105 -0.1249  2.2364
   83MOL    H5726461   1.876   3.451   0.532  1.3314  0.1581 -2.7211
   83MOL    H5826462   1.699   3.435   0.288  0.7584  1.8356 -2.1736
   83MOL    H5926463   1.669   3.185   0.313  1.5520 -0.4641  2.9252
   83MOL    H6026464   1.934   3.039   0.333  0.1106 -2.0151 -1.6188
   83MOL    H6126465   1.792   2.957   0.280  1.1513  0.8055 -1.6229
   83MOL    H6226466   1.799   3.025   0.440  0.6983  1.1093  0.4040
   83MOL    H6326467   1.879   3.200   0.092  0.7150 -0.0764  0.9038
   83MOL    H6426468   1.709   3.273   0.094 -0.7125 -0.6507  0.0437
   83MOL    H6526469   1.738   3.109   0.074 -1.9942  1.8539 -0.8042
   83MOL    C6626470   1.914   3.495   0.254  0.3071  0.2193  0.0897
   83MOL    C6726471   1.888   3.642   0.213  0.3337 -0.5644  0.6007
   83MOL    O6826472   1.876   3.727   0.329  0.5273  0.6839  0.4093
   83MOL    C6926473   1.997   3.764   0.389 -0.7848  1.1550  0.0134
   83MOL    C7026474   2.041   3.901   0.332  0.0625  0.0419 -0.8783
   83MOL    C7126475   1.981   3.756   0.545 -0.3148 -0.3486 -0.2975
   83MOL    H7226476   2.010   3.499   0.307  0.2852  0.2517  0.1267
   83MOL    H7326477   1.931   3.441   0.161 -1.2530 -1.3828  0.7158
   83MOL    H7426478   1.982   3.680   0.173  0.5882 -1.0030  0.7779
   83MOL    H7526479   2.080   3.693   0.385  0.1926  2.2133  0.8088
   83MOL    H7626480   1.978   3.977   0.379  1.1288 -0.0830  0.8148
   83MOL    H7726481   2.137   3.925   0.377 -0.3495  0.3445 -0.1389
   83MOL    H7826482   2.056   3.914   0.225  3.3607 -0.5133 -0.5322
   83MOL    H7926483   1.907   3.827   0.582 -0.9875 -0.5352 -1.2583
   83MOL    H8026484   2.069   3.784   0.602 -1.1249  1.6101  0.0441
   83MOL    H8126485   1.935   3.660   0.570  1.1741 -1.2526 -0.9793
   83MOL    C8226486   1.776   3.663   0.108  1.1048  0.7766  0.6404
   83MOL    C8326487   1.781   3.786   0.016  0.8045  0.6100 -0.8847
   83MOL    O8426488   1.678   3.773   7.740  0.7690 -0.1464 -0.2244
   83MOL    C8526489   1.713   3.811   7.608  0.0191 -0.5317 -0.4826
   83MOL    C8626490   1.588   3.877   7.529 -0.0104 -0.2750 -0.4631
   83MOL    C8726491   1.763   3.683   7.535  0.9628  0.0610  0.4497
   83MOL    H8826492   1.771   3.571   0.049 -0.4282  0.6141  0.9944
   83MOL    H8926493   1.683   3.663   0.165  1.4124  0.4333  1.1370
   83MOL    H9026494   1.875   3.776   7.782  0.6272 -1.6202 -0.8074
   83MOL    H9126495   1.789   3.888   7.621 -1.0947  0.5593 -0.2824
   83MOL    H9226496   1.497   3.818   7.532  0.7429 -1.5034 -1.0415
   83MOL    H9326497   1.564   3.972   7.576 -0.0454 -0.5435  0.0696
   83MOL    H9426498   1.612   3.895   7.424 -0.3338  1.8984 -0.1782
   83MOL    H9526499   1.681   3.634   7.481 -0.3149 -0.2876  2.6601
   83MOL    H9626500   1.824   3.720   7.452 -0.1388 -1.5346 -1.1117
   83MOL    H9726501   1.807   3.600   7.589 -1.5867 -1.2027  0.6851
   83MOL    C9826502   1.774   3.922   0.081  0.0899 -0.9136 -0.0438
   83MOL    C9926503   1.829   4.058   0.024 -0.3307 -0.3098  0.2600
   83MOL   O10026504   1.971   4.039   0.054  0.6733 -0.4913  0.2395
   83MOL   C10126505   2.060   4.118   7.801  0.6006 -0.8228  0.5666
   83MOL   C10226506   2.110   4.029   7.694 -0.3574 -0.0148  0.0158
   83MOL   C10326507   2.156   4.176   0.075 -0.0435  0.4503 -0.7441
   83MOL   H10426508   1.669   3.951   0.084  0.1734 -0.2949 -2.3429
   83MOL   H10526509   1.794   3.920   0.188 -0.8970  1.3305  0.2138
   83MOL   H10626510   1.806   4.057   7.738 -0.4135 -0.9086  0.2821
   83MOL   H10726511   2.007   4.204   7.759 -1.0240  0.1771  4.4908
   83MOL   H10826512   2.159   3.946   7.744 -3.5742 -1.9548  0.1289
   83MOL   H10926513   2.174   4.082   7.624 -1.5722  0.4968 -0.7392
   83MOL   H11026514   2.021   3.996   7.640 -0.0474 -0.3685 -0.2715
   83MOL   H11126515   2.253   4.214   0.041 -1.3906  3.7445 -1.0453
   83MOL   H11226516   2.165   4.089   0.140 -2.2749  0.6669 -0.1033
   83MOL   H11326517   2.111   4.257   0.133 -0.4289  1.5526 -2.5594
   83MOL   C11426518   1.764   4.179   0.092 -0.3059 -0.7182 -0.3261
   83MOL   C11526519   1.636   4.219   0.012  0.2957 -0.0790 -0.3624
   83MOL   O11626520   1.528   4.194   0.103  0.1887  0.4902 -0.6567
   83MOL   C11726521   1.425   4.118   0.040  0.6532 -0.3590 -0.6554
   83MOL   C11826522   1.332   4.209   7.775 -0.2267 -0.4854 -0.3167
   83MOL   C11926523   1.350   4.043   0.154 -0.2052  0.4012 -0.3940
   83MOL   H12026524   1.842   4.255   0.096 -0.2666 -0.8255  1.2146
   83MOL   H12126525   1.751   4.168   0.199  0.8978  3.8794  0.3793
   83MOL   H12226526   1.642   4.159   7.741  0.4694 -2.3148  1.0776
   83MOL   H12326527   1.468   4.040   7.797 -0.3086  0.3684 -2.2245
   83MOL   H12426528   1.404   4.259   7.711  0.1947  0.8906  1.1847
   83MOL   H12526529   1.280   4.279   0.020  0.1565  0.4328 -0.9754
   83MOL   H12626530   1.258   4.156   7.716 -0.9051 -0.2564  0.3246
   83MOL   H12726531   1.283   4.091   0.226 -0.0858 -1.7998  1.2601
   83MOL   H12826532   1.421   3.981   0.209  0.7864  0.4726 -1.5716
   83MOL   H12926533   1.286   3.969   0.105  1.0507 -1.5817  0.8755
   83MOL   C13026534   1.642   4.374   7.791 -0.0151  0.2561 -1.0562
   83MOL   C13126535   1.718   4.395   7.652  0.1976  0.3243 -0.4975
   83MOL   O13226536   1.756   4.527   7.632  0.3258 -0.0594 -0.2389
   83MOL   C13326537   1.870   4.582   7.707  0.4299  0.3115 -1.0435
   83MOL   C13426538   2.006   4.543   7.659  0.5678 -0.2518 -0.6346
   83MOL   C13526539   1.856   4.731   7.697 -0.4721  0.1779 -0.2629
   83MOL   H13626540   1.686   4.417   0.061 -1.9372 -0.2298  0.1373
   83MOL   H13726541   1.550   4.433   7.789 -0.4207 -0.3116  0.7653
   83MOL   H13826542   1.810   4.337   7.649  0.7070  1.1099 -0.1589
   83MOL   H13926543   1.859   4.552   7.811  0.4958 -0.5931 -1.2958
   83MOL   H14026544   2.028   4.437   7.664 -1.6663 -0.6264  3.4517
   83MOL   H14126545   2.071   4.594   7.729 -0.0305 -1.9274  1.1687
   83MOL   H14226546   2.042   4.588   7.566 -0.7194 -0.6224 -1.3285
   83MOL   H14326547   1.865   4.759   7.592  1.7763  3.7737  0.8067
   83MOL   H14426548   1.753   4.756   7.723  0.7696  1.3335  3.9729
   83MOL   H14526549   1.920   4.786   7.765 -0.2385 -1.6875  1.0812
   83MOL   C14626550   1.622   4.343   7.539 -0.4658 -0.6485 -0.0198
   83MOL   C14726551   1.697   4.353   7.408  0.3877  0.0312  0.2539
   83MOL   O14826552   1.788   4.241   7.408 -0.2550  0.0164 -0.7171
   83MOL   C14926553   1.897   4.240   7.328  0.6767 -0.7518  0.0742
   83MOL   C15026554   1.878   4.137   7.215  0.1870 -0.3492  0.4103
   83MOL   C15126555   2.023   4.222   7.413  0.5485 -0.7712 -0.5537
   83MOL   H15226556   1.541   4.416   7.533 -1.6127 -1.6443  2.2977
   83MOL   H15326557   1.583   4.242   7.557 -0.9662 -0.3879  0.3925
   83MOL   H15426558   1.742   4.452   7.400 -0.0530  0.0190 -2.8018
   83MOL   H15526559   1.905   4.337   7.278 -0.8164  0.3332  1.9037
   83MOL   H15626560   1.967   4.134   7.152 -1.3805 -1.4395 -1.8116
   83MOL   H15726561   1.798   4.160   7.145  0.7257  0.5279  0.0737
   83MOL   H15826562   1.865   4.043   7.267 -0.6598 -1.2807 -1.4380
   83MOL   H15926563   2.113   4.200   7.356  1.2532 -2.3933  1.1300
   83MOL   H16026564   2.015   4.144   7.489  0.4028  2.2797  2.6731
   83MOL   H16126565   2.037   4.318   7.462 -1.5217 -1.4251  1.4093
   83MOL   C16226566   1.595   4.325   7.289 -0.2826 -0.3226 -0.1599
   83MOL   C16326567   1.482   4.417   7.267 -0.9449  0.7087 -0.4264
   83MOL   O16426568   1.537   4.547   7.235  0.0864  0.1392 -0.4063
   83MOL   C16526569   1.459   4.663   7.253  0.1158 -0.3738 -0.2453
   83MOL   C16626570   1.528   4.764   7.162 -0.4212  0.0271  0.3594
   83MOL   C16726571   1.466   4.695   7.401  1.0969 -0.2668 -0.1398
   83MOL   H16826572   1.645   4.304   7.195 -0.8133 -1.0616 -0.2847
   83MOL   H16926573   1.561   4.225   7.317  2.0582  0.1440  4.8941
   83MOL   H17026574   1.422   4.424   7.358 -1.0559  2.1837 -0.6095
   83MOL   H17126575   1.355   4.649   7.226  0.6065 -2.1178 -1.2945
   83MOL   H17226576   1.522   4.721   7.062  0.2410 -0.5224  0.5505
   83MOL   H17326577   1.635   4.783   7.168 -0.1024 -1.5578  0.0586
   83MOL   H17426578   1.454   4.844   7.159 -0.5145 -0.1066 -3.5402
   83MOL   H17526579   1.404   4.630   7.462  0.5733 -0.4994 -0.9214
   83MOL   H17626580   1.433   4.798   7.413  1.8100  0.3983 -3.5264
   83MOL   H17726581   1.566   4.695   7.446  0.3186  1.0381  1.6605
   83MOL   C17826582   1.398   4.365   7.149  0.0658  0.1967 -0.2287
   83MOL   C17926583   1.271   4.276   7.187  0.1741  0.8766 -0.2159
   83MOL   O18026584   1.170   4.360   7.251  0.4522 -0.5562  0.1741
   83MOL   C18126585   1.087   4.279   7.339 -0.3758 -0.4668  0.4603
   83MOL   C18226586   0.948   4.360   7.349 -0.0522 -0.1049  0.1669
   83MOL   C18326587   1.160   4.273   7.474  0.4416 -0.3536 -0.2723
   83MOL   H18426588   1.455   4.333   7.063  0.7536  0.2697  0.1972
   83MOL   H18526589   1.350   4.448   7.098 -2.0767 -2.4871 -2.8340
   83MOL   H18626590   1.310   4.201   7.256  0.4819  1.6183  0.4183
   83MOL   H18726591   1.076   4.176   7.306 -2.3791  0.1340 -0.8225
   83MOL   H18826592   0.910   4.380   7.249  0.7404 -1.9017 -0.5085
   83MOL   H18926593   0.968   4.456   7.397  0.3712  0.1316 -0.4721
   83MOL   H19026594   0.868   4.308   7.401 -2.7143  2.9838 -0.6861
   83MOL   H19126595   1.106   4.222   7.554  1.5252 -0.8079  0.1827
   83MOL   H19226596   1.171   4.373   7.514  1.0551 -0.0465 -1.1987
   83MOL   H19326597   1.260   4.228   7.471 -0.1440 -1.6113 -1.8955
   83MOL   C19426598   1.222   4.202   7.062 -0.0290 -0.6338  0.0967
   83MOL   C19526599   1.258   4.054   7.039  0.0944  0.0907 -0.0914
   83MOL   O19626600   1.187   3.973   7.136  0.0306  0.0334 -0.3308
   83MOL   C19726601   1.057   3.939   7.096 -0.2143 -0.0998  0.2266
   83MOL   C19826602   1.056   3.829   6.989 -0.5787 -0.2599 -0.7996
   83MOL   C19926603   0.974   3.887   7.220  0.5123 -0.0431 -0.5839
   83MOL   H20026604   1.113   4.202   7.067 -0.1612 -0.6185 -2.3187
   83MOL   H20126605   1.245   4.266   6.977  0.4041 -1.0686 -0.1215
   83MOL   H20226606   1.227   4.029   6.937  0.3898  1.1856 -0.4604
   83MOL   H20326607   0.996   4.021   7.058 -2.1489 -1.5269  0.1953
   83MOL   H20426608   0.950   3.819   6.964 -0.1010 -4.0824 -1.6509
   83MOL   H20526609   1.102   3.851   6.892  2.7250  2.2365  1.2203
   83MOL   H20626610   1.092   3.731   7.019 -0.2370  0.3291  0.7468
   83MOL   H20726611   0.980   3.958   7.302 -0.6744  0.1900 -0.6760
   83MOL   H20826612   0.868   3.867   7.199  0.6038 -1.3064  0.1544
   83MOL   H20926613   1.024   3.798   7.255 -1.6864 -0.5459  1.4138
   83MOL   C21026614   1.413   4.025   7.047  0.6553 -0.1298  0.9758
   83MOL   C21126615   1.455   3.897   6.973  0.3943 -0.0983 -0.0026
   83MOL   O21226616   1.593   3.901   6.954 -0.2794  0.0647 -0.3007
   83MOL   C21326617   1.623   3.937   6.821 -0.5232 -0.8377  0.4611
   83MOL   C21426618   1.704   4.069   6.852 -0.3765 -0.2730 -0.2785
   83MOL   C21526619   1.713   3.824   6.768 -0.4475  0.0873  0.6344
   83MOL   H21626620   1.450   4.028   7.149  1.3615 -2.3760  0.8095
   83MOL   H21726621   1.464   4.107   6.996  2.2280 -1.0427  1.0417
   83MOL   H21826622   1.405   3.892   6.876 -0.3972  0.4918  0.3701
   83MOL   H21926623   1.545   3.967   6.750 -0.0775 -1.2567 -0.2174
   83MOL   H22026624   1.762   4.066   6.944 -0.2294  2.2653 -0.2566
   83MOL   H22126625   1.635   4.150   6.875 -0.9793 -1.0869  0.8342
   83MOL   H22226626   1.755   4.115   6.767 -0.8186 -0.8533 -0.8715
   83MOL   H22326627   1.803   3.802   6.825  0.9823  1.2343 -1.1140
   83MOL   H22426628   1.760   3.855   6.674  2.5577 -0.8799  1.7490
   83MOL   H22526629   1.661   3.728   6.763  1.8111 -1.0493 -2.3370
   83MOL   C22626630   1.430   3.776   7.066 -0.0132  0.5070 -0.3561
   83MOL   C22726631   1.439   3.642   7.002  0.1538 -0.1621 -0.0744
   83MOL   O22826632   1.335   3.634   6.901 -0.1535  0.1571 -0.0577
   83MOL   C22926633   1.377   3.588   6.773 -0.2663 -0.1707 -0.7663
   83MOL   C23026634   1.270   3.643   6.674 -0.2932  0.3918 -1.2039
   83MOL   C23126635   1.381   3.434   6.771 -0.2566 -0.3069  0.2512
   83MOL   H23226636   1.330   3.783   7.109  0.2124  0.3362  0.2092
   83MOL   H23326637   1.503   3.789   7.146 -2.8276  0.2970  2.3683
   83MOL   H23426638   1.540   3.638   6.961 -0.2365  0.2848 -1.0847
   83MOL   H23526639   1.474   3.629   6.746  0.6569 -1.1722  0.9181
   83MOL   H23626640   1.172   3.622   6.717 -1.1556  2.7838 -1.9795
   83MOL   H23726641   1.279   3.751   6.665 -0.8045  0.4476 -1.0306
   83MOL   H23826642   1.278   3.586   6.581 -0.6597 -0.6976 -0.5769
   83MOL   H23926643   1.285   3.397   6.809 -0.8900 -0.8209 -1.7859
   83MOL   H24026644   1.462   3.391   6.830 -1.2909 -1.2705  0.9873
   83MOL   H24126645   1.395   3.390   6.672  1.9458 -0.0394  0.4149
   83MOL   C24226646   1.421   3.522   7.093  0.3834 -0.1101  0.3881
   83MOL   C24326647   1.537   3.478   7.178 -0.1419 -0.1755 -0.5475
   83MOL   O24426648   1.639   3.428   7.093  0.4619  0.7321  0.4538
   83MOL   C24526649   1.754   3.495   7.060 -1.3972 -0.3259 -0.2647
   83MOL   C24626650   1.858   3.433   7.153 -0.3599 -0.4358  0.5078
   83MOL   C24726651   1.785   3.473   6.909 -0.3882 -0.1778  0.0412
   83MOL   H24826652   1.334   3.535   7.157  0.4754  1.3365  0.2516
   83MOL   H24926653   1.402   3.437   7.028  5.2545 -0.3881 -0.8962
   83MOL   H25026654   1.563   3.562   7.243  1.8643 -0.6459 -0.7110
   83MOL   H25126655   1.736   3.602   7.060 -0.4651 -0.1662 -1.7423
   83MOL   H25226656   1.958   3.475   7.137  0.1786 -1.0035  2.2456
   83MOL   H25326657   1.841   3.439   7.261 -1.3955  0.1420  0.3121
   83MOL   H25426658   1.871   3.327   7.130  1.3838  0.0310 -0.7403
   83MOL   H25526659   1.877   3.531   6.895  0.6922 -2.3443 -2.1847
   83MOL   H25626660   1.818   3.371   6.893 -0.6026 -0.2348 -0.0418
   83MOL   H25726661   1.715   3.509   6.833 -0.3564  0.9621  0.5372
   83MOL   C25826662   1.503   3.343   7.261  0.3560  0.1001 -0.1114
   83MOL   C25926663   1.411   3.356   7.387 -0.5024  0.1426 -0.0222
   83MOL   O26026664   1.472   3.272   7.490  0.3499 -0.2319 -0.2193
   83MOL   C26126665   1.580   3.322   7.573 -0.4559 -0.1249 -0.1603
   83MOL   C26226666   1.534   3.396   7.701 -0.1329  0.4419  0.1672
   83MOL   C26326667   1.665   3.201   7.609  0.3391  0.5668 -0.7036
   83MOL   H26426668   1.457   3.269   7.196  0.2472  1.2940 -1.4109
   83MOL   H26526669   1.597   3.304   7.300 -0.8448 -0.9005  1.8387
   83MOL   H26626670   1.419   3.459   7.423  1.3899 -0.3007  0.8696
   83MOL   H26726671   1.650   3.388   7.521  0.2165 -1.0471 -0.4221
   83MOL   H26826672   1.628   3.407   7.755 -0.3795  1.1756  0.4439
   83MOL   H26926673   1.458   3.344   7.759  0.3511  1.0405  1.3434
   83MOL   H27026674   1.489   3.492   7.677 -1.6026 -0.5005 -0.9232
   83MOL   H27126675   1.607   3.122   7.657  1.3138 -0.1841 -0.7414
   83MOL   H27226676   1.705   3.156   7.518  2.0186  1.7867 -0.5827
   83MOL   H27326677   1.743   3.226   7.680  0.3387  0.5100 -0.6835
   83MOL   C27426678   1.268   3.312   7.364  0.5252 -0.0050 -0.1647
   83MOL   C27526679   1.178   3.362   7.478 -0.0439  0.2631 -0.0506
   83MOL   O27626680   1.172   3.501   7.460 -0.1923 -0.2200 -0.0091
   83MOL   C27726681   1.123   3.579   7.570  0.8946  0.1238 -0.5714
   83MOL   C27826682   0.982   3.632   7.550  0.3265  0.8251  0.3497
   83MOL   C27926683   1.229   3.687   7.567  0.0509  0.3959  0.1604
   83MOL   H28026684   1.240   3.367   7.274 -1.4939 -0.1172  0.3811
   83MOL   H28126685   1.266   3.205   7.349  0.0144  0.2509 -2.0928
   83MOL   H28226686   1.230   3.341   7.572  0.4918  0.5119 -0.2861
   83MOL   H28326687   1.125   3.524   7.665  2.0633  1.0972 -0.0213
   83MOL   H28426688   0.918   3.565   7.493 -1.6956  2.5126  0.5736
   83MOL   H28526689   0.933   3.660   7.644  0.4764 -2.0325  1.3420
   83MOL   H28626690   0.977   3.714   7.479 -2.5224  1.2665  0.9968
   83MOL   H28726691   1.205   3.753   7.484  0.6130  0.2069 -0.1494
   83MOL   H28826692   1.329   3.648   7.549 -1.0938 -1.3918 -2.5124
   83MOL   H28926693   1.232   3.752   7.655  2.3062  2.2582 -1.2378
   83MOL   C29026694   1.035   3.297   7.474 -0.6531  0.8021 -0.6955
   83MOL   C29126695   1.022   3.144   7.471  0.0400  0.0220  0.1359
   83MOL   O29226696   1.062   3.100   7.602  0.1252 -0.5544  0.2137
   83MOL   C29326697   1.187   3.031   7.610 -1.2060  0.8987 -0.3464
   83MOL   C29426698   1.162   2.879   7.585 -0.1593 -0.5473  0.0799
   83MOL   C29526699   1.241   3.058   7.755  0.6959  0.9540 -0.1297
   83MOL   H29626700   0.976   3.336   7.391  0.9789  2.1561 -1.2289
   83MOL   H29726701   0.980   3.339   7.558 -1.0358  0.5370 -0.8090
   83MOL   H29826702   1.088   3.095   7.400  0.0190 -2.8267  1.9978
   83MOL   H29926703   1.252   3.085   7.540  0.0133 -1.4648 -1.0907
   83MOL   H30026704   1.071   2.840   7.631 -0.9534 -0.4489 -1.3452
   83MOL   H30126705   1.149   2.858   7.479 -2.9957  0.9492  0.0742
   83MOL   H30226706   1.256   2.826   7.599  1.3504  1.1386 -2.9225
   83MOL   H30326707   1.176   3.002   0.003  1.7418 -0.0947  0.0115
   83MOL   H30426708   1.344   3.030   7.773  1.0045  0.0845 -3.0044
   83MOL   H30526709   1.235   3.164   7.779 -0.7514  0.8518  0.0203
   83MOL   C30626710   0.885   3.087   7.435 -0.3148  0.2529  0.4343
   83MOL   C30726711   0.884   2.946   7.369 -0.4350 -0.2789  0.5848
   83MOL   O30826712   0.751   2.911   7.330  0.2046  0.3222  0.1558
   83MOL   C30926713   0.727   2.801   7.245  0.3977 -1.0107 -0.2539
   83MOL   C31026714   0.766   2.669   7.299 -0.0215  0.4994  0.7535
   83MOL   C31126715   0.581   2.810   7.204 -0.8347  0.3392 -0.9868
   83MOL   H31226716   0.833   3.153   7.366  0.4428 -1.9224 -2.2931
   83MOL   H31326717   0.831   3.092   7.530  2.4140  1.5624  1.9659
   83MOL   H31426718   0.958   2.935   7.289 -1.0437 -0.1207 -0.0047
   83MOL   H31526719   0.780   2.806   7.149  0.8450  1.0516  0.0961
   83MOL   H31626720   0.734   2.593   7.228 -0.3801  0.0506  1.3978
   83MOL   H31726721   0.718   2.659   7.396  2.3151  2.3679  2.1713
   83MOL   H31826722   0.875   2.666   7.307  0.2645  0.5307 -2.4358
   83MOL   H31926723   0.508   2.796   7.283  0.2768  0.2331  0.0252
   83MOL   H32026724   0.563   2.735   7.127  0.7459 -0.5202 -0.5446
   83MOL   H32126725   0.558   2.905   7.156 -0.5943  0.8356 -0.1206
   83MOL   H32226726   0.921   2.867   7.435 -0.7215 -2.3974 -1.7013
   84MOL     C126727   2.065   0.232   1.556 -0.6683  0.3112  0.2974
   84MOL     C226728   2.158   0.227   1.681  0.2519 -0.8164 -0.1265
   84MOL     O326729   2.290   0.203   1.629  0.0999 -0.0853 -0.2112
   84MOL     C426730   2.370   0.099   1.699  0.1643 -0.1356 -0.2048
   84MOL     C526731   2.508   0.115   1.636 -0.0447  0.1361  0.0208
   84MOL     C626732   2.322   7.779   1.657 -0.0621 -0.9890  0.2923
   84MOL     H726733   1.959   0.259   1.564 -1.2353 -1.7352 -0.1261
   84MOL     H826734   2.115   0.311   1.499 -0.9494  0.2869  0.0152
   84MOL     H926735   2.122   0.146   1.745 -2.3829  1.6300  1.6044
   84MOL    H1026736   2.380   0.105   1.807 -4.2356 -2.7193  0.4854
   84MOL    H1126737   2.564   0.197   1.681  0.5903 -1.1006  1.5497
   84MOL    H1226738   2.566   0.025   1.655 -0.4867 -0.0158  0.6646
   84MOL    H1326739   2.507   0.131   1.528  1.6225  0.0042 -0.0324
   84MOL    H1426740   2.225   7.764   1.705 -1.1192  0.1212 -1.4330
   84MOL    H1526741   2.309   7.782   1.548  2.7179 -1.2084 -0.0713
   84MOL    H1626742   2.376   7.691   1.693  0.0646 -1.3561 -0.7739
   84MOL    H1726743   2.062   0.140   1.498  0.9329 -0.2962  1.1673
   84MOL    C1826744   2.168   0.365   1.749  0.2084  0.4762  0.6774
   84MOL    C1926745   2.250   0.372   1.882  0.1776  0.5062 -1.0679
   84MOL    O2026746   2.169   0.348   1.995 -0.0611  0.3963  0.1971
   84MOL    C2126747   2.197   0.215   2.044 -0.8132 -0.1670 -0.1529
   84MOL    C2226748   2.079   0.148   2.115  0.0135  0.2498  0.0974
   84MOL    C2326749   2.319   0.236   2.134 -0.0055 -0.1589  0.1971
   84MOL    H2426750   2.202   0.429   1.667 -2.0839  0.0826 -0.6637
   84MOL    H2526751   2.070   0.405   1.776 -0.2472  1.4185 -2.1170
   84MOL    H2626752   2.338   0.308   1.877  1.4554  2.0473  0.9596
   84MOL    H2726753   2.208   0.148   1.959  3.2997  0.6858 -0.4293
   84MOL    H2826754   2.112   0.050   2.149  0.6031  0.0363 -1.0732
   84MOL    H2926755   2.034   0.199   2.200 -1.0616  2.2793 -1.6409
   84MOL    H3026756   1.996   0.142   2.044 -0.5423  0.6797  0.7050
   84MOL    H3126757   2.398   0.293   2.086 -1.3082  0.7115 -0.9599
   84MOL    H3226758   2.352   0.136   2.163  0.0582 -0.7754 -1.9533
   84MOL    H3326759   2.286   0.292   2.222 -3.5714 -1.7477 -0.0475
   84MOL    C3426760   2.288   0.515   1.907 -0.1379  0.0097  0.5396
   84MOL    C3526761   2.396   0.567   1.813 -0.0774 -0.3930  0.4795
   84MOL    O3626762   2.407   0.711   1.823  0.1978 -0.1821  0.2662
   84MOL    C3726763   2.327   0.774   1.730 -0.0440  0.1975 -0.0719
   84MOL    C3826764   2.259   0.896   1.791  0.3992 -0.1644 -0.4252
   84MOL    C3926765   2.404   0.825   1.605  0.6250 -0.1260  0.0343
   84MOL    H4026766   2.333   0.514   2.007 -0.4514 -0.7409  0.6732
   84MOL    H4126767   2.200   0.579   1.902  0.3232  0.6281  0.2822
   84MOL    H4226768   2.387   0.537   1.709 -1.2415  1.1711  0.1110
   84MOL    H4326769   2.253   0.706   1.689  1.7503 -1.1923 -1.0780
   84MOL    H4426770   2.207   0.955   1.715 -0.8157 -2.4793 -1.4377
   84MOL    H4526771   2.333   0.957   1.843 -0.8109 -0.4240  1.6156
   84MOL    H4626772   2.181   0.864   1.860  1.3934 -1.6846  0.0122
   84MOL    H4726773   2.470   0.912   1.612  0.7281 -0.2829  1.0233
   84MOL    H4826774   2.456   0.736   1.569  0.0951 -0.2099 -0.5455
   84MOL    H4926775   2.337   0.856   1.525  0.0837  0.7728  0.8177
   84MOL    C5026776   2.538   0.528   1.865  0.6999 -0.0361  0.7234
   84MOL    C5126777   2.653   0.573   1.778  0.2154  0.4861  0.0754
   84MOL    O5226778   2.658   0.474   1.675  0.1859  0.1908 -0.0053
   84MOL    C5326779   2.665   0.515   1.541  0.2512  0.3124  0.5365
   84MOL    C5426780   2.625   0.401   1.458 -0.0092  0.2478  0.4386
   84MOL    C5526781   2.812   0.555   1.516 -0.8747 -0.5142  0.0747
   84MOL    H5626782   2.555   0.561   1.968  0.1248  0.3854  0.6863
   84MOL    H5726783   2.547   0.419   1.869 -0.3000 -0.2100 -1.3810
   84MOL    H5826784   2.631   0.667   1.727  0.3640  0.8957  0.7528
   84MOL    H5926785   2.594   0.593   1.514 -0.4003 -0.0073  1.3095
   84MOL    H6026786   2.680   0.311   1.484 -3.1471 -1.8056  0.2016
   84MOL    H6126787   2.623   0.425   1.352  0.7520  0.9068  0.5726
   84MOL    H6226788   2.523   0.378   1.492 -0.5265 -0.1839 -1.3713
   84MOL    H6326789   2.880   0.472   1.534 -0.9760 -0.6106  0.0189
   84MOL    H6426790   2.855   0.634   1.577  1.5462  0.0901 -2.3692
   84MOL    H6526791   2.835   0.577   1.412  0.5840 -1.2750  0.2240
   84MOL    C6626792   2.787   0.575   1.854 -0.0364 -0.2599 -0.0665
   84MOL    C6726793   2.826   0.704   1.928 -0.2429 -0.3607  0.0376
   84MOL    O6826794   2.857   0.790   1.821  0.5089  0.5933 -0.4999
   84MOL    C6926795   2.767   0.902   1.811 -0.4465  0.5388  0.1522
   84MOL    C7026796   2.832   1.010   1.902 -0.3175 -0.1318 -0.3959
   84MOL    C7126797   2.778   0.946   1.670  0.6536  0.0646 -0.1716
   84MOL    H7226798   2.789   0.493   1.926  0.8546  1.4610  1.9330
   84MOL    H7326799   2.872   0.550   1.790  1.9242  0.2683  2.2272
   84MOL    H7426800   2.748   0.733   1.998 -0.0252  0.4558 -0.0572
   84MOL    H7526801   2.662   0.887   1.836 -0.8268 -0.8864 -2.1602
   84MOL    H7626802   2.795   1.111   1.882 -2.7648 -0.8772  0.1746
   84MOL    H7726803   2.808   0.995   2.007  1.5653  2.9907  0.5530
   84MOL    H7826804   2.940   1.012   1.891 -0.0283 -1.7083  1.8709
   84MOL    H7926805   2.770   0.857   1.607 -2.0960  1.6542 -2.1706
   84MOL    H8026806   2.876   0.990   1.652  1.2226 -1.1464 -0.0993
   84MOL    H8126807   2.697   1.006   1.630  0.5056 -0.6591 -0.9867
   84MOL    C8226808   2.958   0.678   2.011  0.4742  0.2600  0.3973
   84MOL    C8326809   2.934   0.627   2.157 -0.3408  0.1474  0.1419
   84MOL    O8426810   2.861   0.504   2.154  0.6046 -0.1586 -0.4044
   84MOL    C8526811   2.784   0.479   2.270  0.3419  0.0247  0.0779
   84MOL    C8626812   2.820   0.342   2.332 -0.1923  0.4037  0.7336
   84MOL    C8726813   2.637   0.488   2.231  0.4141  0.1624 -0.5175
   84MOL    H8826814   3.023   0.610   1.956 -0.8171 -0.5856 -0.0874
   84MOL    H8926815   3.017   0.769   1.998  1.7161 -0.6114 -0.1924
   84MOL    H9026816   2.888   0.709   2.212 -0.2056 -0.2228  0.8141
   84MOL    H9126817   2.807   0.545   2.353  0.5568  0.5841 -0.4219
   84MOL    H9226818   2.920   0.337   2.375  0.8341 -1.9977 -1.8232
   84MOL    H9326819   2.745   0.311   2.405  0.8002 -1.1116  1.1159
   84MOL    H9426820   2.838   0.265   2.257 -1.1650  0.8495  0.0342
   84MOL    H9526821   2.573   0.462   2.316 -2.9169  0.0606 -2.9954
   84MOL    H9626822   2.610   0.586   2.192 -2.6739  0.1692  1.4457
   84MOL    H9726823   2.618   0.423   2.146 -0.7385 -0.3098  0.0811
   84MOL    C9826824   3.067   0.598   2.232  0.2136 -0.4398  0.5392
   84MOL    C9926825   3.166   0.710   2.251 -0.6094 -0.0672  0.3978
   84MOL   O10026826   3.295   0.665   2.296 -0.1026  0.0407 -0.4657
   84MOL   C10126827   3.385   0.613   2.200 -0.4631 -0.5076  0.1683
   84MOL   C10226828   3.424   0.460   2.211 -0.5524  0.5184  0.3616
   84MOL   C10326829   3.502   0.714   2.203 -0.1267  0.0822 -0.4021
   84MOL   H10426830   3.047   0.549   2.327  2.2924 -2.2667  0.0899
   84MOL   H10526831   3.119   0.522   2.174 -0.4672  0.0690 -0.7683
   84MOL   H10626832   3.163   0.770   2.160 -0.1037 -0.7823 -0.0996
   84MOL   H10726833   3.344   0.630   2.100  0.3958 -1.5466 -0.3825
   84MOL   H10826834   3.329   0.415   2.239 -0.3256  0.8020  1.6162
   84MOL   H10926835   3.497   0.445   2.290  0.4667 -1.1324 -0.8613
   84MOL   H11026836   3.452   0.422   2.112 -0.4402 -0.5050  0.7811
   84MOL   H11126837   3.487   0.821   2.216 -1.2556 -0.2128  0.8279
   84MOL   H11226838   3.565   0.692   2.117  0.5720 -2.7354  0.7842
   84MOL   H11326839   3.566   0.684   2.286 -1.2883  0.3713  0.6104
   84MOL   C11426840   3.127   0.799   2.368  0.4398  0.2702  0.2292
   84MOL   C11526841   3.209   0.922   2.384 -0.1046 -0.2731 -0.5165
   84MOL   O11626842   3.168   1.009   2.282 -0.4739 -0.2306 -0.3525
   84MOL   C11726843   3.241   1.132   2.254  0.4515  0.4055  0.0675
   84MOL   C11826844   3.169   1.184   2.123  0.2390  0.2021  0.0089
   84MOL   C11926845   3.387   1.109   2.220 -0.3477  0.3598 -0.2515
   84MOL   H12026846   3.128   0.740   2.459  2.3551 -0.4325 -0.2416
   84MOL   H12126847   3.024   0.833   2.352  0.2904 -0.4660 -0.4139
   84MOL   H12226848   3.313   0.894   2.367 -0.1388 -0.8161  0.1242
   84MOL   H12326849   3.242   1.206   2.334 -0.0408  0.6705 -0.1667
   84MOL   H12426850   3.187   1.123   2.035 -0.3344  0.8326 -0.5561
   84MOL   H12526851   3.210   1.284   2.108  0.8302  0.0682  0.6974
   84MOL   H12626852   3.061   1.199   2.134  0.3344  1.2850 -0.4631
   84MOL   H12726853   3.401   1.043   2.135  2.2274  0.6967 -0.1163
   84MOL   H12826854   3.443   1.059   2.299  2.0550 -1.8111 -3.2157
   84MOL   H12926855   3.436   1.204   2.199  1.5192 -0.9868 -2.3168
   84MOL   C13026856   3.203   0.990   2.525  0.2158  0.2988  0.8791
   84MOL   C13126857   3.252   0.902   2.647  0.0081 -0.0354  0.2872
   84MOL   O13226858   3.266   0.989   2.759  0.3705 -0.2262 -0.6369
   84MOL   C13326859   3.151   1.050   2.807 -0.7121  0.1943 -0.4987
   84MOL   C13426860   3.056   0.947   2.871  0.9844  0.0822 -0.1507
   84MOL   C13526861   3.205   1.154   2.904  0.0929  0.1871  0.9614
   84MOL   H13626862   3.099   1.022   2.531  0.1540  0.5770 -1.2638
   84MOL   H13726863   3.258   1.083   2.533 -3.2426  2.5018  0.3381
   84MOL   H13826864   3.180   0.821   2.661  1.1993 -1.0703  0.4641
   84MOL   H13926865   3.089   1.104   2.735 -2.1577  0.3937  0.8896
   84MOL   H14026866   2.966   0.990   2.916  0.0012 -1.7974 -0.2970
   84MOL   H14126867   3.104   0.883   2.945  4.0533  0.4756 -1.7181
   84MOL   H14226868   3.017   0.886   2.790 -0.8233 -0.7697  1.3265
   84MOL   H14326869   3.240   1.239   2.845  0.2659 -0.8601 -0.4584
   84MOL   H14426870   3.122   1.203   2.956  0.5341  1.7458  0.2214
   84MOL   H14526871   3.271   1.095   2.967  2.1122 -0.2439 -1.4811
   84MOL   C14626872   3.390   0.839   2.633  0.0193  0.0247 -0.2416
   84MOL   C14726873   3.430   0.761   2.761  0.7193 -0.1293 -0.5438
   84MOL   O14826874   3.516   0.655   2.727  0.3243 -0.5406 -0.2261
   84MOL   C14926875   3.456   0.537   2.673  0.1076  0.1598  0.0914
   84MOL   C15026876   3.406   0.445   2.784  0.1405 -0.9020 -0.8180
   84MOL   C15126877   3.568   0.479   2.580  0.6018  0.5275 -0.1913
   84MOL   H15226878   3.465   0.913   2.608  0.6386  0.4291  2.6478
   84MOL   H15326879   3.384   0.765   2.552 -0.6723  0.4374 -0.5803
   84MOL   H15426880   3.335   0.729   2.804  0.8359  2.1122  1.4768
   84MOL   H15526881   3.367   0.552   2.611  0.7546  1.4181 -0.5302
   84MOL   H15626882   3.333   0.495   2.847  0.6894 -0.7717 -0.2805
   84MOL   H15726883   3.499   0.433   2.839  0.4990 -3.4841 -1.9363
   84MOL   H15826884   3.376   0.349   2.742 -0.4929 -1.4081  0.7494
   84MOL   H15926885   3.658   0.453   2.636 -1.3229  0.7926  3.1234
   84MOL   H16026886   3.595   0.551   2.502 -2.7835 -0.6022 -2.4855
   84MOL   H16126887   3.538   0.386   2.533  0.1996  1.2378 -1.3527
   84MOL   C16226888   3.489   0.844   2.873 -0.2566 -0.6865  0.1982
   84MOL   C16326889   3.533   0.765   2.999 -0.3348 -0.1069  0.3691
   84MOL   O16426890   3.616   0.831   3.095  0.0922 -0.0164  0.3380
   84MOL   C16526891   3.751   0.856   3.049  0.4498 -0.1216  0.0994
   84MOL   C16626892   3.848   0.783   3.142 -0.1342  0.1067 -0.0623
   84MOL   C16726893   3.780   1.001   3.041 -0.6592  0.3963  0.3484
   84MOL   H16826894   3.581   0.882   2.830 -1.0970  1.2321  0.0345
   84MOL   H16926895   3.430   0.928   2.911  0.7578 -0.4112  1.1861
   84MOL   H17026896   3.576   0.670   2.969 -0.0115 -0.1565  0.9715
   84MOL   H17126897   3.775   0.811   2.952  0.8958  2.0656 -0.8276
   84MOL   H17226898   3.821   0.678   3.153 -0.7745  0.2815  0.0492
   84MOL   H17326899   3.848   0.825   3.242  0.5767  1.0220 -0.4401
   84MOL   H17426900   3.952   0.770   3.113 -0.3157 -1.3878 -0.0737
   84MOL   H17526901   3.871   1.016   2.983  0.6949  2.0073  2.7552
   84MOL   H17626902   3.803   1.047   3.138 -1.4727 -2.4654  1.9622
   84MOL   H17726903   3.712   1.051   2.973  0.1155 -1.3451 -1.7846
   84MOL   C17826904   3.408   0.731   3.086 -0.0797  0.1950  0.4567
   84MOL   C17926905   3.418   0.623   3.195  0.1522 -0.3542 -0.1375
   84MOL   O18026906   3.321   0.663   3.289 -0.2285  0.1944  0.8954
   84MOL   C18126907   3.369   0.749   3.392 -0.5076 -0.2147 -0.0169
   84MOL   C18226908   3.394   0.667   3.520  0.0647  0.1248  0.0547
   84MOL   C18326909   3.261   0.858   3.411 -0.3692  0.3325 -0.0066
   84MOL   H18426910   3.331   0.703   3.015  0.1753  0.6587 -0.0033
   84MOL   H18526911   3.379   0.829   3.123  2.1346  1.5269 -1.2368
   84MOL   H18626912   3.518   0.621   3.239  0.7132  0.0207 -1.3885
   84MOL   H18726913   3.467   0.789   3.369 -0.7619  0.6263  0.3342
   84MOL   H18826914   3.462   0.584   3.504  0.0162  0.0723  0.1216
   84MOL   H18926915   3.299   0.627   3.554 -0.7630  2.7162  0.8896
   84MOL   H19026916   3.427   0.725   3.606 -1.1186  1.5871 -0.4543
   84MOL   H19126917   3.206   0.887   3.321 -3.2418  1.6011  2.0876
   84MOL   H19226918   3.318   0.951   3.425  0.8348 -0.2692 -0.7998
   84MOL   H19326919   3.177   0.847   3.479 -1.5071  1.2580 -1.2418
   84MOL   C19426920   3.386   0.485   3.134  0.4055 -0.5586  0.4707
   84MOL   C19526921   3.403   0.369   3.232  0.4744  0.2434 -0.0529
   84MOL   O19626922   3.535   0.323   3.232 -0.3614  0.4196 -0.2190
   84MOL   C19726923   3.580   0.219   3.323  0.2637 -0.0482  0.4456
   84MOL   C19826924   3.569   0.085   3.251 -0.5597  0.4250 -0.0476
   84MOL   C19926925   3.719   0.233   3.381 -0.4671 -0.0929 -0.8244
   84MOL   H20026926   3.284   0.493   3.095  0.8680  0.8665 -0.5009
   84MOL   H20126927   3.453   0.465   3.050 -0.0251  0.5946 -0.1591
   84MOL   H20226928   3.389   0.413   3.331 -3.1040 -0.1648 -0.3295
   84MOL   H20326929   3.512   0.218   3.408  0.9558 -0.0261  1.0039
   84MOL   H20426930   3.635   0.097   3.165 -0.3206  1.9817  0.3520
   84MOL   H20526931   3.598   7.819   3.312  0.5971  0.3873 -0.6237
   84MOL   H20626932   3.471   0.056   3.215 -1.2890  1.4966  1.0488
   84MOL   H20726933   3.795   0.208   3.306 -0.5722 -4.0583  0.2590
   84MOL   H20826934   3.740   0.338   3.401 -2.8189  0.7365 -2.5630
   84MOL   H20926935   3.720   0.173   3.472  1.8623 -0.2037 -0.8727
   84MOL   C21026936   3.307   0.252   3.199 -0.0872  0.3759  0.1459
   84MOL   C21126937   3.155   0.282   3.207  0.1243 -0.2914  0.2601
   84MOL   O21226938   3.078   0.163   3.205  0.1352  0.0619 -0.2986
   84MOL   C21326939   3.068   0.094   3.083  0.1356  0.1352  0.0409
   84MOL   C21426940   3.088   7.766   3.125 -0.0550 -0.2661  0.3221
   84MOL   C21526941   2.934   0.117   3.007 -0.4719  0.1431  0.2127
   84MOL   H21626942   3.334   0.182   3.279 -0.7208 -0.6960 -0.5711
   84MOL   H21726943   3.322   0.209   3.101 -0.0379 -1.4930  0.9566
   84MOL   H21826944   3.131   0.334   3.114  1.8400  0.6032  0.2938
   84MOL   H21926945   3.152   0.128   3.023 -0.5797  1.6898 -0.1217
   84MOL   H22026946   3.023   7.734   3.207  0.0592 -0.7946  0.2059
   84MOL   H22126947   3.194   7.755   3.144  0.2590  1.8343 -0.0528
   84MOL   H22226948   3.065   7.713   3.033  1.8560 -0.0776 -0.2802
   84MOL   H22326949   2.911   0.222   2.989 -2.4768 -0.5599 -1.5522
   84MOL   H22426950   2.847   0.079   3.061 -0.6818  1.5958  0.9153
   84MOL   H22526951   2.929   0.063   2.913  1.1069 -1.3548  0.9631
   84MOL   C22626952   3.095   0.361   3.327  0.3089 -0.2207  0.4713
   84MOL   C22726953   2.947   0.340   3.358  0.0650 -0.1629 -0.5920
   84MOL   O22826954   2.904   0.456   3.426  0.4829 -0.6685  0.2171
   84MOL   C22926955   2.850   0.576   3.365 -0.6542 -0.3363 -0.2582
   84MOL   C23026956   2.923   0.702   3.409  0.0549 -0.3853 -1.1954
   84MOL   C23126957   2.696   0.580   3.385  0.2669  0.7790 -0.6420
   84MOL   H23226958   3.102   0.466   3.298  0.1955 -0.2259  0.4269
   84MOL   H23326959   3.144   0.341   3.422 -1.6126 -1.1353  1.2956
   84MOL   H23426960   2.881   0.328   3.272  0.5517 -0.2154 -0.9598
   84MOL   H23526961   2.866   0.553   3.260 -0.8975  2.9660 -1.0686
   84MOL   H23626962   3.023   0.705   3.367 -0.2284 -2.7620 -2.0797
   84MOL   H23726963   2.863   0.789   3.381  0.7636  0.5250  0.0393
   84MOL   H23826964   2.926   0.694   3.518  0.3631  2.8696 -0.9025
   84MOL   H23926965   2.681   0.615   3.487  0.2867 -1.6808  0.2235
   84MOL   H24026966   2.651   0.482   3.370  0.1237  0.8956 -0.9864
   84MOL   H24126967   2.650   0.651   3.317  0.7573  0.2725 -1.5132
   84MOL   C24226968   2.919   0.216   3.441  0.3579  0.0394  0.6620
   84MOL   C24326969   2.770   0.182   3.463  0.2627 -0.5052 -0.4270
   84MOL   O24426970   2.749   0.099   3.574 -0.2416  0.0055  0.3313
   84MOL   C24526971   2.768   0.166   3.705  1.0083 -0.2166 -0.0510
   84MOL   C24626972   2.630   0.212   3.763  0.7276 -0.6197 -0.7219
   84MOL   C24726973   2.831   0.061   3.791 -0.3208  0.2893 -0.2302
   84MOL   H24826974   2.963   0.124   3.402  1.6986  0.0721  2.0498
   84MOL   H24926975   2.966   0.228   3.539 -0.7508 -2.1371  1.4913
   84MOL   H25026976   2.714   0.272   3.489 -0.2353 -1.1948  0.9352
   84MOL   H25126977   2.825   0.259   3.707 -1.0178  1.0277  2.7543
   84MOL   H25226978   2.596   0.312   3.735  3.0765  0.6841  0.8472
   84MOL   H25326979   2.548   0.146   3.736 -1.4416  1.4232  0.6968
   84MOL   H25426980   2.637   0.229   3.870  0.2821  0.2620 -0.8260
   84MOL   H25526981   2.829   0.073   3.900 -0.2786 -1.8145  0.0094
   84MOL   H25626982   2.769   7.792   3.786 -1.0329  0.5558  2.6028
   84MOL   H25726983   2.935   0.046   3.761 -0.5277 -1.0087 -0.3218
   84MOL   C25826984   2.700   0.120   3.347 -0.1013  0.7813  0.0309
   84MOL   C25926985   2.559   0.056   3.367 -0.2305  0.2134  0.4394
   84MOL   O26026986   2.508   0.012   3.243  0.1575  0.4835  0.1909
   84MOL   C26126987   2.571   7.721   3.192  0.2332 -0.6482  0.0675
   84MOL   C26226988   2.491   7.593   3.226  0.4921  0.1612  0.3997
   84MOL   C26326989   2.538   7.741   3.041  0.2156 -0.2914  0.0466
   84MOL   H26426990   2.690   0.197   3.271  0.4553  0.0795 -0.7699
   84MOL   H26526991   2.777   0.054   3.306 -0.3301 -0.2560  1.2504
   84MOL   H26626992   2.554   7.792   3.435 -3.2806  0.3190  0.4221
   84MOL   H26726993   2.675   7.703   3.221  0.0008  0.8040  1.8594
   84MOL   H26826994   2.526   7.507   3.169  0.4897 -0.3709  1.2020
   84MOL   H26926995   2.383   7.606   3.223  0.3544  0.3921  4.0789
   84MOL   H27026996   2.514   7.566   3.329 -0.9871 -1.4108  0.3258
   84MOL   H27126997   2.607   7.818   3.007  0.9110 -0.9345 -0.0049
   84MOL   H27226998   2.562   7.653   2.981 -1.0408 -1.0403  0.6217
   84MOL   H27326999   2.437   7.779   3.028  0.7622  1.4790  0.9340
   84MOL   C27427000   2.463   0.170   3.421  0.4385 -0.1188  0.7505
   84MOL   C27527001   2.313   0.130   3.438  0.0064  0.1030 -0.3626
   84MOL   O27627002   2.310   0.085   3.577  0.3304 -0.1183  0.2523
   84MOL   C27727003   2.233   7.790   3.602 -0.5592  0.2562 -0.5227
   84MOL   C27827004   2.205   7.799   3.749 -0.3664  0.9883 -0.2003
   84MOL   C27927005   2.304   7.666   3.569 -0.3938  1.1203 -0.0190
   84MOL   H28027006   2.505   0.216   3.510 -0.5690  0.2522  1.0480
   84MOL   H28127007   2.460   0.248   3.346  2.4445  2.0776  2.8797
   84MOL   H28227008   2.277   0.044   3.381  3.1158 -0.5038 -1.5420
   84MOL   H28327009   2.134   7.797   3.557 -0.3994  1.5699 -0.6877
   84MOL   H28427010   2.299   7.782   3.803 -0.0057  0.8882 -0.8520
   84MOL   H28527011   2.159   0.075   3.770  0.2241  1.3555 -0.5515
   84MOL   H28627012   2.133   7.724   3.781  2.7615 -1.8575  0.4341
   84MOL   H28727013   2.242   7.577   3.581 -2.6888  2.6955  0.0363
   84MOL   H28827014   2.399   7.644   3.619  0.0015  2.4588 -0.1563
   84MOL   H28927015   2.325   7.660   3.463 -0.4500 -0.0900  0.0330
   84MOL   C29027016   2.212   0.248   3.422  0.1497  0.6915 -0.4332
   84MOL   C29127017   2.255   0.386   3.485 -0.1439 -0.0081  0.6898
   84MOL   O29227018   2.151   0.491   3.464  0.5189  0.2231 -0.1212
   84MOL   C29327019   2.122   0.523   3.332 -0.2930 -0.2485  0.1605
   84MOL   C29427020   2.147   0.670   3.308 -0.0070  0.1249  0.0722
   84MOL   C29527021   1.982   0.496   3.280 -0.2371 -0.3672 -0.0329
   84MOL   H29627022   2.121   0.212   3.471  1.0784 -2.2855 -0.8233
   84MOL   H29727023   2.180   0.257   3.318  0.8869  0.9666 -0.6393
   84MOL   H29827024   2.345   0.427   3.439  0.2909 -0.5753  1.0335
   84MOL   H29927025   2.190   0.470   3.265 -0.2630 -0.9212  0.7156
   84MOL   H30027026   2.249   0.700   3.332 -0.9863  3.6435 -0.0013
   84MOL   H30127027   2.127   0.687   3.202 -1.7887  1.0901  0.5623
   84MOL   H30227028   2.078   0.734   3.361 -1.0187 -0.9835  0.1106
   84MOL   H30327029   1.916   0.534   3.357 -1.2962 -2.0579 -0.0996
   84MOL   H30427030   1.966   0.551   3.188  0.9792  0.4381  0.2194
   84MOL   H30527031   1.965   0.389   3.271 -1.6530 -0.0969 -0.6931
   84MOL   C30627032   2.272   0.383   3.640  0.1123  0.1893  0.7196
   84MOL   C30727033   2.341   0.502   3.697 -0.0436  0.2592 -0.1560
   84MOL   O30827034   2.353   0.495   3.839 -0.0068 -0.1360  0.5754
   84MOL   C30927035   2.432   0.594   3.904 -0.2021 -0.0313 -0.1280
   84MOL   C31027036   2.406   0.599   4.053 -0.7131 -0.0277 -0.0092
   84MOL   C31127037   2.582   0.567   3.883 -0.6547  0.0389  0.8292
   84MOL   H31227038   2.336   0.300   3.669  0.9005  0.6490  0.3155
   84MOL   H31327039   2.174   0.359   3.681 -1.0318  0.4927 -1.7379
   84MOL   H31427040   2.444   0.492   3.662 -0.8826 -1.2037 -2.2896
   84MOL   H31527041   2.418   0.691   3.857  1.1407  1.0121  1.5512
   84MOL   H31627042   2.432   0.504   4.099  0.4351  0.5283  0.4928
   84MOL   H31727043   2.300   0.616   4.071 -0.7391 -0.7452  0.5235
   84MOL   H31827044   2.460   0.679   4.104  0.1234 -0.4053 -0.2919
   84MOL   H31927045   2.607   0.477   3.939 -0.7468 -0.3440  0.2576
   84MOL   H32027046   2.654   0.639   3.924 -0.5131 -1.4973  3.3637
   84MOL   H32127047   2.607   0.539   3.781 -1.2525 -2.3938  1.3330
   84MOL   H32227048   2.292   0.593   3.664 -0.2013  0.4281  0.5395
   85MOL     C127049   0.099   1.340   1.179 -0.1960 -1.0211  0.3115
   85MOL     C227050   0.187   1.235   1.125 -0.3288  0.0241 -0.1120
   85MOL     O327051   0.271   1.294   1.023  0.4522 -0.1918  0.3202
   85MOL     C427052   0.216   1.310   0.888 -0.4681  0.5080  0.2630
   85MOL     C527053   0.316   1.245   0.796 -0.5378  1.1454  0.4002
   85MOL     C627054   0.189   1.457   0.864 -0.4775 -0.0836  1.1358
   85MOL     H727055   0.065   1.321   1.280 -0.2457 -0.6443  0.3691
   85MOL     H827056   0.146   1.438   1.193 -2.3720  0.1388 -0.2283
   85MOL     H927057   0.141   1.148   1.080  0.6416 -1.5107  1.7878
   85MOL    H1027058   0.119   1.259   0.883  0.9717 -2.6503  2.6158
   85MOL    H1127059   0.409   1.301   0.791  0.0402 -0.0005 -3.1472
   85MOL    H1227060   0.346   1.147   0.835 -0.6297  0.9528 -0.0096
   85MOL    H1327061   0.282   1.237   0.693 -3.3986 -2.2356  1.5080
   85MOL    H1427062   0.133   1.509   0.942 -1.6140 -0.8833  0.8575
   85MOL    H1527063   0.289   1.500   0.865 -0.5733  0.2492 -1.5022
   85MOL    H1627064   0.133   1.482   0.775  0.5665 -0.3490  0.4000
   85MOL    H1727065   0.011   1.365   1.121  0.1581 -2.4180 -0.8512
   85MOL    C1827066   0.291   1.183   1.237 -0.3639 -0.0699  0.2179
   85MOL    C1927067   0.253   1.079   1.352  0.3812 -0.0950 -0.1490
   85MOL    O2027068   0.382   1.033   1.398  0.1368  0.0258 -1.2725
   85MOL    C2127069   0.477   1.117   1.465  0.5482  0.0402 -0.6907
   85MOL    C2227070   0.609   1.128   1.388  0.2223  0.2482  0.2291
   85MOL    C2327071   0.498   1.047   1.595  0.4794  0.1653 -0.1840
   85MOL    H2427072   0.378   1.144   1.184  1.6130  2.0433  1.7468
   85MOL    H2527073   0.334   1.277   1.274 -0.6017  0.1943 -0.1782
   85MOL    H2627074   0.188   1.128   1.425  0.0355 -1.6995  0.6375
   85MOL    H2727075   0.435   1.215   1.486 -0.3873 -0.8104  1.5929
   85MOL    H2827076   0.687   1.184   1.439 -0.2960  0.8864  0.3265
   85MOL    H2927077   0.659   1.034   1.364  0.9909  1.1956 -2.0892
   85MOL    H3027078   0.590   1.170   1.289  0.0686  1.2021  0.6589
   85MOL    H3127079   0.580   1.096   1.648 -0.8794  1.5562  0.6605
   85MOL    H3227080   0.523   0.943   1.571  1.4913  0.1708  0.7838
   85MOL    H3327081   0.405   1.048   1.653  1.3991  2.6999  1.3332
   85MOL    C3427082   0.174   0.961   1.293 -0.0398  0.5659  0.2629
   85MOL    C3527083   0.117   0.863   1.395  0.0130  0.4895  0.0569
   85MOL    O3627084   0.020   0.786   1.333 -0.3068 -0.5240  0.0514
   85MOL    C3727085   7.724   0.739   1.406  0.1199 -0.3705  0.0746
   85MOL    C3827086   7.623   0.859   1.420  0.2654 -0.6500 -0.3456
   85MOL    C3927087   7.663   0.620   1.337 -0.0960  0.1701  0.0146
   85MOL    H4027088   0.221   0.906   1.212  0.6740  1.4657  0.0641
   85MOL    H4127089   0.092   1.010   1.240 -1.8309 -1.3971  1.1482
   85MOL    H4227090   0.071   0.930   1.469 -1.5930  0.6548 -1.0644
   85MOL    H4327091   7.760   0.714   1.506  2.2308  0.2796 -0.4979
   85MOL    H4427092   7.525   0.828   1.458  1.1934 -2.3943  0.6781
   85MOL    H4527093   7.616   0.908   1.323  0.2628  1.5167  0.7378
   85MOL    H4627094   7.661   0.942   1.480 -1.2143 -0.1723 -0.0492
   85MOL    H4727095   7.740   0.558   1.291  0.2741 -0.3671  1.3539
   85MOL    H4827096   7.601   0.570   1.410 -0.8527  2.0818  0.7265
   85MOL    H4927097   7.594   0.648   1.257  0.7710  1.8278 -0.1847
   85MOL    C5027098   0.212   0.762   1.458 -0.3699 -0.1482  0.5967
   85MOL    C5127099   0.215   0.753   1.611 -0.7796 -0.1027 -0.0288
   85MOL    O5227100   0.228   0.893   1.649 -0.6467 -0.0438  0.1074
   85MOL    C5327101   0.128   0.938   1.741 -0.1461 -0.0459 -0.3538
   85MOL    C5427102   0.118   1.090   1.723  0.1746  0.5394 -0.1040
   85MOL    C5527103   0.176   0.897   1.884  0.5926 -0.4607  0.2531
   85MOL    H5627104   0.185   0.667   1.412  1.4153  0.3302 -1.5413
   85MOL    H5727105   0.314   0.779   1.423 -0.4255 -0.2800  0.3699
   85MOL    H5827106   0.129   0.700   1.652 -0.0462 -1.3758 -0.0978
   85MOL    H5927107   0.028   0.896   1.729 -0.2961  0.3458 -0.4907
   85MOL    H6027108   0.052   1.122   1.804 -1.5670 -0.0087 -1.2994
   85MOL    H6127109   0.078   1.117   1.626  1.4528 -0.3892 -0.9002
   85MOL    H6227110   0.215   1.136   1.745  0.7799 -0.1987 -1.2294
   85MOL    H6327111   0.101   0.911   1.961  1.2242 -1.2246  1.0239
   85MOL    H6427112   0.271   0.939   1.916  0.5087  0.5687 -0.8500
   85MOL    H6527113   0.187   0.789   1.901  0.9682 -0.3209  0.8950
   85MOL    C6627114   0.342   0.687   1.658  0.7225  0.2619 -0.2662
   85MOL    C6727115   0.351   0.534   1.647  0.1341  0.3041 -0.7583
   85MOL    O6827116   0.231   0.478   1.704 -0.0726 -0.4240 -0.1384
   85MOL    C6927117   0.199   0.354   1.642 -0.0565 -0.2433  0.0397
   85MOL    C7027118   0.149   0.270   1.759 -0.5782  0.6683 -0.8339
   85MOL    C7127119   0.085   0.374   1.533 -0.2794 -0.1818  0.2477
   85MOL    H7227120   0.426   0.731   1.604  1.4024 -1.1159 -0.3516
   85MOL    H7327121   0.357   0.695   1.766  0.5272  1.8095 -0.3469
   85MOL    H7427122   0.359   0.510   1.541 -0.9058  0.5247 -0.8880
   85MOL    H7527123   0.279   0.310   1.583  0.2307  0.9247 -0.4553
   85MOL    H7627124   0.067   0.312   1.817 -0.7247 -0.3960 -0.2620
   85MOL    H7727125   0.116   0.174   1.718 -2.3355  0.7876  0.2490
   85MOL    H7827126   0.230   0.236   1.823 -2.3589 -1.3828  0.3720
   85MOL    H7927127   0.045   0.288   1.479 -0.3572  0.3521 -0.5665
   85MOL    H8027128   0.121   0.443   1.456  2.4244  0.2363  1.8425
   85MOL    H8127129   0.003   0.431   1.577  0.1316  0.6648 -0.0573
   85MOL    C8227130   0.475   0.480   1.731 -0.3574 -0.1189 -0.3545
   85MOL    C8327131   0.611   0.480   1.665  0.0595 -0.0626 -0.2590
   85MOL    O8427132   0.642   0.615   1.613  0.2852 -0.5773 -0.8321
   85MOL    C8527133   0.710   0.626   1.487 -0.7860 -0.6170  0.0287
   85MOL    C8627134   0.785   0.757   1.487 -0.0731  0.0350 -0.2880
   85MOL    C8727135   0.602   0.615   1.377  0.4335  0.6325 -0.1216
   85MOL    H8827136   0.490   0.538   1.823 -1.9058 -0.5973  0.2164
   85MOL    H8927137   0.442   0.384   1.772 -1.2506 -1.1005 -3.2921
   85MOL    H9027138   0.598   0.401   1.591  0.0203 -0.7313  0.4682
   85MOL    H9127139   0.779   0.542   1.483 -0.4772 -0.3190 -1.2141
   85MOL    H9227140   0.845   0.769   1.397  0.7461  0.6066  0.3130
   85MOL    H9327141   0.711   0.837   1.484 -0.8250 -0.6559 -0.3213
   85MOL    H9427142   0.848   0.762   1.576  0.6391 -1.5131 -0.7077
   85MOL    H9527143   0.537   0.531   1.403  0.4048  0.5389 -0.4969
   85MOL    H9627144   0.533   0.698   1.361 -3.4215 -2.5153 -0.8473
   85MOL    H9727145   0.650   0.600   1.281  0.4244  2.3367 -0.4024
   85MOL    C9827146   0.734   0.442   1.752  0.1537  0.5909 -0.7978
   85MOL    C9927147   0.708   0.330   1.849 -0.1157  0.4682  0.2450
   85MOL   O10027148   0.822   0.329   1.939  0.1714 -0.1469 -0.0188
   85MOL   C10127149   0.828   0.428   2.049  0.1192  0.1510 -0.3418
   85MOL   C10227150   0.949   0.393   2.139 -0.9052  0.3479 -0.0518
   85MOL   C10327151   0.699   0.429   2.124 -0.8262 -0.2739 -1.1843
   85MOL   H10427152   0.814   0.415   1.683 -0.0926  2.0494 -1.6671
   85MOL   H10527153   0.769   0.531   1.803  1.1632 -1.0283  1.4098
   85MOL   H10627154   0.611   0.339   1.898  0.5935  0.5540  1.6570
   85MOL   H10727155   0.842   0.528   2.010  1.5948 -0.3091 -1.0314
   85MOL   H10827156   0.932   0.300   2.192  0.4552  0.8261  1.2474
   85MOL   H10927157   0.964   0.470   2.214 -1.9111 -0.6436  1.2094
   85MOL   H11027158   1.048   0.379   2.096 -1.5926 -0.9843 -1.2532
   85MOL   H11127159   0.619   0.482   2.071  0.2057  1.3346 -1.1727
   85MOL   H11227160   0.710   0.467   2.226 -1.9447  0.9278 -1.4966
   85MOL   H11327161   0.659   0.329   2.141  1.3202 -1.4505 -2.7706
   85MOL   C11427162   0.699   0.187   1.786 -0.0074  0.1004  0.2164
   85MOL   C11527163   0.675   0.074   1.883  0.4332  0.1013  0.2760
   85MOL   O11627164   0.536   0.068   1.909 -0.2315  0.0465  0.3638
   85MOL   C11727165   0.506   0.056   2.050 -0.0213  0.9084  0.6849
   85MOL   C11827166   0.478   7.729   2.087 -0.3549  0.6652  0.2717
   85MOL   C11927167   0.391   0.159   2.077  0.8571 -0.2276  0.2501
   85MOL   H12027168   0.789   0.166   1.728  0.2497 -0.8024  0.9275
   85MOL   H12127169   0.613   0.173   1.721 -1.3167 -2.5545  2.3880
   85MOL   H12227170   0.722   0.101   1.978  0.7509 -0.3388  0.2467
   85MOL   H12327171   0.587   0.089   2.116  0.9414 -0.9441  0.4770
   85MOL   H12427172   0.390   7.700   2.029  1.1371  0.4574 -1.9699
   85MOL   H12527173   0.460   7.704   2.191 -2.3402 -0.7286 -0.3789
   85MOL   H12627174   0.567   7.673   2.057  2.3935  5.2805 -0.7811
   85MOL   H12727175   0.314   0.148   2.000  0.5933  1.4736  0.2583
   85MOL   H12827176   0.430   0.259   2.061 -0.3160  0.4819  1.8034
   85MOL   H12927177   0.360   0.159   2.181 -0.0912  0.3329 -0.0280
   85MOL   C13027178   0.714   7.753   1.822  0.4852  0.2362 -0.1446
   85MOL   C13127179   0.854   7.715   1.866  0.0403  0.1865  0.2622
   85MOL   O13227180   0.934   0.002   1.802  0.3889  0.0009 -0.2234
   85MOL   C13327181   1.018   0.068   1.900  0.6136  0.3600  0.1700
   85MOL   C13427182   1.118   7.791   1.961  0.1046  0.0037 -0.2597
   85MOL   C13527183   1.090   0.172   1.815  0.1090  0.9453 -0.2708
   85MOL   H13627184   0.707   7.753   1.713 -0.5760 -0.8842 -0.0946
   85MOL   H13727185   0.649   7.672   1.856 -1.6304  1.8470 -0.1824
   85MOL   H13827186   0.854   7.708   1.975 -1.0124 -0.3875  0.2395
   85MOL   H13927187   0.958   0.116   1.977 -0.9360 -2.4643  0.7998
   85MOL   H14027188   1.158   7.746   1.870 -1.2098  0.6436 -1.1837
   85MOL   H14127189   1.071   7.721   2.030  1.4657  1.7053  2.4461
   85MOL   H14227190   1.202   0.021   2.007 -1.1967  1.2623  0.7891
   85MOL   H14327191   1.010   0.237   1.779 -1.7403 -0.5429  1.0633
   85MOL   H14427192   1.161   0.220   1.882 -0.2295  0.8450  0.1605
   85MOL   H14527193   1.147   0.135   1.729  0.3663  0.4797  0.0958
   85MOL   C14627194   0.901   7.576   1.802  0.0971 -0.6002 -0.0303
   85MOL   C14727195   0.859   7.456   1.884 -0.5119  0.4537 -0.3201
   85MOL   O14827196   0.880   7.333   1.811  0.1475  0.0803 -0.0567
   85MOL   C14927197   0.754   7.272   1.759  0.5453 -0.3666 -0.9157
   85MOL   C15027198   0.680   7.191   1.864  0.3683 -0.4942 -0.4704
   85MOL   C15127199   0.802   7.176   1.653  0.0456 -0.1722  0.7935
   85MOL   H15227200   1.006   7.581   1.773 -0.2863  0.2037 -1.2958
   85MOL   H15327201   0.855   7.570   1.703 -0.5141 -0.4656  0.2408
   85MOL   H15427202   0.754   7.474   1.907 -0.3911  0.5787  0.1425
   85MOL   H15527203   0.695   7.351   1.713  0.1631  0.4208  0.8951
   85MOL   H15627204   0.649   7.249   1.951  0.2982 -1.8354  0.4104
   85MOL   H15727205   0.733   7.100   1.890  0.1838 -0.5335 -0.2237
   85MOL   H15827206   0.587   7.150   1.825 -1.5315  0.8612  2.4233
   85MOL   H15927207   0.877   7.114   1.702  3.0672  1.0560 -2.0820
   85MOL   H16027208   0.829   7.214   1.555 -0.4059  0.5114  0.9283
   85MOL   H16127209   0.719   7.112   1.623  2.6216 -3.3588  0.1745
   85MOL   C16227210   0.921   7.434   2.021  0.4516 -0.2544  0.4647
   85MOL   C16327211   0.837   7.354   2.131  0.5450  0.1365  1.1266
   85MOL   O16427212   0.934   7.353   2.233 -0.4651  0.2970  0.1605
   85MOL   C16527213   1.025   7.243   2.246 -0.0847  0.4496 -0.2541
   85MOL   C16627214   0.948   7.127   2.304  0.3090  0.0575 -0.1797
   85MOL   C16727215   1.151   7.289   2.329 -0.4160 -0.2500  0.0829
   85MOL   H16827216   1.013   7.378   2.004  0.7228  0.4807 -0.5986
   85MOL   H16927217   0.944   7.531   2.065  0.4585 -0.5261  1.0538
   85MOL   H17027218   0.823   7.249   2.105 -0.7651  1.3564 -3.4347
   85MOL   H17127219   1.055   7.201   2.150 -0.2365 -1.2990  0.4577
   85MOL   H17227220   0.869   7.098   2.234  0.9369 -0.4697 -0.6832
   85MOL   H17327221   0.905   7.144   2.402  0.2821  0.6299 -0.2871
   85MOL   H17427222   1.014   7.043   2.322 -0.8415 -0.7564  0.3050
   85MOL   H17527223   1.215   7.202   2.345  0.1895  0.4347  1.4249
   85MOL   H17627224   1.131   7.335   2.426  3.3986 -1.8343  1.7503
   85MOL   H17727225   1.216   7.362   2.282  0.3702 -1.5322 -0.8588
   85MOL   C17827226   0.715   7.431   2.180 -0.4331 -0.0597 -0.4042
   85MOL   C17927227   0.618   7.348   2.270  0.5614  0.2552 -0.0402
   85MOL   O18027228   0.515   7.447   2.306  0.0939 -0.1928 -0.3620
   85MOL   C18127229   0.510   7.478   2.448  0.6299  0.0296  0.1463
   85MOL   C18227230   0.366   7.517   2.467  0.1166 -0.3541 -0.4198
   85MOL   C18327231   0.608   7.598   2.466  0.4691  0.3951  0.4712
   85MOL   H18427232   0.657   7.466   2.094 -0.4059 -0.1171 -0.4447
   85MOL   H18527233   0.748   7.519   2.236  1.1937 -0.8299 -0.1401
   85MOL   H18627234   0.672   7.312   2.357  1.6322  1.5450 -0.1664
   85MOL   H18727235   0.545   7.396   2.511  1.7977 -0.1030 -0.6447
   85MOL   H18827236   0.327   7.513   2.569  0.8456  1.0737 -0.0684
   85MOL   H18927237   0.305   7.438   2.424  2.7709 -2.5925 -0.2389
   85MOL   H19027238   0.350   7.609   2.410 -0.7470 -0.2414 -0.0000
   85MOL   H19127239   0.613   7.675   2.389  1.1479  0.0452  0.1640
   85MOL   H19227240   0.713   7.569   2.473  0.0495 -0.9133  1.6722
   85MOL   H19327241   0.599   7.659   2.556 -0.1655  1.0094 -0.0069
   85MOL   C19427242   0.557   7.222   2.206  0.2899 -0.6724 -0.1835
   85MOL   C19527243   0.470   7.137   2.309 -1.1062  0.1854 -0.3549
   85MOL   O19627244   0.546   7.104   2.419  0.2885 -0.2284  0.8997
   85MOL   C19727245   0.481   7.042   2.528  0.0889  0.1975 -0.1360
   85MOL   C19827246   0.570   7.103   2.644  0.1100  0.4101  0.0892
   85MOL   C19927247   0.333   7.068   2.545  0.0995  0.2564  0.2046
   85MOL   H20027248   0.502   7.244   2.114  0.4271 -0.7486 -0.2854
   85MOL   H20127249   0.631   7.149   2.174 -0.7755 -1.8956  0.1204
   85MOL   H20227250   0.389   7.203   2.337  0.4346  1.4031  1.3234
   85MOL   H20327251   0.506   6.937   2.514 -0.0584  0.1489 -0.0360
   85MOL   H20427252   0.543   7.055   2.738  3.4397 -0.6212  0.5699
   85MOL   H20527253   0.677   7.089   2.633 -0.3384 -1.2375 -2.9820
   85MOL   H20627254   0.551   7.210   2.650 -0.0211  0.5867 -2.7814
   85MOL   H20727255   0.308   7.174   2.549  1.6920  0.7022 -1.4468
   85MOL   H20827256   0.270   7.021   2.469 -2.6448  0.2924  2.3740
   85MOL   H20927257   0.298   7.032   2.642 -2.0454 -1.6702 -1.2200
   85MOL   C21027258   0.415   7.009   2.239  0.2227  0.3352  0.0495
   85MOL   C21127259   0.315   7.036   2.119 -0.1694  0.1647 -0.2048
   85MOL   O21227260   0.252   6.909   2.091 -0.8430 -0.2070  0.1066
   85MOL   C21327261   0.334   6.797   2.049 -0.2063 -0.6445  0.4944
   85MOL   C21427262   0.253   6.663   2.074 -0.4365 -0.5695  0.1044
   85MOL   C21527263   0.377   6.818   1.901  0.0672 -0.2513  0.0557
   85MOL   H21627264   0.383   6.937   2.314 -1.0700 -0.8878 -1.6389
   85MOL   H21727265   0.499   6.971   2.181  0.4735  0.0273  0.6249
   85MOL   H21827266   0.369   7.078   2.034  0.1122 -1.7891 -1.0246
   85MOL   H21927267   0.427   6.798   2.107 -0.2662  0.1232  0.5869
   85MOL   H22027268   0.158   6.659   2.021 -0.9216 -0.0965  0.9402
   85MOL   H22127269   0.233   6.652   2.180  1.8328  2.6414  0.9475
   85MOL   H22227270   0.317   6.579   2.044  1.3426 -0.2086  2.7107
   85MOL   H22327271   0.457   6.893   1.901  0.7781 -1.0077 -0.0077
   85MOL   H22427272   0.295   6.853   1.838 -0.1551  1.3517  1.2076
   85MOL   H22527273   0.420   6.728   1.856 -0.4503 -0.3873 -0.1671
   85MOL   C22627274   0.200   7.121   2.150  0.0295 -0.4207 -0.0040
   85MOL   C22727275   0.113   7.154   2.022  0.3120 -1.4042  0.1790
   85MOL   O22827276   0.159   7.274   1.958 -0.4095  1.0138  0.1571
   85MOL   C22927277   0.228   7.266   1.840  0.0501  0.5868 -0.4739
   85MOL   C23027278   0.345   7.358   1.848 -0.0416  0.2314 -0.2485
   85MOL   C23127279   0.121   7.310   1.736 -0.0687  0.3516  0.2923
   85MOL   H23227280   0.231   7.219   2.187  1.0513 -1.3278  1.5569
   85MOL   H23327281   0.145   7.071   2.229  1.2637  0.6874  1.5907
   85MOL   H23427282   0.112   7.065   1.959  0.2966  0.9689 -3.2719
   85MOL   H23527283   0.259   7.163   1.820  2.4199  1.5358 -1.8873
   85MOL   H23627284   0.424   7.335   1.920  0.8090  3.9283  0.0802
   85MOL   H23727285   0.400   7.356   1.754  1.2740 -0.7680  0.5309
   85MOL   H23827286   0.308   7.459   1.866  0.4799  0.1043  1.7345
   85MOL   H23927287   0.167   7.318   1.637  0.5566 -3.4589  0.2066
   85MOL   H24027288   0.088   7.410   1.764  0.5273  0.9806 -1.1671
   85MOL   H24127289   0.036   7.241   1.728  0.5270 -0.3674  0.0552
   85MOL   C24227290   7.792   7.194   2.069  0.4714  0.2211 -0.4692
   85MOL   C24327291   7.701   7.080   2.130  0.1932 -1.2241 -0.7968
   85MOL   O24427292   7.673   6.983   2.025  0.0259  0.2904  0.2935
   85MOL   C24527293   7.727   6.852   2.033 -0.3238  0.8071 -0.1572
   85MOL   C24627294   7.655   6.776   2.136  0.7265 -0.4213 -0.4239
   85MOL   C24727295   7.716   6.792   1.897  0.2369 -0.0958  0.0544
   85MOL   H24827296   7.806   7.277   2.137 -2.0916  1.5149 -1.4387
   85MOL   H24927297   7.746   7.239   1.981 -1.2500 -0.3312  0.1349
   85MOL   H25027298   7.760   7.027   2.204  0.0411 -1.1911 -0.6508
   85MOL   H25127299   0.009   6.874   2.063  0.7334 -0.4805 -2.6943
   85MOL   H25227300   7.703   6.680   2.151  2.0417  0.6871  3.1088
   85MOL   H25327301   7.643   6.834   2.228  2.4717  0.0556 -0.4725
   85MOL   H25427302   7.556   6.756   2.096 -0.8373  1.1048  2.5194
   85MOL   H25527303   7.609   6.785   1.875 -0.4028 -1.5272  3.3033
   85MOL   H25627304   7.768   6.858   1.827 -0.1643 -0.7536 -0.8824
   85MOL   H25727305   7.757   6.691   1.891 -0.1165 -0.1447 -1.9520
   85MOL   C25827306   7.561   7.125   2.182 -0.2213 -0.4176 -0.2002
   85MOL   C25927307   7.567   7.216   2.304  0.6583 -0.0880  0.7007
   85MOL   O26027308   7.601   7.142   2.418  0.2895 -0.5565  0.4838
   85MOL   C26127309   7.672   7.224   2.509  0.5451 -0.3144  0.0486
   85MOL   C26227310   7.619   7.175   2.646  0.5237 -0.2142 -0.7265
   85MOL   C26327311   0.007   7.206   2.508  0.8454 -0.2752  0.0405
   85MOL   H26427312   7.519   7.178   2.096  1.1276  0.2151 -0.4823
   85MOL   H26527313   7.494   7.042   2.203  0.5212 -1.1904 -0.9070
   85MOL   H26627314   7.632   7.303   2.291  0.2955  0.3073  1.5074
   85MOL   H26727315   7.649   7.331   2.508  0.8998 -0.1558 -4.5626
   85MOL   H26827316   7.646   7.074   2.676  0.9601 -0.2091 -1.0972
   85MOL   H26927317   7.512   7.195   2.648  0.7549  1.0085  0.4192
   85MOL   H27027318   7.666   7.237   2.723  0.3779  0.0683 -0.8643
   85MOL   H27127319   0.033   7.100   2.514 -0.8734 -0.8513 -2.1255
   85MOL   H27227320   0.062   7.230   2.417 -0.4883 -0.9645 -0.9698
   85MOL   H27327321   0.055   7.245   2.598 -1.3338 -1.0697  1.5966
   85MOL   C27427322   7.421   7.269   2.344 -0.4546 -0.0084 -0.4805
   85MOL   C27527323   7.365   7.377   2.257 -0.0233 -0.2019 -0.0591
   85MOL   O27627324   7.230   7.381   2.304 -0.4413  0.2826  0.0719
   85MOL   C27727325   7.136   7.293   2.238 -0.8040 -0.4307  0.4873
   85MOL   C27827326   7.108   7.341   2.094  0.3722  0.3945 -0.0846
   85MOL   C27927327   7.022   7.272   2.334 -0.3631  0.3035 -1.0028
   85MOL   H28027328   7.353   7.184   2.349  0.1587 -0.4497  0.3574
   85MOL   H28127329   7.416   7.313   2.443  0.3158  2.1769 -1.3817
   85MOL   H28227330   7.381   7.341   2.155 -0.2152  0.4397 -0.3180
   85MOL   H28327331   7.189   7.199   2.220  1.0601  0.5027  1.0895
   85MOL   H28427332   7.051   7.262   2.043 -3.8276  1.2148  3.0944
   85MOL   H28527333   7.055   7.436   2.102  0.8503  0.3812  4.1219
   85MOL   H28627334   7.198   7.353   2.034 -0.5050  2.7806 -0.9548
   85MOL   H28727335   6.955   7.355   2.354 -0.8942 -0.6607  1.4580
   85MOL   H28827336   7.064   7.237   2.428 -0.1101 -2.4703 -2.0671
   85MOL   H28927337   6.963   7.188   2.296  0.1186  0.9445 -3.2146
   85MOL   C29027338   7.432   7.517   2.261 -1.2207 -0.0408  0.0467
   85MOL   C29127339   7.371   7.624   2.169 -0.1240  0.3612  0.1112
   85MOL   O29227340   7.404   7.754   2.220 -0.3975  0.0969 -0.1082
   85MOL   C29327341   7.318   0.040   2.194 -0.2817 -0.0400  0.0514
   85MOL   C29427342   7.379   0.143   2.099 -0.1188 -0.2648  0.4156
   85MOL   C29527343   7.289   0.105   2.327  0.3878  0.1616  0.0379
   85MOL   H29627344   7.540   7.513   2.250 -0.8583  0.2381  3.0052
   85MOL   H29727345   7.417   7.556   2.362 -2.4332 -0.8926  0.2102
   85MOL   H29827346   7.266   7.599   2.188  0.7702 -0.5208  4.3643
   85MOL   H29927347   7.230   0.006   2.140  0.0731 -1.8716  0.6059
   85MOL   H30027348   7.306   0.223   2.084 -0.8388 -0.8136  0.9405
   85MOL   H30127349   7.476   0.186   2.122 -0.0713  1.4128 -2.6411
   85MOL   H30227350   7.387   0.114   1.994 -0.2232  2.8135 -0.5068
   85MOL   H30327351   7.204   0.174   2.325 -2.2440 -2.9403 -0.2927
   85MOL   H30427352   7.277   0.033   2.409 -1.0472 -0.7869 -0.9725
   85MOL   H30527353   7.377   0.163   2.354  0.7854 -0.8622  0.9721
   85MOL   C30627354   7.399   7.602   2.020 -0.0695  0.0514  0.0431
   85MOL   C30727355   7.545   7.631   1.990 -0.0419  0.0853  0.0892
   85MOL   O30827356   7.556   7.606   1.854  0.1669 -0.3695  0.1799
   85MOL   C30927357   7.680   7.640   1.779 -0.1565  0.7965  0.7878
   85MOL   C31027358   7.676   7.582   1.634  0.0983 -0.0589  0.0356
   85MOL   C31127359   7.712   7.786   1.780 -0.0429 -0.6828  0.6306
   85MOL   H31227360   7.328   7.653   1.954 -1.4544  0.7522  2.0395
   85MOL   H31327361   7.382   7.498   1.990 -1.6634  1.0156 -2.5910
   85MOL   H31427362   7.575   7.734   2.012 -1.9065  0.7096 -0.2483
   85MOL   H31527363   7.771   7.605   1.829  0.8267  0.9996 -0.8026
   85MOL   H31627364   7.683   7.474   1.640  0.0697 -0.1606 -1.5428
   85MOL   H31727365   7.756   7.627   1.575 -0.3289 -0.3174 -0.7471
   85MOL   H31827366   7.587   7.610   1.578  1.2220  1.4940 -1.0319
   85MOL   H31927367   7.629   0.015   1.729  0.7714  0.7818  0.7025
   85MOL   H32027368   7.798   7.816   1.721 -1.1894 -1.2497 -1.3862
   85MOL   H32127369   7.731   0.002   1.881  2.4774  1.0585 -0.4338
   85MOL   H32227370   7.608   7.554   2.034 -0.0966  0.0390  0.0850
   86MOL     C127371   4.716   2.151   7.280 -0.6291 -0.6469  0.1235
   86MOL     C227372   4.679   2.007   7.256 -0.0314  0.7336  0.3578
   86MOL     O327373   4.786   1.910   7.269 -0.4524 -0.4214  0.0919
   86MOL     C427374   4.887   1.915   7.166 -0.3481 -0.4184  0.0542
   86MOL     C527375   4.836   1.837   7.040  0.4930  0.3244 -0.2134
   86MOL     C627376   5.019   1.867   7.230  0.0654  0.4565  0.1950
   86MOL     H727377   4.785   2.151   7.365  1.1915 -1.1661 -1.3113
   86MOL     H827378   4.750   2.196   7.187 -0.6008 -0.8432  0.0390
   86MOL     H927379   4.621   1.984   7.167  0.1504  1.2417  0.1048
   86MOL    H1027380   4.899   2.022   7.149 -0.3802 -0.4326 -0.0615
   86MOL    H1127381   4.809   1.734   7.063 -2.7897  1.1085 -0.3834
   86MOL    H1227382   4.747   1.879   6.994  0.0891  1.5488  1.6291
   86MOL    H1327383   4.914   1.845   6.965 -0.2425 -0.2204 -1.0426
   86MOL    H1427384   5.097   1.880   7.155  0.8588  1.1204  1.1182
   86MOL    H1527385   5.049   1.925   7.317 -1.1233  0.5119  0.5723
   86MOL    H1627386   5.006   1.766   7.267  0.5961  0.0689 -0.6473
   86MOL    H1727387   4.628   2.205   7.316 -1.6287 -1.4891 -1.0487
   86MOL    C1827388   4.572   1.972   7.370 -0.8672  0.1268  1.0086
   86MOL    C1927389   4.465   1.865   7.338 -0.1402  0.3769  0.5161
   86MOL    O2027390   4.362   1.934   7.270 -0.4748  0.4012 -0.0342
   86MOL    C2127391   4.294   1.857   7.174 -0.2325  0.3526 -0.2258
   86MOL    C2227392   4.382   1.866   7.043  0.3423  0.5420 -0.5451
   86MOL    C2327393   4.149   1.915   7.161 -0.3411  0.1281 -0.3834
   86MOL    H2427394   4.631   1.953   7.459  0.2054 -1.7250 -0.0502
   86MOL    H2527395   4.526   2.064   7.405  0.4682  0.2578  2.4679
   86MOL    H2627396   4.508   1.781   7.283 -2.1831 -0.4822  0.1729
   86MOL    H2727397   4.283   1.755   7.210  1.8778 -0.5412 -1.9890
   86MOL    H2827398   4.473   1.807   7.053 -1.3398 -1.8431  0.9393
   86MOL    H2927399   4.332   1.816   6.960  1.1603  0.3854 -0.9421
   86MOL    H3027400   4.406   1.967   7.009  0.2326 -0.3329 -3.3424
   86MOL    H3127401   4.155   2.016   7.119 -1.7211  0.4567  0.1908
   86MOL    H3227402   4.102   1.913   7.259 -2.9960 -3.2336 -1.6119
   86MOL    H3327403   4.093   1.848   7.096  0.5318  0.3474 -1.3849
   86MOL    C3427404   4.398   1.805   7.466  0.0183  0.2944 -0.6325
   86MOL    C3527405   4.482   1.702   7.543  0.2426 -0.0427  0.0644
   86MOL    O3627406   4.599   1.760   7.595 -0.0499  0.0497 -0.2011
   86MOL    C3727407   4.713   1.668   7.628 -0.4150  0.7394  0.4868
   86MOL    C3827408   4.816   1.685   7.518  0.2682 -0.0072 -0.0037
   86MOL    C3927409   4.778   1.711   7.762  0.0463 -0.2319  0.3469
   86MOL    H4027410   4.301   1.773   7.429  0.3933  0.4706 -1.8123
   86MOL    H4127411   4.374   1.885   7.536  1.6509 -0.6759  1.0633
   86MOL    H4227412   4.513   1.624   7.474 -1.5321  0.9426 -1.9094
   86MOL    H4327413   4.678   1.564   7.632 -1.6384  1.1380  0.4510
   86MOL    H4427414   4.917   1.667   7.555  0.3988  1.4631  0.4058
   86MOL    H4527415   4.829   1.789   7.487  1.1318 -0.0613  0.1659
   86MOL    H4627416   4.796   1.620   7.433  0.3472 -0.4779  0.3346
   86MOL    H4727417   4.874   1.662   7.778 -1.7346 -4.1044 -0.1559
   86MOL    H4827418   4.802   1.817   7.768 -1.5963  0.1997 -0.4685
   86MOL    H4927419   4.719   1.682   0.028  1.7855  0.6338  1.8515
   86MOL    C5027420   4.403   1.634   7.657 -0.4738 -0.2225  0.1786
   86MOL    C5127421   4.289   1.541   7.619  0.5492  0.1559 -0.1868
   86MOL    O5227422   4.253   1.476   7.743  0.2935  0.2796 -0.0356
   86MOL    C5327423   4.112   1.491   7.774 -0.5648 -0.3218 -0.5078
   86MOL    C5427424   4.093   1.613   0.040 -0.1400  0.5230 -0.0337
   86MOL    C5527425   4.074   1.369   0.040 -1.0051 -0.5575  0.3327
   86MOL    H5627426   4.469   1.587   7.730 -2.3443 -1.8920  0.8465
   86MOL    H5727427   4.359   1.705   7.727  1.0871  0.8126  0.1194
   86MOL    H5827428   4.209   1.606   7.581 -0.8086 -0.9556  0.7111
   86MOL    H5927429   4.036   1.491   7.696 -0.4570 -2.4561 -0.6418
   86MOL    H6027430   3.991   1.620   0.077  0.1845  1.2794  0.7432
   86MOL    H6127431   4.112   1.705   7.806  0.3235 -1.2951 -3.0101
   86MOL    H6227432   4.154   1.611   0.131  2.1545 -1.8338 -1.5290
   86MOL    H6327433   3.982   1.379   0.097  0.8148 -2.7024  3.7681
   86MOL    H6427434   4.153   1.352   0.113  0.5452 -0.5740 -1.3107
   86MOL    H6527435   4.065   1.276   7.803 -0.4091  0.3113 -1.1808
   86MOL    C6627436   4.310   1.433   7.514  0.0122 -0.4981 -0.3488
   86MOL    C6727437   4.180   1.356   7.466 -0.8720  0.1412  0.0622
   86MOL    O6827438   4.226   1.249   7.386  0.2447 -0.4417  0.2650
   86MOL    C6927439   4.297   1.142   7.451 -0.2373 -0.4439  0.1948
   86MOL    C7027440   4.210   1.069   7.558 -0.6384 -0.3003  0.0793
   86MOL    C7127441   4.341   1.045   7.349  0.3437 -0.3401 -0.0282
   86MOL    H7227442   4.363   1.475   7.428 -0.5155 -0.8905 -0.8670
   86MOL    H7327443   4.374   1.360   7.564  1.4973  0.2286 -1.1346
   86MOL    H7427444   4.129   1.317   7.554 -1.8343 -0.9764 -0.9709
   86MOL    H7527445   4.389   1.174   7.501 -0.6221 -1.1811  1.4158
   86MOL    H7627446   4.117   1.028   7.520 -0.9079  0.5932 -0.2280
   86MOL    H7727447   4.264   0.991   7.612 -1.6074  0.0183  1.5508
   86MOL    H7827448   4.183   1.131   7.643  0.3771 -0.8459  0.8182
   86MOL    H7927449   4.425   0.989   7.390  2.3861  1.6900 -1.2696
   86MOL    H8027450   4.394   1.089   7.264  0.0854 -3.7151 -2.0044
   86MOL    H8127451   4.262   0.976   7.320  1.6918 -1.2857 -1.5076
   86MOL    C8227452   4.092   1.446   7.380 -0.2292  0.0975 -0.7159
   86MOL    C8327453   3.960   1.371   7.340  0.2056  0.8428 -0.2599
   86MOL    O8427454   3.866   1.417   7.440  0.4443 -0.7663  0.0637
   86MOL    C8527455   3.765   1.334   7.481 -0.2600 -0.3766  0.3882
   86MOL    C8627456   3.671   1.419   7.565  0.5718 -0.2462  0.5895
   86MOL    C8727457   3.821   1.210   7.553  0.2512  0.0785  0.3141
   86MOL    H8827458   4.073   1.542   7.428  1.5463 -0.0691  0.3760
   86MOL    H8927459   4.165   1.468   7.302 -1.8796 -1.1699 -2.6611
   86MOL    H9027460   3.975   1.264   7.332 -2.1580  0.3276  1.7180
   86MOL    H9127461   3.717   1.307   7.388  0.4961  0.0525 -0.1293
   86MOL    H9227462   3.730   1.455   7.649 -0.0590 -0.6187  1.1972
   86MOL    H9327463   3.648   1.514   7.517  2.5518  1.1319  2.2998
   86MOL    H9427464   3.581   1.371   7.602 -0.7579  0.0432 -2.1858
   86MOL    H9527465   3.867   1.137   7.486  1.7226  0.7196  0.5881
   86MOL    H9627466   3.912   1.226   7.612  0.3751 -0.4480  0.2751
   86MOL    H9727467   3.749   1.162   7.619 -1.8441  1.9074 -0.5757
   86MOL    C9827468   3.915   1.421   7.202 -0.4991 -0.7290 -0.1396
   86MOL    C9927469   4.022   1.413   7.088  0.1465  0.1458 -0.1630
   86MOL   O10027470   3.944   1.449   6.975 -0.2800 -0.2519 -0.1762
   86MOL   C10127471   3.984   1.561   6.904  0.1913  0.1541  0.9949
   86MOL   C10227472   3.889   1.667   6.955 -0.3224  0.2527 -0.0004
   86MOL   C10327473   3.962   1.532   6.756  0.6701  0.5892 -0.4629
   86MOL   H10427474   3.820   1.372   7.180 -0.9065 -0.6386  1.3118
   86MOL   H10527475   3.876   1.522   7.215  1.6399  0.0652  0.2417
   86MOL   H10627476   4.102   1.485   7.102  1.6246 -1.6654  0.8262
   86MOL   H10727477   4.092   1.574   6.909  0.4127 -0.5837 -1.1079
   86MOL   H10827478   3.900   1.682   7.063  0.0978 -2.4536  0.3665
   86MOL   H10927479   3.786   1.641   6.930 -0.1896 -1.6008  1.2470
   86MOL   H11027480   3.906   1.757   6.896  1.3416  0.6464  1.0612
   86MOL   H11127481   4.045   1.484   6.704  0.9291 -0.7570  1.1772
   86MOL   H11227482   3.939   1.629   6.710  0.6674  0.3856 -0.8935
   86MOL   H11327483   3.868   1.481   6.734  0.1996  0.4814  1.6833
   86MOL   C11427484   4.089   1.277   7.063  0.3679 -0.3331 -0.0180
   86MOL   C11527485   4.213   1.276   6.982 -0.6097  0.6213  0.5500
   86MOL   O11627486   4.333   1.317   7.056 -0.3925  0.1524  0.2255
   86MOL   C11727487   4.383   1.451   7.041 -0.0664 -0.5861 -0.1220
   86MOL   C11827488   4.428   1.493   6.900 -0.6114 -0.5514  0.1358
   86MOL   C11927489   4.499   1.457   7.144  0.4504  0.2176  0.5236
   86MOL   H12027490   4.014   1.216   7.012 -0.0220  0.3779 -0.3023
   86MOL   H12127491   4.121   1.214   7.146 -1.8449 -1.4173  0.0446
   86MOL   H12227492   4.191   1.323   6.886  0.9475 -1.4829 -0.9192
   86MOL   H12327493   4.303   1.519   7.069 -0.2869 -0.9077  0.0329
   86MOL   H12427494   4.347   1.501   6.828  1.5462 -2.2599 -2.5466
   86MOL   H12527495   4.504   1.434   6.851 -1.5709 -0.8754 -0.9766
   86MOL   H12627496   4.473   1.588   6.930  0.4552 -0.9746 -0.1020
   86MOL   H12727497   4.552   1.553   7.150  1.3043 -0.3033  1.5418
   86MOL   H12827498   4.568   1.380   7.111  0.5605 -0.0936  1.4587
   86MOL   H12927499   4.469   1.428   7.245 -1.0077  0.4638  0.1709
   86MOL   C13027500   4.248   1.126   6.936 -0.1129  0.3090  0.2742
   86MOL   C13127501   4.349   1.120   6.821 -0.3634 -0.4551  0.2937
   86MOL   O13227502   4.266   1.155   6.711 -0.0163 -0.3917  0.3192
   86MOL   C13327503   4.314   1.256   6.629 -0.5572  0.6339 -0.5842
   86MOL   C13427504   4.456   1.226   6.575  0.1242 -0.1526 -0.0493
   86MOL   C13527505   4.216   1.277   6.516 -0.5648 -0.0816 -0.1073
   86MOL   H13627506   4.158   1.069   6.915  0.2958 -0.6841  1.1400
   86MOL   H13727507   4.290   1.087   7.030 -1.9298  0.7400  1.2913
   86MOL   H13827508   4.420   1.197   6.851 -1.6539  0.9397 -0.1729
   86MOL   H13927509   4.313   1.348   6.688 -0.1580  0.6996 -0.6829
   86MOL   H14027510   4.457   1.161   6.488 -1.1974  1.1716 -1.0787
   86MOL   H14127511   4.527   1.192   6.651 -1.1434  0.1946  1.3019
   86MOL   H14227512   4.493   1.317   6.526  0.5241 -0.8841 -1.1252
   86MOL   H14327513   4.249   1.356   6.448 -0.8861 -1.3370 -1.7574
   86MOL   H14427514   4.204   1.182   6.464 -0.8538  0.2672 -0.6932
   86MOL   H14527515   4.121   1.319   6.549  1.5775  2.4809  3.0319
   86MOL   C14627516   4.420   0.983   6.802  0.5982  0.0834  0.2470
   86MOL   C14727517   4.503   0.934   6.926  0.3149 -0.2671  0.3804
   86MOL   O14827518   4.527   0.795   6.923 -0.1842 -0.0651  0.5226
   86MOL   C14927519   4.425   0.719   6.993  0.6052 -0.1843 -0.2389
   86MOL   C15027520   4.455   0.708   7.140  0.6726  0.3196 -0.7941
   86MOL   C15127521   4.407   0.587   6.914  0.4287  0.1919  0.1034
   86MOL   H15227522   4.484   0.983   6.714 -0.8116 -2.0793 -0.7937
   86MOL   H15327523   4.340   0.916   6.772 -0.0778  1.8468 -2.0885
   86MOL   H15427524   4.447   0.965   7.014  0.2823  0.8005 -0.0004
   86MOL   H15527525   4.337   0.783   7.001  0.9588  0.1195  1.5288
   86MOL   H15627526   4.553   0.661   7.147  0.3998 -0.0527  0.7296
   86MOL   H15727527   4.384   0.645   7.194  1.5926  0.9599  1.1958
   86MOL   H15827528   4.467   0.805   7.187  1.4301 -0.3636  0.4426
   86MOL   H15927529   4.464   0.596   6.822  2.1352  0.5509  1.1907
   86MOL   H16027530   4.305   0.575   6.875  1.2385 -2.6674 -1.2316
   86MOL   H16127531   4.424   0.493   6.966  0.5391 -0.0909 -0.4358
   86MOL   C16227532   4.628   1.026   6.921  0.4592 -0.0507 -0.3721
   86MOL   C16327533   4.734   0.987   7.025 -0.0096 -0.0588 -0.0435
   86MOL   O16427534   4.829   1.088   7.014 -0.6051  0.0805 -0.1736
   86MOL   C16527535   4.958   1.029   7.001 -0.1383 -1.1131 -0.2752
   86MOL   C16627536   5.058   1.141   7.045 -0.2599  0.4769 -0.1365
   86MOL   C16727537   4.978   0.975   6.862 -0.3357 -0.0911 -0.0950
   86MOL   H16827538   4.667   1.023   6.819 -0.4321 -1.8741 -0.6748
   86MOL   H16927539   4.605   1.132   6.935 -0.8074 -0.4019  0.2861
   86MOL   H17027540   4.769   0.885   7.007 -1.3346 -0.6404  0.5360
   86MOL   H17127541   4.967   0.951   7.077 -2.6576 -2.0594 -0.8979
   86MOL   H17227542   5.026   1.184   7.140 -1.0755 -0.5183  0.0493
   86MOL   H17327543   5.062   1.218   6.967 -1.4336  1.8253  1.0903
   86MOL   H17427544   5.156   1.096   7.057 -0.1193  0.3548 -1.6934
   86MOL   H17527545   4.932   0.878   6.845 -2.2252  0.6602  0.6616
   86MOL   H17627546   5.084   0.959   6.842 -0.3900  0.5351 -0.9254
   86MOL   H17727547   4.950   1.034   6.775  0.9941 -3.5171 -2.9796
   86MOL   C17827548   4.672   1.016   7.166 -0.4556  0.0394  0.2296
   86MOL   C17927549   4.754   0.969   7.282 -0.3781 -0.3112 -0.1466
   86MOL   O18027550   4.699   1.039   7.394  0.4264  0.3314 -0.3570
   86MOL   C18127551   4.778   1.143   7.445 -0.3958 -0.4279 -0.7333
   86MOL   C18227552   4.767   1.140   7.594 -0.2012  0.3047  0.4218
   86MOL   C18327553   4.745   1.276   7.384 -0.1128  0.0041  0.3424
   86MOL   H18427554   4.573   0.974   7.186 -0.3423 -0.2103  0.2678
   86MOL   H18527555   4.664   1.124   7.167 -0.9212  0.0238 -1.0718
   86MOL   H18627556   4.860   0.994   7.272 -0.4198 -1.0421 -2.6471
   86MOL   H18727557   4.883   1.125   7.421 -0.6872 -0.6025 -1.9426
   86MOL   H18827558   4.691   1.210   7.629 -0.5638  0.8593 -1.3967
   86MOL   H18927559   4.853   1.181   7.646  1.3146 -1.4572 -0.6116
   86MOL   H19027560   4.739   1.039   7.625 -0.8510 -0.1779 -1.6451
   86MOL   H19127561   4.641   1.310   7.381 -0.6485 -1.5933  0.2997
   86MOL   H19227562   4.782   1.276   7.281  0.6416 -2.6855  0.5883
   86MOL   H19327563   4.791   1.358   7.439  2.6797  0.6753 -2.7978
   86MOL   C19427564   4.772   0.818   7.313  0.2971  0.3228 -0.2146
   86MOL   C19527565   4.886   0.786   7.409  0.9087 -0.8738 -0.5470
   86MOL   O19627566   5.004   0.782   7.328  0.3070  0.4309  0.4191
   86MOL   C19727567   5.129   0.822   7.386 -0.3009  0.1248  0.7758
   86MOL   C19827568   5.238   0.751   7.312  0.1591  0.0722 -0.1578
   86MOL   C19927569   5.143   0.979   7.384  0.5165 -0.4938 -0.5039
   86MOL   H20027570   4.681   0.778   7.357  0.3606  1.7015  1.2176
   86MOL   H20127571   4.781   0.766   7.218 -0.5804  0.8584 -0.5872
   86MOL   H20227572   4.892   0.868   7.481 -1.7569 -0.1071 -1.1098
   86MOL   H20327573   5.136   0.788   7.490 -1.9916 -1.5781  0.3579
   86MOL   H20427574   5.246   0.772   7.205  0.6636  0.9217  0.0435
   86MOL   H20527575   5.329   0.760   7.370 -0.6478 -1.0980  1.3028
   86MOL   H20627576   5.210   0.646   7.306 -1.2995  0.4614 -0.3660
   86MOL   H20727577   5.127   1.004   7.279  0.9657  0.3766 -0.3720
   86MOL   H20827578   5.060   1.007   7.449  2.1344 -0.8451  1.7640
   86MOL   H20927579   5.238   1.019   7.420  1.2081 -1.2503 -1.4775
   86MOL   C21027580   4.858   0.654   7.477  0.0162 -0.1282  0.7157
   86MOL   C21127581   4.769   0.653   7.601  0.3473  0.1147  0.4490
   86MOL   O21227582   4.732   0.525   7.617 -0.3091  0.5369 -0.2087
   86MOL   C21327583   4.594   0.487   7.614  0.0804 -0.3542 -0.3407
   86MOL   C21427584   4.530   0.512   7.480  0.0339 -0.0847  0.1029
   86MOL   C21527585   4.597   0.333   7.640 -0.0061 -0.1480  0.0604
   86MOL   H21627586   4.952   0.606   7.507  0.6163  0.4957 -0.1448
   86MOL   H21727587   4.825   0.583   7.401  1.3293 -0.2424  0.2347
   86MOL   H21827588   4.688   0.726   7.591 -0.1675 -0.5128  0.0620
   86MOL   H21927589   4.547   0.536   7.699  1.2910 -0.3479  0.3365
   86MOL   H22027590   4.591   0.487   7.392 -3.3021  0.1898 -2.3942
   86MOL   H22127591   4.521   0.620   7.468 -0.8040 -0.4233 -2.9212
   86MOL   H22227592   4.430   0.469   7.479  0.5380 -1.2768  0.3263
   86MOL   H22327593   4.636   0.308   7.738  0.5665 -0.3228 -0.2047
   86MOL   H22427594   4.665   0.284   7.570 -1.2065  1.6175 -2.4488
   86MOL   H22527595   4.500   0.287   7.623  0.6685 -2.4842  2.2673
   86MOL   C22627596   4.848   0.666   7.733 -0.2614 -0.2697 -0.3425
   86MOL   C22727597   4.772   0.657   0.051 -0.3452  0.7516  0.0698
   86MOL   O22827598   4.670   0.760   0.038 -0.3845  0.1684  0.0575
   86MOL   C22927599   4.578   0.780   0.157  0.1052 -0.4865  0.4404
   86MOL   C23027600   4.455   0.685   0.141 -0.0929 -0.0145  0.0789
   86MOL   C23127601   4.522   0.925   0.139 -0.3814 -0.6931  0.4135
   86MOL   H23227602   4.893   0.765   7.741  0.1483 -0.6659  2.6270
   86MOL   H23327603   4.934   0.599   7.732 -0.5979 -0.7075  0.0004
   86MOL   H23427604   4.723   0.560   0.054  1.8974 -0.3879  1.5912
   86MOL   H23527605   4.631   0.771   0.251 -1.9216  0.4558  1.7255
   86MOL   H23627606   4.420   0.693   0.038  3.4652 -0.9919 -1.2746
   86MOL   H23727607   4.469   0.579   0.158 -0.3832  0.2490  2.0782
   86MOL   H23827608   4.378   0.715   0.212  0.4075 -0.0071  0.6206
   86MOL   H23927609   4.598   1.001   0.157  0.0064 -0.7691 -0.8986
   86MOL   H24027610   4.445   0.958   0.210 -1.4531 -1.9032 -0.1699
   86MOL   H24127611   4.485   0.934   0.037  0.5768  2.2482  0.2811
   86MOL   C24227612   4.863   0.678   0.173 -0.0466 -0.3160 -0.5817
   86MOL   C24327613   4.991   0.585   0.176  0.0484 -0.4665 -1.3330
   86MOL   O24427614   4.945   0.455   0.199 -0.2527 -0.1161  0.0251
   86MOL   C24527615   5.001   0.351   0.118 -0.6476  1.0532  0.0621
   86MOL   C24627616   5.079   0.257   0.208 -0.0020  0.2562  0.0156
   86MOL   C24727617   4.886   0.281   0.053  0.7791  0.0333  0.8611
   86MOL   H24827618   4.907   0.777   0.171 -0.4660 -0.1231 -0.4951
   86MOL   H24927619   4.808   0.670   0.268  4.1983 -0.6151  1.9859
   86MOL   H25027620   5.051   0.585   0.085  2.2826 -1.2414  0.1045
   86MOL   H25127621   5.065   0.386   0.036  1.1176  0.1279  1.0158
   86MOL   H25227622   5.168   0.307   0.247  0.4950 -0.5942  0.0038
   86MOL   H25327623   5.016   0.216   0.287 -1.4778  2.6090  0.0743
   86MOL   H25427624   5.114   0.170   0.151 -0.4561  0.7518 -1.0262
   86MOL   H25527625   4.825   0.357   0.004  2.0376  0.2116 -0.4755
   86MOL   H25627626   4.915   0.213   7.793  0.0965  1.3514 -0.5322
   86MOL   H25727627   4.823   0.213   0.110  0.0502 -2.1594 -2.3853
   86MOL   C25827628   5.091   0.638   0.283 -0.2747 -0.1881 -0.9048
   86MOL   C25927629   5.178   0.764   0.260 -0.2020 -0.4194  0.7458
   86MOL   O26027630   5.248   0.743   0.134  0.2491  0.0048 -0.2410
   86MOL   C26127631   5.204   0.829   0.030 -0.5786 -0.0406 -0.6701
   86MOL   C26227632   5.227   0.976   0.061  0.2632  0.3774  1.1407
   86MOL   C26327633   5.285   0.781   7.721 -0.0534  0.4151 -0.0220
   86MOL   H26427634   5.020   0.659   0.363  0.2634 -0.3438 -0.3860
   86MOL   H26527635   5.153   0.551   0.301 -0.4181 -0.2764 -0.8337
   86MOL   H26627636   5.106   0.843   0.242 -1.7520 -0.7815  4.9639
   86MOL   H26727637   5.096   0.827   0.016 -0.8391 -0.6793  1.1875
   86MOL   H26827638   5.277   1.029   7.800 -0.3349  1.8972  1.7542
   86MOL   H26927639   5.303   0.994   0.138  0.9717 -1.3148  0.8632
   86MOL   H27027640   5.136   1.034   0.071  0.1692  0.2700  0.9164
   86MOL   H27127641   5.247   0.691   7.674 -1.7269  1.7271 -1.2408
   86MOL   H27227642   5.273   0.852   7.639 -1.5878  1.1466  0.8054
   86MOL   H27327643   5.391   0.761   7.739  0.5102  0.9316 -2.6527
   86MOL   C27427644   5.274   0.800   0.373 -0.1350  0.8532 -0.2738
   86MOL   C27527645   5.197   0.843   0.501 -0.4957  0.5784  0.6083
   86MOL   O27627646   5.296   0.860   0.600  0.1833  0.8355 -0.4744
   86MOL   C27727647   5.301   0.768   0.707  0.5412  0.0954 -1.0988
   86MOL   C27827648   5.393   0.825   0.811 -0.7626 -0.1047 -0.1461
   86MOL   C27927649   5.333   0.632   0.654  0.1416 -0.5691 -0.1890
   86MOL   H28027650   5.335   0.712   0.391 -1.2278  0.1685  0.1097
   86MOL   H28127651   5.335   0.887   0.351 -1.3644  1.5733 -0.9321
   86MOL   H28227652   5.113   0.777   0.524  0.3633 -1.5851 -2.2243
   86MOL   H28327653   5.197   0.772   0.740  0.6947  0.8014 -0.6671
   86MOL   H28427654   5.387   0.934   0.817  2.9916  0.3496 -2.5584
   86MOL   H28527655   5.385   0.778   0.909  0.0657 -0.2117 -0.1204
   86MOL   H28627656   5.494   0.822   0.768 -0.2559  0.6474  0.9689
   86MOL   H28727657   5.259   0.582   0.591 -0.1566  0.3122 -0.5452
   86MOL   H28827658   5.341   0.556   0.731  0.3933 -0.5112 -0.1567
   86MOL   H28927659   5.432   0.632   0.608  0.0557 -1.2059 -0.3811
   86MOL   C29027660   5.127   0.975   0.492 -0.0383  0.4227  0.8736
   86MOL   C29127661   5.031   1.010   0.612 -0.6422 -0.1139 -0.3024
   86MOL   O29227662   4.948   0.901   0.643  0.3928  0.6111  0.4529
   86MOL   C29327663   4.863   0.864   0.538 -0.1583  0.5440  0.4462
   86MOL   C29427664   4.752   0.971   0.516  0.0747 -0.9842 -0.1828
   86MOL   C29527665   4.802   0.723   0.582 -0.8845  0.2971 -0.5109
   86MOL   H29627666   5.074   0.988   0.398 -0.7509 -0.8325  1.0960
   86MOL   H29727667   5.197   1.057   0.476  0.3350  0.2157  1.4135
   86MOL   H29827668   4.968   1.095   0.586 -0.0525  0.8505  1.3430
   86MOL   H29927669   4.907   0.855   0.438 -0.3129 -3.0040  0.6107
   86MOL   H30027670   4.782   1.054   0.453  1.8007 -2.1202 -0.8979
   86MOL   H30127671   4.667   0.925   0.465 -0.2518  0.4029 -0.8932
   86MOL   H30227672   4.707   0.999   0.611 -0.0089 -2.6405  0.2881
   86MOL   H30327673   4.881   0.665   0.630 -1.5112 -0.4230 -0.3387
   86MOL   H30427674   4.722   0.737   0.654 -0.0189  1.2112  0.2797
   86MOL   H30527675   4.759   0.671   0.496  0.7165  0.7223 -1.6001
   86MOL   C30627676   5.106   1.044   0.743  0.4439 -0.3036 -0.0747
   86MOL   C30727677   5.218   1.154   0.742 -0.0062 -0.4319 -0.0890
   86MOL   O30827678   5.273   1.196   0.873  0.4690 -0.9528  0.4337
   86MOL   C30927679   5.366   1.300   0.865 -0.4624 -0.0870 -0.4896
   86MOL   C31027680   5.403   1.359   1.004  0.5369  0.5053 -0.1845
   86MOL   C31127681   5.495   1.251   0.799  0.0766 -0.6959  0.0227
   86MOL   H31227682   5.138   0.962   0.807  0.1180  0.1954  0.7359
   86MOL   H31327683   5.035   1.086   0.814  0.7237  0.4005 -0.2065
   86MOL   H31427684   5.300   1.109   0.686  0.5261 -0.4093  0.6680
   86MOL   H31527685   5.332   1.388   0.811  0.7606  0.2853 -0.6743
   86MOL   H31627686   5.317   1.374   1.070 -0.1939 -1.4434 -0.6655
   86MOL   H31727687   5.463   1.448   0.986  1.8415  0.1729  2.3355
   86MOL   H31827688   5.471   1.288   1.049  0.5109 -0.6617 -1.9463
   86MOL   H31927689   5.479   1.235   0.692  0.6406  0.5997 -0.2675
   86MOL   H32027690   5.536   1.164   0.850 -1.8459 -1.7558 -0.1877
   86MOL   H32127691   5.569   1.331   0.794 -0.9284  0.1664 -1.7557
   86MOL   H32227692   5.176   1.244   0.695 -1.8316 -1.5029 -0.5786
   87MOL     C127693   6.397   7.252   6.450  0.0701 -0.3246  0.7683
   87MOL     C227694   6.306   7.316   6.553 -0.4956  0.3052 -0.2972
   87MOL     O327695   6.384   7.416   6.628 -0.0743  0.8149  1.0857
   87MOL     C427696   6.360   7.416   6.767 -0.2044  0.0199  0.5590
   87MOL     C527697   6.394   7.561   6.805  0.0381 -0.1018  0.2909
   87MOL     C627698   6.438   7.311   6.837 -0.2354  0.4358 -1.0782
   87MOL     H727699   6.338   7.195   6.378  3.0343 -0.1712 -1.9075
   87MOL     H827700   6.426   7.331   6.380  1.5730  0.6541  2.4511
   87MOL     H927701   6.266   7.228   6.604 -0.0344 -0.2338 -0.8561
   87MOL    H1027702   6.258   7.400   6.800  0.1850 -0.2557  1.6511
   87MOL    H1127703   6.315   7.632   6.780 -1.0979 -1.3913  0.1035
   87MOL    H1227704   6.418   7.567   6.911 -0.7523  0.4122  0.4397
   87MOL    H1327705   6.484   7.584   6.748 -0.0189 -0.1335  0.1882
   87MOL    H1427706   6.540   7.316   6.800 -0.1172  0.8314 -0.7090
   87MOL    H1527707   6.436   7.335   6.944  0.1240 -0.9467 -0.7463
   87MOL    H1627708   6.401   7.211   6.816 -0.8997  1.0093 -2.7119
   87MOL    H1727709   6.487   7.198   6.479  1.3147  1.2079 -0.1463
   87MOL    C1827710   6.189   7.405   6.500 -0.6217 -0.2547 -0.1832
   87MOL    C1927711   6.065   7.325   6.450 -0.7684 -0.1546  0.3580
   87MOL    O2027712   5.966   7.413   6.390  0.2866  0.2869 -0.0824
   87MOL    C2127713   5.991   7.460   6.261  0.0344  0.0871  0.1577
   87MOL    C2227714   5.899   7.588   6.240  0.7519  0.3160  0.0439
   87MOL    C2327715   5.951   7.349   6.160 -1.0608 -0.0377  0.3062
   87MOL    H2427716   6.152   7.472   6.578  3.2365  2.4593 -0.5631
   87MOL    H2527717   6.236   7.474   6.430 -1.6990  3.6451  2.7174
   87MOL    H2627718   6.101   7.241   6.391 -0.3745 -2.9582  4.3689
   87MOL    H2727719   6.096   7.491   6.261 -0.8177  3.1629  0.9497
   87MOL    H2827720   5.796   7.551   6.243  1.3187 -1.2339  0.6087
   87MOL    H2927721   5.902   7.666   6.317  0.3034  0.0270  0.3539
   87MOL    H3027722   5.913   7.645   6.148 -1.5276 -0.2967 -0.7292
   87MOL    H3127723   5.844   7.328   6.162 -1.2107  0.8300  1.2505
   87MOL    H3227724   5.998   7.254   6.184 -1.2128  0.4926  2.8359
   87MOL    H3327725   5.987   7.375   6.060 -1.0077 -2.5150 -0.3712
   87MOL    C3427726   5.991   7.259   6.569  0.1869 -0.3683  0.2617
   87MOL    C3527727   5.887   7.161   6.526  0.4013  0.0744 -0.2172
   87MOL    O3627728   5.952   7.048   6.472  0.5057 -0.0596  0.2140
   87MOL    C3727729   5.882   6.947   6.397  0.3372  0.2303 -0.6374
   87MOL    C3827730   5.880   7.003   6.256 -0.3213  0.1889  0.2398
   87MOL    C3927731   5.961   6.813   6.400 -0.5602  0.1172  0.3800
   87MOL    H4027732   5.944   7.337   6.628 -1.6305  0.2953 -1.9788
   87MOL    H4127733   6.067   7.213   6.631  1.0414  0.2291 -0.3279
   87MOL    H4227734   5.816   7.203   6.456  0.7054 -0.2936 -0.7514
   87MOL    H4327735   5.780   6.927   6.430  0.7615  0.9194  1.1285
   87MOL    H4427736   5.982   6.998   6.218 -0.3400 -3.4447  0.4746
   87MOL    H4527737   5.852   7.108   6.246 -2.1012 -0.2694  0.1394
   87MOL    H4627738   5.816   6.945   6.189 -2.4039  2.3110  0.3445
   87MOL    H4727739   5.924   6.736   6.332  1.2528  0.1088 -0.6099
   87MOL    H4827740   6.069   6.816   6.387 -0.4486 -0.3455  1.2055
   87MOL    H4927741   5.945   6.764   6.496 -0.4435  1.0102  0.8608
   87MOL    C5027742   5.821   7.095   6.652  0.4090  0.0528  0.1992
   87MOL    C5127743   5.738   7.184   6.748  0.3831 -0.6185  0.6448
   87MOL    O5227744   5.680   7.081   6.830 -0.3594  0.0659 -0.1698
   87MOL    C5327745   5.755   7.053   6.947  0.0992  0.3884 -0.2499
   87MOL    C5427746   5.729   6.904   6.984 -0.9976 -0.0522 -0.1324
   87MOL    C5527747   5.735   7.146   7.068  0.4176  0.3529  0.4094
   87MOL    H5627748   5.749   7.027   6.606 -0.8019  1.4082  0.0678
   87MOL    H5727749   5.889   7.039   6.717 -1.6924 -0.7791  1.7348
   87MOL    H5827750   5.793   7.250   6.815  1.2888 -2.2508  1.5477
   87MOL    H5927751   5.863   7.060   6.936  0.1732  0.0247  0.2839
   87MOL    H6027752   5.772   6.834   6.912 -1.8088 -0.0075 -0.6666
   87MOL    H6127753   5.623   6.879   6.988 -1.2183  0.6054 -1.5581
   87MOL    H6227754   5.780   6.884   7.078  0.5742 -1.6761 -1.3006
   87MOL    H6327755   5.797   7.103   7.147  1.8254  0.0198 -0.8408
   87MOL    H6427756   5.632   7.153   7.103  0.5391  1.2490  0.5951
   87MOL    H6527757   5.767   7.246   7.040  0.0100  0.4098  0.1431
   87MOL    C6627758   5.612   7.260   6.685  1.1605  0.1716  0.2971
   87MOL    C6727759   5.538   7.357   6.780 -0.1084 -0.4226  0.3318
   87MOL    O6827760   5.403   7.396   6.734  0.0762 -0.3000  0.1562
   87MOL    C6927761   5.304   7.294   6.730 -0.3729 -0.1151 -0.0717
   87MOL    C7027762   5.255   7.260   6.867  0.3187  0.0236  0.1821
   87MOL    C7127763   5.193   7.356   6.636  0.1878  0.2230 -0.0860
   87MOL    H7227764   5.642   7.316   6.596  0.7520 -1.8292 -1.1228
   87MOL    H7327765   5.543   7.189   6.640 -0.5186  1.9443  0.0019
   87MOL    H7427766   5.531   7.311   6.878  0.9985 -3.3203 -0.8815
   87MOL    H7527767   5.340   7.203   6.684 -1.6217 -0.7285  0.1319
   87MOL    H7627768   5.170   7.194   6.849  1.6116 -1.6707  0.1631
   87MOL    H7727769   5.329   7.208   6.928 -0.8633 -1.7290  0.1572
   87MOL    H7827770   5.209   7.343   6.921 -2.0287 -1.5327  0.6191
   87MOL    H7927771   5.100   7.301   6.625  0.2759  0.3045 -1.3077
   87MOL    H8027772   5.241   7.365   6.539  2.2182 -1.9887  0.6554
   87MOL    H8127773   5.177   7.459   6.669  0.6666 -0.0587  1.0684
   87MOL    C8227774   5.615   7.485   6.811  0.3650  0.3425 -0.0803
   87MOL    C8327775   5.571   7.571   6.931  0.3677  0.4044 -0.0906
   87MOL    O8427776   5.614   7.498   7.045 -0.3285 -0.2011  0.4683
   87MOL    C8527777   5.550   7.539   7.170  0.2863  0.0704  0.4855
   87MOL    C8627778   5.662   7.517   7.281  0.2536 -0.7353 -0.4829
   87MOL    C8727779   5.438   7.433   7.184  0.1245  0.1981  0.2727
   87MOL    H8827780   5.717   7.450   6.826  0.0674 -1.0217 -1.1594
   87MOL    H8927781   5.606   7.547   6.722 -1.6138 -0.0225 -0.1456
   87MOL    H9027782   5.462   7.571   6.932  0.3530 -1.1657  2.1207
   87MOL    H9127783   5.517   7.643   7.168  0.0889 -0.0132 -0.8528
   87MOL    H9227784   5.729   7.603   7.276 -0.1386 -0.5229 -2.3811
   87MOL    H9327785   5.615   7.496   7.377 -1.4543 -1.1743 -1.3868
   87MOL    H9427786   5.712   7.423   7.259  0.8318  0.1449 -3.1033
   87MOL    H9527787   5.366   7.432   7.101  0.9719  1.0363 -0.4810
   87MOL    H9627788   5.495   7.340   7.185  0.6117  0.4979  1.9687
   87MOL    H9727789   5.392   7.451   7.281  0.1819 -0.4296  0.4178
   87MOL    C9827790   5.633   7.713   6.929  0.5249 -0.0430  0.1147
   87MOL    C9927791   5.565   7.811   6.825 -0.2704  0.5785  0.6707
   87MOL   O10027792   5.614   7.773   6.697 -0.3898 -0.3055  0.3988
   87MOL   C10127793   5.550   0.008   6.576  0.3463 -0.0027 -0.1667
   87MOL   C10227794   5.416   7.761   6.548  0.9902 -0.3731 -0.0248
   87MOL   C10327795   5.659   7.801   6.475 -0.2411 -0.2180  0.4261
   87MOL   H10427796   5.613   7.753   7.029  0.7089  2.1307 -0.6889
   87MOL   H10527797   5.741   7.711   6.913  0.1888 -0.9476 -2.2676
   87MOL   H10627798   5.456   7.809   6.816 -0.2115 -0.2058  0.0669
   87MOL   H10727799   5.548   0.117   6.584 -1.0939 -0.0739  0.6284
   87MOL   H10827800   5.337   7.777   6.621  0.0740 -1.5155 -0.7485
   87MOL   H10927801   5.421   7.652   6.556 -0.2067 -0.6478 -2.6718
   87MOL   H11027802   5.385   7.779   6.445 -1.2543  2.5575  1.0923
   87MOL   H11127803   5.686   7.696   6.474 -0.7774 -0.3554  0.1193
   87MOL   H11227804   5.754   0.034   6.482  0.3075 -1.1392 -0.0076
   87MOL   H11327805   5.622   7.817   6.374 -2.2206 -1.4476  0.9097
   87MOL   C11427806   5.596   0.140   6.860  0.5266 -0.2124 -0.6651
   87MOL   C11527807   5.483   0.208   6.940  0.2847 -0.5278  0.4302
   87MOL   O11627808   5.532   0.308   7.027  0.3591  0.5966  0.4263
   87MOL   C11727809   5.446   0.342   7.138 -0.0395 -0.3485  0.0569
   87MOL   C11827810   5.445   0.497   7.144  0.2313  0.5634 -0.7951
   87MOL   C11927811   5.515   0.304   7.271  0.5230  0.1832  0.5698
   87MOL   H12027812   5.614   0.195   6.768 -0.6467  1.5852  0.1489
   87MOL   H12127813   5.690   0.143   6.915 -0.0282  0.3779  0.2718
   87MOL   H12227814   5.439   0.134   7.008 -1.3377  0.0815  0.0766
   87MOL   H12327815   5.350   0.292   7.127 -0.0919 -0.3628  0.5866
   87MOL   H12427816   5.547   0.536   7.147  0.1063  0.8032  1.7179
   87MOL   H12527817   5.398   0.514   7.241  1.2617 -2.2277  0.2323
   87MOL   H12627818   5.383   0.544   7.068  0.2741  1.5886 -0.2096
   87MOL   H12727819   5.445   0.327   7.351  0.6404 -0.3016  0.8122
   87MOL   H12827820   5.609   0.355   7.295  0.3928  1.7886 -2.1413
   87MOL   H12927821   5.533   0.196   7.270  0.0081  0.0914  1.5304
   87MOL   C13027822   5.365   0.253   6.841 -0.2572  0.3875 -0.2544
   87MOL   C13127823   5.371   0.398   6.787  0.0637  0.1771 -1.0517
   87MOL   O13227824   5.258   0.418   6.695  0.0173 -0.1200 -0.0945
   87MOL   C13327825   5.125   0.394   6.744 -0.6868  0.4012  0.3372
   87MOL   C13427826   5.083   0.489   6.852 -0.5535  0.4373  0.1294
   87MOL   C13527827   5.039   0.413   6.618 -1.0150 -0.2168 -0.7155
   87MOL   H13627828   5.271   0.229   6.890  0.7593 -0.7583  1.1583
   87MOL   H13727829   5.359   0.183   6.758 -1.2764 -0.0488  0.1786
   87MOL   H13827830   5.355   0.474   6.863 -0.6951 -1.7429  0.7669
   87MOL   H13927831   5.114   0.294   6.785 -0.6969  0.4760  0.5216
   87MOL   H14027832   5.109   0.589   6.819  2.9267 -0.6444 -0.5655
   87MOL   H14127833   5.131   0.471   6.948 -0.2860 -0.3677 -0.1491
   87MOL   H14227834   4.974   0.486   6.860 -0.8474  0.4734 -3.0032
   87MOL   H14327835   5.080   0.344   6.543 -1.9783 -2.2059  0.5419
   87MOL   H14427836   4.936   0.379   6.624 -1.1978  0.6306  1.2372
   87MOL   H14527837   5.035   0.516   6.583  1.4649  0.4644  0.8942
   87MOL   C14627838   5.507   0.430   6.709 -0.0575 -1.0577 -0.1223
   87MOL   C14727839   5.525   0.564   6.631  0.1277 -0.5919 -0.1099
   87MOL   O14827840   5.516   0.672   6.726 -0.0600 -0.3384  0.6168
   87MOL   C14927841   5.484   0.798   6.675 -0.3673  0.1511 -0.1674
   87MOL   C15027842   5.552   0.903   6.758 -0.8120  0.2328 -0.0625
   87MOL   C15127843   5.331   0.813   6.666  0.2862  0.8718  0.3093
   87MOL   H15227844   5.506   0.348   6.637  1.6797  0.6401 -2.1652
   87MOL   H15327845   5.585   0.417   6.784  1.1097  0.8669 -0.9634
   87MOL   H15427846   5.450   0.581   6.553  0.6020 -0.2421 -0.4910
   87MOL   H15527847   5.518   0.821   6.574 -0.7552 -0.3008 -0.4032
   87MOL   H15627848   5.655   0.910   6.721 -1.2502 -1.4490 -1.6883
   87MOL   H15727849   5.550   0.865   6.860  0.8491 -0.7133 -0.3597
   87MOL   H15827850   5.506   1.001   6.745 -0.8678  0.3077  0.6939
   87MOL   H15927851   5.286   0.787   6.762  1.8425 -3.2507  0.0269
   87MOL   H16027852   5.292   0.747   6.588  1.7221 -0.5950  0.7897
   87MOL   H16127853   5.299   0.913   6.636  1.5167  1.2029  0.0741
   87MOL   C16227854   5.665   0.566   6.571 -0.1843  0.2392 -0.2659
   87MOL   C16327855   5.688   0.472   6.449  0.1658  0.4405  0.2193
   87MOL   O16427856   5.602   0.520   6.348  1.2169  0.7073 -0.4497
   87MOL   C16527857   5.563   0.421   6.251  0.7591 -0.3940  0.4280
   87MOL   C16627858   5.547   0.492   6.123  0.4639  0.3762 -0.2649
   87MOL   C16727859   5.444   0.333   6.291 -0.2894 -0.2142  0.1054
   87MOL   H16827860   5.684   0.666   6.530  2.3441  1.0093  2.6180
   87MOL   H16927861   5.743   0.548   6.644 -1.4590 -0.6714  0.8927
   87MOL   H17027862   5.675   0.368   6.479 -1.8866  1.0760  1.6133
   87MOL   H17127863   5.644   0.348   6.253  0.4302 -0.7389  1.1160
   87MOL   H17227864   5.633   0.553   6.096  0.6523 -0.1381 -0.8222
   87MOL   H17327865   5.466   0.564   6.134  1.1222  1.8681 -4.3801
   87MOL   H17427866   5.518   0.429   6.039 -2.5869  1.3956 -0.0562
   87MOL   H17527867   5.473   0.275   6.379  0.3590 -1.7443 -1.0882
   87MOL   H17627868   5.414   0.271   6.206 -2.6984  0.7847  0.1973
   87MOL   H17727869   5.352   0.390   6.297  0.4764  1.1180 -0.4299
   87MOL   C17827870   5.836   0.494   6.400 -0.8584  1.1307 -0.1492
   87MOL   C17927871   5.941   0.386   6.439 -0.8961  0.3011  0.2094
   87MOL   O18027872   6.032   0.391   6.334  0.1134 -0.3310 -0.1616
   87MOL   C18127873   6.049   0.274   6.252  0.7829 -0.5633 -0.1169
   87MOL   C18227874   6.167   0.279   6.163 -0.7445  0.2444 -0.0199
   87MOL   C18327875   5.925   0.256   6.173  0.1777 -0.4165 -0.1856
   87MOL   H18427876   5.861   0.594   6.437  0.9364 -0.1266  2.2252
   87MOL   H18527877   5.832   0.498   6.292 -0.2126  1.4449 -0.1682
   87MOL   H18627878   5.895   0.288   6.452  0.1174 -0.2506 -0.2842
   87MOL   H18727879   6.061   0.188   6.318 -2.2770  1.5570  3.4257
   87MOL   H18827880   6.168   0.189   6.102 -0.4322  0.0171  0.3163
   87MOL   H18927881   6.259   0.291   6.221 -1.4645 -0.3313  1.2644
   87MOL   H19027882   6.159   0.362   6.093 -0.3958 -1.2957 -1.9076
   87MOL   H19127883   5.894   0.344   6.116  0.1909 -0.2164  0.1141
   87MOL   H19227884   5.836   0.233   6.232 -0.0234  0.7547 -0.0133
   87MOL   H19327885   5.932   0.169   6.108  1.0654 -1.3980  1.2070
   87MOL   C19427886   6.009   0.432   6.570 -0.1701  0.9727  0.5524
   87MOL   C19527887   6.100   0.325   6.618  0.5993  0.3637  0.1667
   87MOL   O19627888   6.020   0.230   6.685 -0.0177  0.4219 -0.0664
   87MOL   C19727889   6.077   0.100   6.709  0.7888 -0.1827 -0.3563
   87MOL   C19827890   5.975   0.049   6.810 -0.4155 -0.6453  0.5283
   87MOL   C19927891   6.077   0.013   6.578 -0.2082 -1.0811 -0.0039
   87MOL   H20027892   6.071   0.519   6.550  0.6841  0.7890  2.3126
   87MOL   H20127893   5.935   0.453   6.647 -1.4417 -0.6540 -0.1755
   87MOL   H20227894   6.131   0.274   6.527 -0.9703 -1.6440  0.7283
   87MOL   H20327895   6.181   0.100   6.740  1.0185 -2.3517 -1.0906
   87MOL   H20427896   5.874   0.054   6.768  0.8344 -1.1679 -2.7398
   87MOL   H20527897   5.987   7.767   6.843  1.7776 -0.1525  1.3019
   87MOL   H20627898   5.971   0.118   6.894 -2.1116  0.3245 -0.2945
   87MOL   H20727899   6.175   0.014   6.531  0.9288 -0.2556  2.3199
   87MOL   H20827900   6.047   7.729   6.590 -1.2566 -0.8962 -0.9092
   87MOL   H20927901   6.016   0.045   6.493  1.7984  0.7725 -0.8020
   87MOL   C21027902   6.226   0.366   6.695 -0.7424 -0.2547  0.4949
   87MOL   C21127903   6.352   0.356   6.602 -0.0854  1.0002  0.5870
   87MOL   O21227904   6.351   0.220   6.556  0.2166 -0.0656 -0.2551
   87MOL   C21327905   6.473   0.147   6.551 -0.3643  0.6164 -0.4860
   87MOL   C21427906   6.481   0.060   6.680 -0.2936 -0.0794 -0.5425
   87MOL   C21527907   6.475   0.062   6.429  0.2657 -0.3529  0.2302
   87MOL   H21627908   6.245   0.320   6.791  0.1256 -0.1351  0.3846
   87MOL   H21727909   6.214   0.471   6.724  0.9617 -0.1249  0.7373
   87MOL   H21827910   6.441   0.382   6.658  0.6143  1.6903 -0.8182
   87MOL   H21927911   6.559   0.214   6.556  1.0468 -1.2226  0.3679
   87MOL   H22027912   6.387   0.006   6.691 -0.3626  0.2500  0.6040
   87MOL   H22127913   6.505   0.111   6.774 -0.6739  0.3260 -0.6636
   87MOL   H22227914   6.563   7.810   6.673  0.1608  0.1924  1.7063
   87MOL   H22327915   6.578   0.027   6.414  0.4450  0.9933 -1.8327
   87MOL   H22427916   6.446   0.121   6.342 -0.8145  0.7746  1.3368
   87MOL   H22527917   6.414   7.792   6.429 -0.9845  0.4741 -0.5051
   87MOL   C22627918   6.355   0.460   6.488 -0.1629 -0.0400  0.1852
   87MOL   C22727919   6.471   0.443   6.387 -0.7616 -0.0608  0.4205
   87MOL   O22827920   6.601   0.448   6.453  0.6812 -0.5997  0.0489
   87MOL   C22927921   6.658   0.571   6.494  0.3682 -0.5191 -0.0403
   87MOL   C23027922   6.810   0.558   6.460 -0.3128  0.0146 -0.0113
   87MOL   C23127923   6.634   0.592   6.644 -0.0287 -0.0620  0.7872
   87MOL   H23227924   6.348   0.557   6.537  0.6609  0.4643 -0.6578
   87MOL   H23327925   6.267   0.453   6.424  0.1718  0.5526 -0.3578
   87MOL   H23427926   6.469   0.338   6.359 -2.1703 -0.2180  1.0201
   87MOL   H23527927   6.622   0.656   6.436  1.1371 -0.8426 -1.0149
   87MOL   H23627928   6.834   0.567   6.354  1.4614 -0.5237  0.3199
   87MOL   H23727929   6.865   0.639   6.508 -0.3767  0.7351 -1.1621
   87MOL   H23827930   6.857   0.467   6.499 -0.0656  1.2407  2.7103
   87MOL   H23927931   6.531   0.620   6.666 -0.0123 -0.8436  1.8874
   87MOL   H24027932   6.709   0.661   6.681  1.8447 -2.3148  1.2485
   87MOL   H24127933   6.635   0.496   6.696 -4.3001  0.1855  1.4940
   87MOL   C24227934   6.447   0.522   6.260 -0.1641  0.0473 -0.1293
   87MOL   C24327935   6.554   0.474   6.155 -0.6100 -0.0704  1.2653
   87MOL   O24427936   6.549   0.560   6.042  0.7857 -0.0598  0.3744
   87MOL   C24527937   6.664   0.626   5.993 -0.7902 -0.2244 -0.1768
   87MOL   C24627938   6.633   0.654   5.850 -0.2761 -0.1566  0.1838
   87MOL   C24727939   6.668   0.754   6.084 -0.0723 -0.7003 -0.1102
   87MOL   H24827940   6.348   0.501   6.219  0.8737  0.6958 -3.1397
   87MOL   H24927941   6.454   0.630   6.274  4.1810 -0.1120 -0.3260
   87MOL   H25027942   6.654   0.475   6.199  1.5537 -0.2032 -3.4069
   87MOL   H25127943   6.748   0.558   6.008 -0.7363 -0.4350 -1.4249
   87MOL   H25227944   6.554   0.729   5.847 -2.3203 -2.3261 -1.2903
   87MOL   H25327945   6.720   0.689   5.794  0.1299 -1.3051  0.0762
   87MOL   H25427946   6.599   0.560   5.807  0.9408  0.4521 -2.1691
   87MOL   H25527947   6.567   0.797   6.088 -0.3049 -1.2032 -0.6552
   87MOL   H25627948   6.680   0.714   6.185 -1.1905 -3.6160 -1.0871
   87MOL   H25727949   6.743   0.832   6.072 -1.6884  1.2471  1.8014
   87MOL   C25827950   6.511   0.336   6.083  0.2607 -0.3928 -0.1914
   87MOL   C25927951   6.627   0.264   6.016  0.3690  0.1955  0.0675
   87MOL   O26027952   6.579   0.169   5.924  0.2265  0.2900 -0.9799
   87MOL   C26127953   6.540   0.220   5.800 -0.2757 -0.0497 -0.3441
   87MOL   C26227954   6.665   0.240   5.712  1.0223 -0.5080  0.3268
   87MOL   C26327955   6.435   0.128   5.747 -0.4138 -0.1337  0.2238
   87MOL   H26427956   6.470   0.270   6.160 -0.6545 -1.3005 -1.4445
   87MOL   H26527957   6.432   0.364   6.013 -0.7646 -2.1152  0.2324
   87MOL   H26627958   6.686   0.345   5.972  0.6026  2.0616  3.6570
   87MOL   H26727959   6.498   0.321   5.806 -1.4427 -0.6492  2.7707
   87MOL   H26827960   6.641   0.266   5.609  0.2438 -2.5210 -0.0270
   87MOL   H26927961   6.728   0.152   5.707  0.5138 -1.0061  2.3245
   87MOL   H27027962   6.729   0.317   5.755 -0.1580  1.2332 -0.9493
   87MOL   H27127963   6.353   0.134   5.818 -3.0150  1.8042 -2.7879
   87MOL   H27227964   6.397   0.160   5.650  2.0177 -0.3980 -0.8791
   87MOL   H27327965   6.460   0.023   5.731 -3.0755 -0.5659 -1.3303
   87MOL   C27427966   6.726   0.199   6.108 -0.2964 -0.1355 -0.6852
   87MOL   C27527967   6.855   0.132   6.042 -0.0193  0.5082  0.4644
   87MOL   O27627968   6.966   0.151   6.122  0.1208 -0.1395 -0.1666
   87MOL   C27727969   7.080   0.225   6.076  0.3303 -0.6952 -0.1647
   87MOL   C27827970   7.198   0.188   6.163  0.2489 -0.1525  0.3981
   87MOL   C27927971   7.045   0.375   6.080  0.2794  0.6182 -0.7010
   87MOL   H28027972   6.756   0.272   6.183 -0.4098  1.1354 -1.8557
   87MOL   H28127973   6.677   0.118   6.162 -0.1574  1.5909  2.1409
   87MOL   H28227974   6.857   0.178   5.944  0.6256  1.0183  0.7165
   87MOL   H28327975   7.103   0.199   5.973  3.7891 -0.2791  0.4547
   87MOL   H28427976   7.183   0.229   6.263 -1.0120  2.4244 -0.7960
   87MOL   H28527977   7.215   0.081   6.179  1.5314 -0.1227 -0.6723
   87MOL   H28627978   7.298   0.218   6.132 -1.3297  3.0494 -1.9221
   87MOL   H28727979   6.946   0.407   6.048  0.4830  2.3150  0.3019
   87MOL   H28827980   7.117   0.424   6.015 -0.5629  1.6570 -0.8738
   87MOL   H28927981   7.058   0.403   6.185  0.6689 -0.2810 -0.5079
   87MOL   C29027982   6.844   7.804   6.006  0.3319 -0.3928 -0.1718
   87MOL   C29127983   6.961   7.731   5.931  0.6128 -0.0075 -0.0881
   87MOL   O29227984   6.926   7.593   5.919 -0.4137 -0.0460  0.7509
   87MOL   C29327985   7.010   7.511   5.998  0.4291  0.4918 -0.5218
   87MOL   C29427986   7.156   7.502   5.942 -0.0637 -0.2301 -0.1220
   87MOL   C29527987   6.929   7.382   5.985 -0.3303 -0.3892  0.5385
   87MOL   H29627988   6.758   7.784   5.943 -0.4054  1.1849  0.3121
   87MOL   H29727989   6.822   7.755   6.101  0.0764 -1.1650 -0.6292
   87MOL   H29827990   7.053   7.752   5.986 -0.4720  0.8735  1.4370
   87MOL   H29927991   7.022   7.542   6.102 -0.9486 -1.8025  0.3577
   87MOL   H30027992   7.164   7.446   5.850  1.3147  1.7430 -1.2330
   87MOL   H30127993   7.204   7.595   5.911 -0.8188 -0.3360 -1.6584
   87MOL   H30227994   7.228   7.465   6.014  0.4252  0.3812 -0.2918
   87MOL   H30327995   6.996   7.311   6.033  0.5548 -0.4183 -0.7198
   87MOL   H30427996   6.836   7.380   6.041 -0.5667  1.6102  0.2367
   87MOL   H30527997   6.922   7.349   5.881 -1.2125 -0.6896  0.6866
   87MOL   C30627998   6.980   7.777   5.793 -0.0238 -0.1426 -0.4404
   87MOL   C30727999   7.085   7.717   5.707 -0.1334  0.3348 -0.3750
   87MOL   O30828000   7.074   7.781   5.582 -0.2367 -0.1308  0.4163
   87MOL   C30928001   7.135   7.717   5.476  0.4218 -0.3229  1.0879
   87MOL   C31028002   7.067   7.795   5.363  0.1814  0.4101  0.5515
   87MOL   C31128003   7.282   7.756   5.466 -0.2000  0.1153 -0.3995
   87MOL   H31228004   6.994   0.064   5.787  0.2711 -0.2798 -2.4301
   87MOL   H31328005   6.887   7.771   5.736  0.0512  0.1890 -0.5963
   87MOL   H31428006   7.184   7.721   5.752 -1.9548  0.5086  3.8430
   87MOL   H31528007   7.122   7.610   5.460 -0.6057 -0.1120  0.4361
   87MOL   H31628008   6.965   7.760   5.347  0.0990 -0.0974  2.1436
   87MOL   H31728009   7.120   7.782   5.268 -1.1153 -1.0368 -0.0014
   87MOL   H31828010   7.070   0.081   5.382 -1.2308  0.9033 -1.7862
   87MOL   H31928011   7.333   7.717   5.378  0.6813  1.3303 -0.4448
   87MOL   H32028012   7.336   7.722   5.554 -1.6883  1.2922  1.0078
   87MOL   H32128013   7.295   0.044   5.456  1.7296 -0.1712 -1.0965
   87MOL   H32228014   7.059   7.612   5.703  1.4404 -0.1669  1.8363
   88MOL     C128015   1.175   6.720   6.805  0.1785  0.5988  0.3004
   88MOL     C228016   1.209   6.846   6.717 -0.0464  0.0600 -0.4519
   88MOL     O328017   1.346   6.861   6.719 -0.2548 -0.3115 -0.0241
   88MOL     C428018   1.408   6.963   6.809 -0.6493  0.0556 -0.1473
   88MOL     C528019   1.556   6.987   6.768  0.3830  0.3318 -0.1447
   88MOL     C628020   1.398   6.924   6.955 -0.8948 -0.0512 -0.6048
   88MOL     H728021   1.068   6.701   6.806  0.1124  0.8660 -0.5985
   88MOL     H828022   1.233   6.633   6.773 -1.6787 -1.0501  1.3257
   88MOL     H928023   1.155   6.933   6.754 -0.7668 -2.1764  4.0958
   88MOL    H1028024   1.349   7.054   6.805 -2.0908 -0.8545 -0.0601
   88MOL    H1128025   1.602   7.040   6.852 -2.5521  0.3039  1.5200
   88MOL    H1228026   1.616   6.897   6.756  3.4427  2.2155  0.3903
   88MOL    H1328027   1.566   7.041   6.674  0.1460  0.4220 -0.1187
   88MOL    H1428028   1.290   6.918   6.969 -0.9879  0.0745 -1.2604
   88MOL    H1528029   1.440   6.825   6.973  0.4744  0.6398  0.1195
   88MOL    H1628030   1.436   7.006   7.016 -2.2504 -0.8909  1.3978
   88MOL    H1728031   1.206   6.732   6.909 -2.9985  1.8943  1.1363
   88MOL    C1828032   1.158   6.814   6.579 -0.5992 -0.1733  0.2896
   88MOL    C1928033   1.164   6.929   6.469 -0.0710 -0.0774  0.2544
   88MOL    O2028034   1.125   6.863   6.350  0.1032  0.4236  0.7376
   88MOL    C2128035   0.985   6.851   6.326 -0.3852 -0.2456  0.1606
   88MOL    C2228036   0.958   6.729   6.235  0.2197 -0.2760  0.5141
   88MOL    C2328037   0.927   6.987   6.280 -0.8668 -0.8289  0.0965
   88MOL    H2428038   1.199   6.717   6.548 -2.6272 -1.0930  0.4081
   88MOL    H2528039   1.055   6.779   6.589 -0.2247 -2.0761 -1.8883
   88MOL    H2628040   1.092   7.001   6.508 -1.5952 -1.4027 -0.0243
   88MOL    H2728041   0.934   6.829   6.420  1.8772  2.0914  2.0046
   88MOL    H2828042   0.976   6.631   6.279 -2.0033 -2.0349 -2.3405
   88MOL    H2928043   0.853   6.720   6.206  0.2714 -2.0027  0.7657
   88MOL    H3028044   1.016   6.736   6.143 -2.4398  0.7698 -1.1341
   88MOL    H3128045   0.935   7.065   6.356 -1.8305 -0.1631 -0.4726
   88MOL    H3228046   0.819   6.976   6.274 -0.9392  0.0632 -0.5112
   88MOL    H3328047   0.967   7.021   6.184 -1.6320  0.3962  0.1944
   88MOL    C3428048   1.300   7.004   6.451 -0.2935  0.5392 -0.1431
   88MOL    C3528049   1.294   7.126   6.348  0.3361  0.3307  0.3614
   88MOL    O3628050   1.286   7.254   6.410 -0.1974 -0.2060  0.2324
   88MOL    C3728051   1.159   7.300   6.453  0.1104 -0.3169 -0.0570
   88MOL    C3828052   1.164   7.313   6.605  0.4435  0.1975 -0.2688
   88MOL    C3928053   1.128   7.437   6.384  0.0880  0.2785 -0.2372
   88MOL    H4028054   1.378   6.937   6.417  0.4631  2.2322 -1.7860
   88MOL    H4128055   1.323   7.047   6.549 -2.0702  1.8377 -0.2582
   88MOL    H4228056   1.216   7.127   6.272  0.7115 -0.1870 -0.0393
   88MOL    H4328057   1.074   7.234   6.434 -1.9419  1.7329  1.5510
   88MOL    H4428058   1.189   7.221   6.658 -1.9147 -0.0297  0.5450
   88MOL    H4528059   1.063   7.341   6.637  0.1514  0.0080 -1.0231
   88MOL    H4628060   1.230   7.392   6.639 -1.5266  2.2492 -1.0366
   88MOL    H4728061   1.205   7.504   6.424 -1.2106  1.2277  0.6884
   88MOL    H4828062   1.129   7.417   6.276 -0.5230 -2.5906  0.2550
   88MOL    H4928063   1.030   7.469   6.417  1.2931  3.4971  0.4491
   88MOL    C5028064   1.420   7.132   6.267 -0.2440  0.1114  0.0140
   88MOL    C5128065   1.445   7.015   6.168 -0.8205 -0.2000 -0.1768
   88MOL    O5228066   1.578   7.042   6.111  0.2687  0.1803  0.0381
   88MOL    C5328067   1.691   6.980   6.172  0.4571 -0.1978 -0.1317
   88MOL    C5428068   1.794   7.091   6.159 -0.0306  0.0397 -0.7738
   88MOL    C5528069   1.726   6.853   6.098 -0.3727 -0.5936  0.1774
   88MOL    H5628070   1.425   7.226   6.213  2.6303 -0.9727 -1.6846
   88MOL    H5728071   1.508   7.125   6.330  0.9752 -0.8546 -1.7520
   88MOL    H5828072   1.436   6.919   6.217 -2.0321 -0.1545 -0.2960
   88MOL    H5928073   1.683   6.957   6.279  2.6935  0.7357  0.2531
   88MOL    H6028074   1.895   7.050   6.169  0.2798  1.3555  1.8867
   88MOL    H6128075   1.770   7.166   6.234  1.4379  0.0210 -0.2648
   88MOL    H6228076   1.779   7.132   6.059 -0.3360  1.0726 -0.3110
   88MOL    H6328077   1.783   6.872   6.007  1.0992 -0.1173  1.1853
   88MOL    H6428078   1.638   6.805   6.055  0.1424 -0.7679 -0.7140
   88MOL    H6528079   1.765   6.772   6.159  2.7109 -0.2034 -1.1777
   88MOL    C6628080   1.354   7.033   6.046  0.0875  0.4016  0.3816
   88MOL    C6728081   1.375   6.922   5.939 -0.2729  0.3035  0.4086
   88MOL    O6828082   1.306   6.955   5.813 -0.1572 -0.2735  0.2649
   88MOL    C6928083   1.367   7.063   5.736 -0.0438  0.5125  1.6123
   88MOL    C7028084   1.399   7.001   5.595  0.0846 -0.4597 -1.1003
   88MOL    C7128085   1.272   7.185   5.726 -0.6886  0.0588 -0.4270
   88MOL    H7228086   1.249   7.030   6.075  0.6250 -1.5384  2.2220
   88MOL    H7328087   1.375   7.127   5.994  0.6611  0.0751  0.0178
   88MOL    H7428088   1.484   6.919   5.931 -0.0059  0.5295  3.2991
   88MOL    H7528089   1.460   7.092   5.786  1.0910 -2.8814  1.5834
   88MOL    H7628090   1.312   6.940   5.574 -1.4608  1.0382  0.8026
   88MOL    H7728091   1.412   7.069   5.511  0.2124  0.4669 -0.3398
   88MOL    H7828092   1.488   6.939   5.605 -0.2242 -0.5970  1.0434
   88MOL    H7928093   1.312   7.270   5.671 -0.8502  1.5622  1.7197
   88MOL    H8028094   1.249   7.224   5.825 -0.1513  0.6664 -0.5393
   88MOL    H8128095   1.174   7.161   5.686  0.2234 -0.0441 -2.6466
   88MOL    C8228096   1.304   6.789   5.989  0.0250 -0.3827 -0.6253
   88MOL    C8328097   1.343   6.657   5.919  0.2424  0.3246  0.6323
   88MOL    O8428098   1.227   6.564   5.921  0.1070 -0.7655  0.4209
   88MOL    C8528099   1.194   6.490   6.037  0.0284  0.8477  0.0733
   88MOL    C8628100   1.276   6.354   6.042  0.2158  0.6270  0.7744
   88MOL    C8728101   1.039   6.469   6.025 -0.2128 -0.0172 -0.2887
   88MOL    H8828102   1.332   6.755   6.089 -0.8979  0.0327 -0.2141
   88MOL    H8928103   1.195   6.797   5.996 -0.0037 -0.5845 -0.8388
   88MOL    H9028104   1.426   6.615   5.977  0.1457  1.1159  1.3579
   88MOL    H9128105   1.210   6.543   6.131  1.2176 -0.4700  0.6185
   88MOL    H9228106   1.247   6.292   5.957 -2.9506  1.0029  1.5259
   88MOL    H9328107   1.382   6.378   6.043  0.2490  0.6259 -0.9666
   88MOL    H9428108   1.262   6.299   6.135  0.7580 -1.0585 -0.1222
   88MOL    H9528109   0.985   6.490   6.117  1.0569 -1.8747  0.9143
   88MOL    H9628110   0.996   6.542   5.957 -0.6265  2.0344  2.1290
   88MOL    H9728111   1.014   6.370   5.987 -0.2032 -0.3597  0.5910
   88MOL    C9828112   1.392   6.662   5.775 -0.8504  0.5738  0.2606
   88MOL    C9928113   1.460   6.532   5.727  0.4703 -0.2518 -0.3242
   88MOL   O10028114   1.594   6.552   5.779 -0.1562 -0.4946 -0.2720
   88MOL   C10128115   1.665   6.430   5.803  0.2852 -0.1357 -0.5589
   88MOL   C10228116   1.694   6.408   5.949  0.0047  0.6982  0.5143
   88MOL   C10328117   1.793   6.429   5.715 -0.6344 -0.2295  0.1773
   88MOL   H10428118   1.302   6.689   5.719  0.1131  1.6433 -0.7951
   88MOL   H10528119   1.463   6.744   5.765 -0.2694 -0.0977 -1.2121
   88MOL   H10628120   1.413   6.445   5.773  0.5771 -0.7003 -1.0478
   88MOL   H10728121   1.612   6.341   5.769  2.6338 -0.7748 -2.7309
   88MOL   H10828122   1.760   6.488   5.981 -0.0886  0.9222  0.1494
   88MOL   H10928123   1.732   6.306   5.957 -1.3393  0.1238 -0.1550
   88MOL   H11028124   1.606   6.422   6.013 -0.3017 -0.8086  0.4551
   88MOL   H11128125   1.854   6.510   5.755 -1.6731 -0.0341  1.3620
   88MOL   H11228126   1.755   6.463   5.619  0.9845 -0.0816 -0.4335
   88MOL   H11328127   1.845   6.333   5.708 -0.2441  0.0101 -0.2129
   88MOL   C11428128   1.470   6.552   5.568 -0.0143  0.5472 -0.5438
   88MOL   C11528129   1.344   6.558   5.488  0.9489 -0.2652  0.3540
   88MOL   O11628130   1.373   6.558   5.348 -0.3126  0.4533 -0.0104
   88MOL   C11728131   1.410   6.672   5.281 -0.3932 -0.7215 -0.3826
   88MOL   C11828132   1.293   6.776   5.269 -0.0471  0.2691 -0.4095
   88MOL   C11928133   1.456   6.631   5.143 -0.0066  0.1415  0.4929
   88MOL   H12028134   1.523   6.464   5.531 -1.9729 -0.6483 -0.5860
   88MOL   H12128135   1.536   6.636   5.549  1.0800 -0.0812  0.4108
   88MOL   H12228136   1.296   6.652   5.515  0.2865 -0.0341 -1.5529
   88MOL   H12328137   1.491   6.716   5.340  2.5439 -1.6521 -3.5330
   88MOL   H12428138   1.212   6.750   5.200  2.5119  0.1003 -3.4471
   88MOL   H12528139   1.337   6.862   5.218 -0.5926  0.4015 -0.6699
   88MOL   H12628140   1.251   6.812   5.363 -0.1857 -2.4885  0.6034
   88MOL   H12728141   1.529   6.550   5.143  0.7580  0.8240 -1.5048
   88MOL   H12828142   1.493   6.710   5.079  1.4626 -1.3900 -0.5785
   88MOL   H12928143   1.379   6.578   5.087  0.2701  1.3967 -1.0985
   88MOL   C13028144   1.268   6.425   5.514 -0.5052  0.1004  0.4574
   88MOL   C13128145   1.140   6.399   5.431 -0.3200 -0.1315  0.3096
   88MOL   O13228146   1.035   6.348   5.519  0.1312  0.4333  0.1272
   88MOL   C13328147   0.937   6.440   5.560  0.4488 -0.5413 -0.0299
   88MOL   C13428148   0.865   6.356   5.655  0.0846  0.5677  0.4072
   88MOL   C13528149   0.984   6.572   5.617  0.7632 -0.4114  0.0811
   88MOL   H13628150   1.239   6.404   5.617 -1.8290 -0.0675  0.0494
   88MOL   H13728151   1.339   6.348   5.485 -1.7762 -0.8600 -0.1365
   88MOL   H13828152   1.109   6.491   5.382  0.7000  0.5199  0.8742
   88MOL   H13928153   0.881   6.446   5.467  0.7251 -0.1082 -0.1705
   88MOL   H14028154   0.818   6.267   5.614  2.2269  0.5927 -2.1814
   88MOL   H14128155   0.784   6.418   5.694  1.2323  2.3517  0.0009
   88MOL   H14228156   0.926   6.326   5.740 -0.3197 -1.4561 -0.0038
   88MOL   H14328157   0.894   6.631   5.636  1.1957  0.7726 -1.4380
   88MOL   H14428158   1.061   6.558   5.693 -0.3869  1.3338  1.6329
   88MOL   H14528159   1.022   6.641   5.541 -0.0557  0.9693  0.8962
   88MOL   C14628160   1.162   6.288   5.325 -0.1067  0.0283 -0.4874
   88MOL   C14728161   1.036   6.272   5.239 -0.8304  0.5030 -0.9635
   88MOL   O14828162   1.080   6.198   5.127 -0.3785 -0.2254  0.2020
   88MOL   C14928163   1.133   6.278   5.021 -0.1333 -0.2091 -0.1265
   88MOL   C15028164   1.024   6.302   4.921 -0.2372  0.1550  0.0029
   88MOL   C15128165   1.247   6.196   4.963 -0.6395  0.3042 -0.5301
   88MOL   H15228166   1.176   6.194   5.379 -1.2007 -0.7944 -1.6114
   88MOL   H15328167   1.247   6.311   5.261  0.1132  1.0193  0.1566
   88MOL   H15428168   1.002   6.373   5.217 -2.4585 -0.1752 -1.5712
   88MOL   H15528169   1.163   6.376   5.057 -1.7786 -0.1074  1.0761
   88MOL   H15628170   0.935   6.345   4.966 -0.8467 -1.0025 -0.0935
   88MOL   H15728171   1.001   6.202   4.885 -1.3056  0.4470 -0.1357
   88MOL   H15828172   1.067   6.355   4.835 -2.9506  1.8254 -0.3782
   88MOL   H15928173   1.209   6.099   4.928  0.7274 -0.2044 -0.6524
   88MOL   H16028174   1.317   6.186   5.046 -0.2075  1.8733 -0.6874
   88MOL   H16128175   1.302   6.256   4.890  1.5405  1.1626  1.7537
   88MOL   C16228176   0.922   6.184   5.293  0.3731 -0.4740 -0.3924
   88MOL   C16328177   0.791   6.193   5.210  0.6396 -0.3566  0.2533
   88MOL   O16428178   0.717   6.078   5.208  0.2153  0.2515 -0.0038
   88MOL   C16528179   0.768   5.975   5.123 -0.1090  0.0596  0.6871
   88MOL   C16628180   0.695   6.013   4.987  0.5346 -0.1676  0.3775
   88MOL   C16728181   0.724   5.834   5.163  0.4401 -0.2634 -0.1361
   88MOL   H16828182   0.963   6.083   5.287  0.6398 -0.3795 -0.1570
   88MOL   H16928183   0.899   6.181   5.400 -1.9685 -1.7149 -0.8954
   88MOL   H17028184   0.818   6.228   5.111 -1.9193 -2.4903 -1.2536
   88MOL   H17128185   0.876   5.988   5.119 -0.3125  1.5508 -0.3801
   88MOL   H17228186   0.726   5.941   4.912  0.1358 -1.3504  1.3291
   88MOL   H17328187   0.717   6.114   4.954  1.7635 -0.3087  0.7478
   88MOL   H17428188   0.586   6.003   4.989  0.4622  0.7212  1.9238
   88MOL   H17528189   0.616   5.824   5.172  0.1446  2.4556 -0.1052
   88MOL   H17628190   0.758   5.818   5.266 -0.9163 -2.6054 -0.0286
   88MOL   H17728191   0.749   5.750   5.099  2.2147  1.1956 -1.3974
   88MOL   C17828192   0.700   6.301   5.272 -0.4665  0.0121 -0.3940
   88MOL   C17928193   0.607   6.368   5.172  0.5601 -0.0432 -1.0521
   88MOL   O18028194   0.490   6.414   5.248  0.7232  0.6935  0.2899
   88MOL   C18128195   0.360   6.359   5.220 -0.3139 -0.7352 -0.3265
   88MOL   C18228196   0.267   6.470   5.247 -0.4150  0.7932  0.6004
   88MOL   C18328197   0.339   6.250   5.324  0.0046 -0.4622  0.2553
   88MOL   H18428198   0.761   6.381   5.313  2.1477 -1.2806 -1.6352
   88MOL   H18528199   0.642   6.257   5.353  1.9665  0.9763  1.9258
   88MOL   H18628200   0.576   6.295   5.097  1.9397 -0.5892 -1.1001
   88MOL   H18728201   0.331   6.325   5.120  0.3648 -0.4905 -0.6145
   88MOL   H18828202   0.162   6.441   5.256 -0.7751  1.6289 -0.6926
   88MOL   H18928203   0.268   6.539   5.162 -0.4462 -1.1391 -0.9939
   88MOL   H19028204   0.296   6.515   5.342  0.9862  1.8067 -0.2905
   88MOL   H19128205   0.300   6.287   5.419  1.2745  1.0600  0.2056
   88MOL   H19228206   0.422   6.180   5.336  0.7864 -0.1147 -2.6924
   88MOL   H19328207   0.257   6.184   5.296  0.0485 -0.4693  0.1432
   88MOL   C19428208   0.670   6.479   5.092  0.0607 -0.4749  0.1934
   88MOL   C19528209   0.586   6.516   4.967  0.3985 -0.5620 -0.5620
   88MOL   O19628210   0.633   6.430   4.861 -0.0790 -0.2074 -0.0182
   88MOL   C19728211   0.546   6.409   4.744 -0.0400 -0.1860 -0.4216
   88MOL   C19828212   0.640   6.390   4.631  0.0754  0.6374 -0.1079
   88MOL   C19928213   0.471   6.274   4.767 -0.0947 -0.5508 -0.0312
   88MOL   H20028214   0.692   6.569   5.150 -0.5731 -0.4866  0.4515
   88MOL   H20128215   0.769   6.447   5.060 -0.0976  1.5229 -2.4650
   88MOL   H20228216   0.484   6.481   4.978  0.3064  0.5079  2.3782
   88MOL   H20328217   0.467   6.482   4.728 -0.7134 -1.2116 -1.8704
   88MOL   H20428218   0.599   6.338   4.544 -1.2057  0.0686  0.8074
   88MOL   H20528219   0.674   6.486   4.592 -0.5273 -0.0959 -2.5576
   88MOL   H20628220   0.722   6.336   4.677 -2.4367 -3.8495 -0.5510
   88MOL   H20728221   0.540   6.203   4.811 -1.0014 -0.0816  2.2258
   88MOL   H20828222   0.387   6.287   4.835 -1.6942 -2.1468 -1.6580
   88MOL   H20928223   0.426   6.222   4.682  0.0958  1.4641 -1.3971
   88MOL   C21028224   0.590   6.662   4.924  0.3445  0.4802  0.5199
   88MOL   C21128225   0.485   6.750   4.985 -0.1824  0.3777  0.1446
   88MOL   O21228226   0.358   6.684   4.977  0.0536 -0.0463 -0.0394
   88MOL   C21328227   0.289   6.705   4.856  0.1345 -0.4466  0.8434
   88MOL   C21428228   0.197   6.586   4.846  0.0402  0.4422 -0.0345
   88MOL   C21528229   0.207   6.843   4.851 -0.8730 -0.1319 -0.1798
   88MOL   H21628230   0.576   6.666   4.816  0.6971 -2.6779  0.3182
   88MOL   H21728231   0.690   6.700   4.946  1.2393 -1.5792  0.0874
   88MOL   H21828232   0.486   6.840   4.924 -0.7023  1.4225  1.6547
   88MOL   H21928233   0.349   6.700   4.765 -1.2311 -0.6804 -0.0446
   88MOL   H22028234   0.151   6.572   4.748  2.4618 -1.1965 -0.9841
   88MOL   H22128235   0.116   6.585   4.919 -0.2645 -1.6672 -0.3864
   88MOL   H22228236   0.252   6.494   4.861 -1.6178 -0.8769 -1.8792
   88MOL   H22328237   0.121   6.838   4.918  0.7872  2.2840  2.2560
   88MOL   H22428238   0.173   6.878   4.754 -0.9728  1.5587  0.4338
   88MOL   H22528239   0.261   6.929   4.892 -0.2546 -0.8036  0.4271
   88MOL   C22628240   0.512   6.787   5.129  0.3971 -0.5144 -0.4616
   88MOL   C22728241   0.450   6.923   5.175 -1.2040  0.1277  0.2894
   88MOL   O22828242   0.516   7.032   5.110  0.0455 -0.0457  0.3020
   88MOL   C22928243   0.441   7.149   5.096 -0.4490  0.3628 -0.6896
   88MOL   C23028244   0.407   7.184   4.950 -0.1537  0.3140 -0.1119
   88MOL   C23128245   0.541   7.255   5.144  0.3422  0.2790  0.9043
   88MOL   H23228246   0.618   6.793   5.153  0.1454 -2.3668  1.2804
   88MOL   H23328247   0.466   6.711   5.192  0.4092 -0.2961 -0.1864
   88MOL   H23428248   0.350   6.931   5.133 -0.6819 -1.4830 -1.3183
   88MOL   H23528249   0.359   7.163   5.167  0.0384  1.7303 -0.3831
   88MOL   H23628250   0.491   7.169   4.881 -1.8606 -1.2634 -1.8895
   88MOL   H23728251   0.319   7.128   4.921  0.3057 -0.6809  0.3790
   88MOL   H23828252   0.377   7.288   4.938  1.0026  0.7494  0.6223
   88MOL   H23928253   0.496   7.352   5.164  0.5067 -0.0801  3.1365
   88MOL   H24028254   0.628   7.269   5.080  0.6876 -1.2412  1.0268
   88MOL   H24128255   0.578   7.214   5.238  5.1979  0.0732 -0.9535
   88MOL   C24228256   0.447   6.946   5.329  0.2418  0.1814 -0.7493
   88MOL   C24328257   0.339   6.879   5.411  0.4210 -0.0323 -0.4905
   88MOL   O24428258   0.213   6.936   5.364  0.0306 -0.2810 -0.2655
   88MOL   C24528259   0.104   6.849   5.357  0.2078 -0.7577 -0.1849
   88MOL   C24628260   7.798   6.925   5.395  0.2642  0.5918 -0.2092
   88MOL   C24728261   0.090   6.795   5.217  0.4936 -0.6118  0.3588
   88MOL   H24828262   0.543   6.914   5.368  0.2243  0.8318 -0.1837
   88MOL   H24928263   0.439   7.051   5.356  1.9204 -0.3823  2.1804
   88MOL   H25028264   0.350   6.772   5.394 -0.4751  0.1850 -2.6753
   88MOL   H25128265   0.109   6.772   5.433  0.1890  0.6387  1.2512
   88MOL   H25228266   7.712   6.858   5.397  2.5649 -2.4725 -0.0895
   88MOL   H25328267   7.810   6.972   5.493  1.0046 -0.6287  0.2971
   88MOL   H25428268   7.777   7.002   5.321  2.8576 -1.3984 -3.1418
   88MOL   H25528269   0.189   6.761   5.187  0.3126 -1.0395  0.2365
   88MOL   H25628270   0.011   6.721   5.202 -0.0923  0.2354 -0.7967
   88MOL   H25728271   0.048   6.866   5.146  2.4807 -0.2856 -0.5076
   88MOL   C25828272   0.337   6.900   5.561 -0.4545  0.3020 -0.4858
   88MOL   C25928273   0.450   6.829   5.649 -0.3349  0.5681 -0.5526
   88MOL   O26028274   0.425   6.692   5.623  0.1395  0.2533  0.8559
   88MOL   C26128275   0.534   6.606   5.630 -0.4619 -0.3173 -0.0642
   88MOL   C26228276   0.495   6.455   5.653 -0.1688  0.4222 -0.0243
   88MOL   C26328277   0.613   6.624   5.501  0.4697 -0.5092  0.3189
   88MOL   H26428278   0.344   7.007   5.577 -1.5493  0.0145  2.1966
   88MOL   H26528279   0.242   6.886   5.613 -0.3967  0.0724 -0.4395
   88MOL   H26628280   0.547   6.864   5.614 -1.1061  2.8339 -0.5010
   88MOL   H26728281   0.598   6.630   5.716 -0.1260  2.2403 -1.0136
   88MOL   H26828282   0.441   6.444   5.746  1.1209 -0.6402  0.6295
   88MOL   H26928283   0.581   6.388   5.647 -0.8655 -0.4119 -0.8721
   88MOL   H27028284   0.433   6.417   5.572 -0.6624  2.4812 -0.6216
   88MOL   H27128285   0.539   6.609   5.423  0.5360 -0.6559  0.2857
   88MOL   H27228286   0.650   6.726   5.487 -0.2807 -0.3191 -0.3199
   88MOL   H27328287   0.697   6.555   5.494  1.1828  0.4789 -1.0576
   88MOL   C27428288   0.444   6.856   5.800  0.0642 -0.5914 -0.0159
   88MOL   C27528289   0.577   6.859   5.876  0.2588  0.0461 -0.1479
   88MOL   O27628290   0.659   6.968   5.831  0.1526 -0.8155 -0.0633
   88MOL   C27728291   0.779   6.934   5.762 -0.7620  0.1811  0.1819
   88MOL   C27828292   0.881   6.859   5.852  0.1931 -0.0541  0.1963
   88MOL   C27928293   0.852   7.066   5.716  0.9413  0.9712 -0.1466
   88MOL   H28028294   0.390   6.948   5.825  1.4657 -0.6374  3.3793
   88MOL   H28128295   0.374   6.780   5.834 -1.5005  0.4743 -0.7378
   88MOL   H28228296   0.629   6.763   5.871 -0.0706 -0.0823 -1.1326
   88MOL   H28328297   0.759   6.863   5.682  1.1248  1.0340 -1.0912
   88MOL   H28428298   0.983   6.863   5.814 -0.0336 -1.9790 -0.6532
   88MOL   H28528299   0.889   6.897   5.954  0.5318  1.5331 -0.4034
   88MOL   H28628300   0.853   6.755   5.869  2.4383 -0.6560  0.3669
   88MOL   H28728301   0.798   7.121   5.639 -0.5003  3.4258  2.5086
   88MOL   H28828302   0.950   7.054   5.669  0.6728  1.7027 -0.9259
   88MOL   H28928303   0.872   7.129   5.803  2.4160  0.5959 -0.2013
   88MOL   C29028304   0.576   6.888   6.030  0.5189 -0.1349  0.3234
   88MOL   C29128305   0.499   6.782   6.121 -0.5445  0.1127  0.0564
   88MOL   O29228306   0.588   6.668   6.119 -0.1109  0.1855 -0.2279
   88MOL   C29328307   0.548   6.550   6.046 -0.3128 -0.2318 -0.3075
   88MOL   C29428308   0.455   6.471   6.130  0.1387  0.7040 -0.0801
   88MOL   C29528309   0.679   6.474   6.039 -0.5530  0.1946  0.1071
   88MOL   H29628310   0.520   6.980   6.047  1.1677  0.4566 -0.7183
   88MOL   H29728311   0.678   6.910   6.060  0.6457  0.6168 -0.6478
   88MOL   H29828312   0.410   6.744   6.073 -0.8493  0.8322  0.0441
   88MOL   H29928313   0.506   6.567   5.947  0.5485 -0.2532 -0.6821
   88MOL   H30028314   0.504   6.443   6.224 -0.1333 -5.1894 -1.5201
   88MOL   H30128315   0.360   6.525   6.140  0.3416  1.0200  0.1771
   88MOL   H30228316   0.447   6.376   6.078  1.2427 -0.2031  1.3545
   88MOL   H30328317   0.747   6.502   6.119 -0.0871 -1.0923  0.1706
   88MOL   H30428318   0.678   6.365   6.032  0.0724  0.2733 -1.5096
   88MOL   H30528319   0.731   6.503   5.947 -1.2425 -0.1205 -0.3879
   88MOL   C30628320   0.478   6.844   6.263  0.0576  0.2978 -0.3453
   88MOL   C30728321   0.350   6.794   6.340 -0.3757  0.1392 -0.0777
   88MOL   O30828322   0.340   6.864   6.460  1.0334 -0.2017 -0.3172
   88MOL   C30928323   0.215   6.857   6.532  0.1151 -0.0246 -0.0157
   88MOL   C31028324   0.236   6.760   6.636  0.4325  0.3289 -0.1050
   88MOL   C31128325   0.180   6.991   6.583 -0.3604  0.4727  0.8172
   88MOL   H31228326   0.474   6.953   6.264  1.3488  0.3656 -1.1150
   88MOL   H31328327   0.557   6.823   6.335 -2.0482  1.8878  2.5514
   88MOL   H31428328   0.263   6.808   6.275  0.4973 -0.2658 -1.3608
   88MOL   H31528329   0.136   6.820   6.467 -0.4505 -0.4694  0.9203
   88MOL   H31628330   0.298   6.809   6.711  1.5130  2.1360 -2.1425
   88MOL   H31728331   0.294   6.673   6.603  0.3002  0.0287  0.4411
   88MOL   H31828332   0.144   6.729   6.686 -0.5664 -1.1112 -2.7287
   88MOL   H31928333   0.276   7.043   6.583 -1.2927  2.3012 -1.6549
   88MOL   H32028334   0.128   6.996   6.679  0.5630  1.7965  1.2544
   88MOL   H32128335   0.112   7.040   6.513 -0.0086  1.6064  1.2645
   88MOL   H32228336   0.368   6.691   6.371  5.7644  1.4497  1.2245
   89MOL     C128337   6.906   4.249   7.075  0.0069 -0.4291  0.3141
   89MOL     C228338   6.907   4.102   7.119  0.7106 -0.0638  0.2572
   89MOL     O328339   6.874   4.005   7.020 -0.1716 -0.2610  0.5036
   89MOL     C428340   6.758   4.016   6.941 -0.1243 -0.4499 -0.5015
   89MOL     C528341   6.684   3.878   6.952 -0.3235  0.1162 -0.2363
   89MOL     C628342   6.801   4.054   6.801  0.3300  0.4830  0.1561
   89MOL     H728343   6.928   4.309   7.163  1.0952  1.6047 -1.2841
   89MOL     H828344   6.991   4.267   7.009  0.0572 -0.8105  0.2740
   89MOL     H928345   6.838   4.089   7.203  0.6758 -0.2700  0.1955
   89MOL    H1028346   6.689   4.088   6.984  0.3889 -1.7037  2.5306
   89MOL    H1128347   6.650   3.848   7.051  0.1630  0.1459 -0.0623
   89MOL    H1228348   6.597   3.878   6.886 -0.7776 -1.3133  0.3480
   89MOL    H1328349   6.751   3.802   6.913 -2.8358 -2.1771 -0.1698
   89MOL    H1428350   6.872   3.975   6.774  0.2674  0.3543  0.3668
   89MOL    H1528351   6.720   4.057   6.729  1.5876  0.7970 -1.2767
   89MOL    H1628352   6.844   4.153   6.786 -0.3565  0.3717 -2.9128
   89MOL    H1728353   6.813   4.277   7.027 -0.1020 -1.7240 -0.2242
   89MOL    C1828354   7.050   4.068   7.176  0.4485  0.5050  0.0703
   89MOL    C1928355   7.058   3.925   7.239 -0.0818 -0.2620  0.7992
   89MOL    O2028356   6.985   3.935   7.365  0.0403  0.9597 -0.2890
   89MOL    C2128357   6.915   3.811   7.409 -0.3254 -0.2982 -0.1419
   89MOL    C2228358   6.774   3.810   7.337 -0.6305  0.0761 -0.8565
   89MOL    C2328359   6.902   3.814   7.559  0.3836  0.2529 -0.3078
   89MOL    H2428360   7.116   4.084   7.091 -2.0129 -1.6603 -2.3713
   89MOL    H2528361   7.074   4.144   7.250  0.4535  0.9688 -0.4065
   89MOL    H2628362   7.007   3.857   7.171 -0.7259 -2.1740  3.1162
   89MOL    H2728363   6.974   3.725   7.381 -0.1839 -0.5049  0.7650
   89MOL    H2828364   6.711   3.730   7.374 -1.9539  1.0435 -1.0109
   89MOL    H2928365   6.734   3.909   7.356  0.5295  0.4376 -0.2074
   89MOL    H3028366   6.781   3.779   7.233  1.0903  1.4072 -1.1774
   89MOL    H3128367   6.847   3.908   7.568  0.8556  0.7364 -2.4148
   89MOL    H3228368   6.999   3.817   7.608  0.6098 -0.2807 -0.7169
   89MOL    H3328369   6.839   3.730   7.591  0.6156 -0.8033 -2.5668
   89MOL    C3428370   7.210   3.880   7.266  0.3030  0.0569 -0.4801
   89MOL    C3528371   7.291   3.858   7.142 -0.6495  0.3145  0.1122
   89MOL    O3628372   7.430   3.826   7.172 -0.3219 -0.4478 -0.1241
   89MOL    C3728373   7.526   3.932   7.154 -0.1974 -0.0870 -0.0304
   89MOL    C3828374   7.536   4.036   7.266 -0.4274 -0.0148  0.0929
   89MOL    C3928375   7.657   3.857   7.148  0.1469  0.4042  0.0408
   89MOL    H4028376   7.201   3.790   7.327  3.2060 -0.2535 -0.4393
   89MOL    H4128377   7.245   3.958   7.335  0.6184  1.3861 -2.1130
   89MOL    H4228378   7.293   3.953   7.089 -1.4752  1.2939  1.8063
   89MOL    H4328379   7.510   3.975   7.055 -0.1553  0.9309  0.3982
   89MOL    H4428380   7.620   4.104   7.251 -0.7100  0.2409 -0.3318
   89MOL    H4528381   7.568   3.988   7.359  0.3637 -0.6370 -0.4830
   89MOL    H4628382   7.443   4.092   7.268 -0.5950 -0.2491 -0.7037
   89MOL    H4728383   7.730   3.913   7.089 -0.4554  0.8677 -0.2783
   89MOL    H4828384   7.706   3.826   7.240  1.7675  0.1577 -0.8752
   89MOL    H4928385   7.628   3.779   7.077 -1.0076  1.8107 -1.0691
   89MOL    C5028386   7.246   3.764   7.032 -0.8147  0.2366 -0.4349
   89MOL    C5128387   7.312   3.781   6.890 -0.1712 -0.6066 -0.3306
   89MOL    O5228388   7.232   3.892   6.849  0.3449  0.1057 -0.4960
   89MOL    C5328389   7.275   3.991   6.755  0.5259  0.0705  0.2418
   89MOL    C5428390   7.223   4.126   6.813 -0.1489  0.4230  0.4238
   89MOL    C5528391   7.202   3.963   6.619 -0.1125 -0.2684  0.3450
   89MOL    H5628392   7.274   3.668   7.076 -0.5656  0.9089  0.8996
   89MOL    H5728393   7.138   3.761   7.022 -0.8314 -3.0100  0.2326
   89MOL    H5828394   7.417   3.810   6.900 -0.5180  0.4033  0.4405
   89MOL    H5928395   7.382   4.008   6.743  0.0499  3.0446 -0.1589
   89MOL    H6028396   7.236   4.215   6.751 -0.8031  0.1979 -0.0420
   89MOL    H6128397   7.275   4.127   6.909 -0.3976  0.0710  0.5660
   89MOL    H6228398   7.120   4.104   6.841  0.6398 -0.7065  2.5970
   89MOL    H6328399   7.230   3.864   6.584 -0.3487 -0.2328  0.0551
   89MOL    H6428400   7.242   4.039   6.551 -2.3283  0.6828  0.0590
   89MOL    H6528401   7.095   3.980   6.631  0.0021  0.3449  0.5393
   89MOL    C6628402   7.308   3.659   6.801 -0.1025 -0.3768  0.2818
   89MOL    C6728403   7.433   3.569   6.801  0.5764  0.2714 -0.0730
   89MOL    O6828404   7.428   3.482   6.688  0.5694  0.3931  0.3705
   89MOL    C6928405   7.455   3.548   6.571  0.3225  0.7030 -0.8169
   89MOL    C7028406   7.596   3.509   6.526 -0.0674 -0.2328 -0.0531
   89MOL    C7128407   7.350   3.520   6.463 -0.0050  0.3801  0.1780
   89MOL    H7228408   7.225   3.600   6.841 -0.2227 -2.2781 -2.6588
   89MOL    H7328409   7.270   3.679   6.701  1.9585  1.2104 -0.1910
   89MOL    H7428410   7.521   3.632   6.795  0.9855 -0.3422 -0.5223
   89MOL    H7528411   7.451   3.656   6.583 -1.1312  0.7533 -1.5838
   89MOL    H7628412   7.609   3.401   6.525  0.1175 -0.2174  0.3707
   89MOL    H7728413   7.617   3.542   6.425 -1.4211  1.1749  0.1097
   89MOL    H7828414   7.676   3.544   6.591 -1.1257  0.4828  0.8962
   89MOL    H7928415   7.368   3.598   6.389  2.7686  1.5751  2.0477
   89MOL    H8028416   7.260   3.563   6.506  0.3770 -0.4140  1.8326
   89MOL    H8128417   7.340   3.418   6.425 -0.7615  0.4271  0.2478
   89MOL    C8228418   7.452   3.492   6.934 -0.1435 -0.0775 -0.8269
   89MOL    C8328419   7.559   3.388   6.950 -0.0222  0.2251  0.6637
   89MOL    O8428420   7.564   3.356   7.090  0.0131  0.5437 -0.1206
   89MOL    C8528421   7.635   3.444   7.174 -0.1750  0.0630  0.1188
   89MOL    C8628422   7.749   3.359   7.232 -0.6930 -0.7275  0.1699
   89MOL    C8728423   7.547   3.502   7.290 -0.0823  0.3755 -0.1877
   89MOL    H8828424   7.456   3.559   7.019  1.7253 -1.1146 -0.0833
   89MOL    H8928425   7.361   3.433   6.948  0.0805 -0.2557 -0.1327
   89MOL    H9028426   7.655   3.434   6.925 -0.0524  0.6955  1.3988
   89MOL    H9128427   7.679   3.527   7.119 -1.0365 -0.5597 -1.5633
   89MOL    H9228428   7.811   3.302   7.163  0.3651 -1.0378  1.3690
   89MOL    H9328429   7.816   3.423   7.287 -1.0934 -1.4611  1.5324
   89MOL    H9428430   7.700   3.290   7.301 -1.2848 -1.2346 -0.7349
   89MOL    H9528431   7.493   3.425   7.346  0.1360 -0.9671 -1.7576
   89MOL    H9628432   7.621   3.548   7.354 -0.8902  0.0611  0.9788
   89MOL    H9728433   7.479   3.583   7.264 -0.5181  0.8885  2.4545
   89MOL    C9828434   7.526   3.253   6.882 -0.6613 -0.0589  0.3664
   89MOL    C9928435   7.641   3.158   6.881 -0.5780 -0.1650  0.1607
   89MOL   O10028436   7.749   3.198   6.796  0.4674  0.1021  0.2158
   89MOL   C10128437   0.066   3.195   6.852 -0.3727 -0.2101 -0.0555
   89MOL   C10228438   0.155   3.269   6.761 -0.2111  0.1083 -0.1786
   89MOL   C10328439   0.124   3.056   6.870 -0.5238  1.1327 -0.2833
   89MOL   H10428440   7.436   3.215   6.930 -1.4220  2.2838  0.8570
   89MOL   H10528441   7.495   3.262   6.778 -1.3679 -0.9349  0.4973
   89MOL   H10628442   7.672   3.164   6.985  0.4232 -1.2526 -0.0705
   89MOL   H10728443   0.065   3.241   6.951  0.8691  0.1068 -0.1871
   89MOL   H10828444   0.159   3.218   6.665  2.3495 -1.3409  0.6334
   89MOL   H10928445   0.258   3.271   6.799 -0.8571  0.1312  1.6065
   89MOL   H11028446   0.110   3.368   6.750 -1.6030 -0.2767  1.7655
   89MOL   H11128447   0.081   2.979   6.806  0.6391  1.4135 -1.4029
   89MOL   H11228448   0.089   3.019   6.967  2.4128 -0.0263  0.3807
   89MOL   H11328449   0.232   3.050   6.873 -0.6744 -1.6899  3.6395
   89MOL   C11428450   7.595   3.013   6.864  0.1013  0.3602  0.0742
   89MOL   C11528451   7.517   2.951   6.986 -0.0161 -0.2883  0.4856
   89MOL   O11628452   7.441   2.840   6.944  0.4347  0.1662 -0.3758
   89MOL   C11728453   7.318   2.867   6.871 -0.1757 -0.3938  0.0188
   89MOL   C11828454   7.209   2.909   6.971  0.3380 -0.4838 -0.0485
   89MOL   C11928455   7.281   2.729   6.814 -0.2492 -0.1112  0.0070
   89MOL   H12028456   7.687   2.957   6.845 -1.0020 -1.7412  0.7755
   89MOL   H12128457   7.534   3.011   6.774  0.2678 -0.9851 -0.0191
   89MOL   H12228458   7.451   3.032   7.017  0.1719 -0.5949  1.7384
   89MOL   H12328459   7.326   2.941   6.791 -0.2625 -3.1745 -2.6792
   89MOL   H12428460   7.184   2.826   7.037 -0.9418 -0.6624 -0.7488
   89MOL   H12528461   7.112   2.925   6.925  0.5374  2.6525  0.5356
   89MOL   H12628462   7.223   3.005   7.021  1.6031 -1.0702  0.7584
   89MOL   H12728463   7.189   2.748   6.760 -0.7458 -0.9001  0.5640
   89MOL   H12828464   7.279   2.645   6.883  0.6305  1.5086  2.0742
   89MOL   H12928465   7.355   2.699   6.740 -0.8444 -0.8040 -0.3110
   89MOL   C13028466   7.605   2.923   7.102  0.0030  0.0152 -0.8813
   89MOL   C13128467   7.525   2.867   7.227 -0.0799  0.4707  0.3380
   89MOL   O13228468   7.542   2.925   7.356  0.4266  0.4252 -0.3380
   89MOL   C13328469   7.466   3.044   7.391 -0.0568  0.1569  0.2867
   89MOL   C13428470   7.325   2.999   7.448  0.1991 -0.2933 -0.1659
   89MOL   C13528471   7.550   3.114   7.501 -0.6363  0.6139  0.0828
   89MOL   H13628472   7.657   3.011   7.141 -1.4881  1.1520 -1.4239
   89MOL   H13728473   7.686   2.860   7.066  0.2249 -0.2964  0.1365
   89MOL   H13828474   7.417   2.871   7.210  0.0532 -1.7646 -1.2997
   89MOL   H13928475   7.459   3.092   7.293  0.0785 -1.5114 -0.5669
   89MOL   H14028476   7.328   3.000   7.557 -0.7243  0.7307 -0.1473
   89MOL   H14128477   7.300   2.898   7.414  0.2115  0.3682 -2.2374
   89MOL   H14228478   7.245   3.064   7.412  0.1562 -0.2552  0.0018
   89MOL   H14328479   7.505   3.202   7.547  0.2177  1.1361 -0.0743
   89MOL   H14428480   7.578   3.037   7.572  1.2185  3.2053  2.2630
   89MOL   H14528481   7.642   3.149   7.454 -0.1653 -0.0258  0.5321
   89MOL   C14628482   7.564   2.718   7.236 -0.2149  0.5062 -0.1867
   89MOL   C14728483   7.473   2.638   7.335 -0.1134 -0.2326  0.4944
   89MOL   O14828484   7.390   2.539   7.273 -0.3307  0.0560 -0.1879
   89MOL   C14928485   7.271   2.587   7.220 -0.2521  0.4432  0.4101
   89MOL   C15028486   7.158   2.611   7.315  0.2223 -0.4376 -1.0154
   89MOL   C15128487   7.232   2.493   7.106 -0.3017 -0.2847 -0.0866
   89MOL   H15228488   7.668   2.695   7.259 -0.7271 -0.3828  1.2578
   89MOL   H15328489   7.563   2.677   7.135 -1.6708 -0.2794  0.1264
   89MOL   H15428490   7.407   2.705   7.389 -0.1684  0.7927 -0.8161
   89MOL   H15528491   7.293   2.678   7.166 -2.2404  1.4168  1.1992
   89MOL   H15628492   7.175   2.701   7.373  0.7667 -0.1268 -1.6490
   89MOL   H15728493   7.145   2.536   7.394 -1.9142 -1.1952 -2.0418
   89MOL   H15828494   7.062   2.627   7.267 -0.0097 -1.3546 -0.8641
   89MOL   H15928495   7.313   2.472   7.037 -2.4174 -4.5917 -1.4788
   89MOL   H16028496   7.153   2.536   7.044 -0.2676 -0.7527 -0.4560
   89MOL   H16128497   7.194   2.399   7.146  1.1098 -0.9148 -0.2148
   89MOL   C16228498   7.555   2.565   7.449 -0.2388  0.8745 -0.9187
   89MOL   C16328499   7.620   2.662   7.554 -0.4083 -0.3377 -0.0429
   89MOL   O16428500   7.561   2.634   7.683 -0.0159 -0.0723 -0.1074
   89MOL   C16528501   7.451   2.720   7.714 -0.4248 -0.6019  0.0453
   89MOL   C16628502   7.466   2.740   0.045 -0.0030  0.4478 -0.3877
   89MOL   C16728503   7.317   2.660   7.675  0.0324  0.5586  0.7502
   89MOL   H16828504   7.496   2.502   7.515 -2.1620  0.0244 -3.3385
   89MOL   H16928505   7.640   2.508   7.412 -0.2603  0.2057  0.0464
   89MOL   H17028506   7.593   2.763   7.524  1.7739  0.0270 -0.8414
   89MOL   H17128507   7.450   2.817   7.663 -0.4685 -1.1438 -0.9962
   89MOL   H17228508   7.474   2.641   0.089 -1.1752 -0.3935 -2.0590
   89MOL   H17328509   7.388   2.799   0.093  0.7084  0.2298  1.0611
   89MOL   H17428510   7.562   2.791   0.058  0.3486 -0.9514  2.9492
   89MOL   H17528511   7.233   2.722   7.706  0.1410  1.7859 -1.3293
   89MOL   H17628512   7.311   2.567   7.730  2.6257 -0.4393 -0.5690
   89MOL   H17728513   7.309   2.644   7.568 -1.1672  0.7208  0.8122
   89MOL   C17828514   7.772   2.648   7.568  0.4825 -0.0288  0.3056
   89MOL   C17928515   0.005   2.758   7.663 -0.0290  0.6983  0.1825
   89MOL   O18028516   0.128   2.707   7.731  0.1603 -0.3852 -0.3087
   89MOL   C18128517   0.109   2.664   0.045  0.5265  0.2250 -0.8702
   89MOL   C18228518   0.244   2.674   0.118  0.1075  0.5724 -0.2960
   89MOL   C18328519   0.039   2.533   0.059 -0.0633 -0.2625  0.6504
   89MOL   H18428520   0.000   2.649   7.470  0.6079  0.1741  0.3682
   89MOL   H18528521   7.799   2.556   7.620  0.4524 -0.7107 -0.8789
   89MOL   H18628522   7.751   2.795   7.733  1.9971  0.5673  2.4882
   89MOL   H18728523   0.040   2.732   0.094 -1.3819 -2.8319  0.8251
   89MOL   H18828524   0.283   2.775   0.108  1.4171  0.2589  1.4409
   89MOL   H18928525   0.319   2.602   0.086 -0.1543  1.1493 -2.3073
   89MOL   H19028526   0.239   2.655   0.225  0.4929  0.9264 -0.2113
   89MOL   H19128527   0.039   2.494   0.160  0.5336 -0.6808  0.4876
   89MOL   H19228528   0.082   2.459   7.812  1.2192  1.6563 -0.7067
   89MOL   H19328529   7.757   2.547   0.024 -0.0819  0.5156  1.0107
   89MOL   C19428530   0.053   2.878   7.580  0.3730  0.1130  0.2770
   89MOL   C19528531   0.096   3.001   7.658  0.1057 -0.5871 -0.2271
   89MOL   O19628532   7.799   3.075   7.705 -0.2256  0.6524  0.3337
   89MOL   C19728533   7.783   3.062   0.032  0.3428  0.7715  0.1236
   89MOL   C19828534   0.062   3.145   0.114 -0.2122 -1.3218  0.2264
   89MOL   C19928535   7.635   3.093   0.059 -1.1724  0.1989  0.8868
   89MOL   H20028536   0.125   2.842   7.506 -1.5343  0.4367 -1.7663
   89MOL   H20128537   7.790   2.896   7.513 -0.6461 -1.2712  1.1478
   89MOL   H20228538   0.150   2.964   7.745  0.8065  0.1379 -0.3446
   89MOL   H20328539   7.803   2.961   0.067 -0.2771  1.2072  1.7788
   89MOL   H20428540   0.034   3.162   0.218  0.1169 -0.0565  0.1148
   89MOL   H20528541   0.158   3.094   0.103 -0.3388 -1.5285  0.0820
   89MOL   H20628542   0.073   3.244   0.072  0.2933 -0.7662  1.6237
   89MOL   H20728543   7.564   3.016   0.029  0.1070 -1.3506  1.7325
   89MOL   H20828544   7.611   3.130   0.159  0.5124  0.7062  1.1277
   89MOL   H20928545   7.594   3.177   0.004  1.3342  0.8992  0.0434
   89MOL   C21028546   0.170   3.105   7.577 -0.1174 -0.3858  0.1055
   89MOL   C21128547   0.323   3.090   7.563  0.2881 -0.2944  0.7943
   89MOL   O21228548   0.367   3.174   7.453 -0.0460 -0.9401 -0.9863
   89MOL   C21328549   0.423   3.099   7.346  1.1010  0.4344  0.6278
   89MOL   C21428550   0.316   3.026   7.257  0.2111 -0.1642  0.4806
   89MOL   C21528551   0.493   3.202   7.257  0.0934  0.2372 -0.3972
   89MOL   H21628552   0.139   3.201   7.619 -1.6620 -0.2215 -1.3341
   89MOL   H21728553   0.128   3.120   7.478  1.7327 -0.5703 -0.7113
   89MOL   H21828554   0.347   2.985   7.551  2.0344  0.3835 -2.1349
   89MOL   H21928555   0.500   3.030   7.379 -0.5113 -0.1138  3.4323
   89MOL   H22028556   0.249   3.089   7.199  0.6844  0.9904  1.1555
   89MOL   H22128557   0.263   2.970   7.334  0.3754 -0.9937 -0.0028
   89MOL   H22228558   0.356   2.948   7.193  0.7331  0.9171 -0.5327
   89MOL   H22328559   0.423   3.282   7.232 -0.2833  0.8039  2.2772
   89MOL   H22428560   0.531   3.156   7.166 -0.1813 -0.6333 -0.0778
   89MOL   H22528561   0.580   3.242   7.310 -0.7666  2.0088 -0.2810
   89MOL   C22628562   0.386   3.139   7.695  0.1844  0.2440  0.2236
   89MOL   C22728563   0.528   3.089   7.713  0.0839  0.1635  0.4638
   89MOL   O22828564   0.517   2.951   7.736 -0.2919  0.2401 -0.1054
   89MOL   C22928565   0.588   2.860   7.658  0.2150 -0.9801 -0.2067
   89MOL   C23028566   0.522   2.725   7.674  0.0724 -0.9834 -0.5483
   89MOL   C23128567   0.738   2.846   7.693 -0.0730  0.2740  0.5226
   89MOL   H23228568   0.327   3.099   7.777 -1.2966 -1.1026 -1.4645
   89MOL   H23328569   0.391   3.248   7.700 -3.4996  0.7013 -3.0350
   89MOL   H23428570   0.594   3.119   7.632 -0.8366 -1.8149 -1.0613
   89MOL   H23528571   0.582   2.881   7.552 -2.5900 -1.3356 -0.1466
   89MOL   H23628572   0.421   2.741   7.634  0.3016  1.8278 -0.0523
   89MOL   H23728573   0.568   2.653   7.607 -0.3244 -0.8698 -0.9508
   89MOL   H23828574   0.519   2.673   7.770 -2.9796 -0.3078 -0.2157
   89MOL   H23928575   0.804   2.918   7.645 -0.8384 -0.2912 -1.4564
   89MOL   H24028576   0.769   2.744   7.671 -0.7882  0.0915  0.3435
   89MOL   H24128577   0.740   2.856   7.801 -0.9793  0.5617  0.5162
   89MOL   C24228578   0.589   3.150   0.028 -0.1166  0.7820  0.2160
   89MOL   C24328579   0.593   3.301   0.054 -0.5999  0.0473 -0.3464
   89MOL   O24428580   0.647   3.369   7.763  0.2223 -0.4499 -0.6505
   89MOL   C24528581   0.577   3.478   7.713 -0.5384  0.5169  0.7378
   89MOL   C24628582   0.629   3.597   7.785 -0.4077 -0.1457  0.4637
   89MOL   C24728583   0.613   3.484   7.558 -0.1175 -0.2992  0.3274
   89MOL   H24828584   0.537   3.099   0.110  1.8931  1.5493  1.9943
   89MOL   H24928585   0.689   3.108   0.029  0.0721  1.2135 -0.3933
   89MOL   H25028586   0.492   3.343   0.063 -0.3967  0.3066  0.7658
   89MOL   H25128587   0.468   3.478   7.724 -0.3931 -0.3518  2.2400
   89MOL   H25228588   0.738   3.595   7.794 -0.3081  2.4074 -0.0169
   89MOL   H25328589   0.585   3.680   7.730  1.1183  0.4627  0.1373
   89MOL   H25428590   0.591   3.590   0.066 -0.0120 -0.3691  0.5992
   89MOL   H25528591   0.549   3.411   7.508 -2.1687  1.3787  0.4488
   89MOL   H25628592   0.604   3.582   7.510 -0.1458  0.0861  1.1122
   89MOL   H25728593   0.716   3.450   7.548 -0.2364 -0.3790 -0.7536
   89MOL   C25828594   0.672   3.333   0.186 -0.4000  0.0010 -0.2179
   89MOL   C25928595   0.599   3.299   0.317 -0.4326  1.0845  0.3987
   89MOL   O26028596   0.495   3.397   0.331 -0.5134  0.4264  0.2823
   89MOL   C26128597   0.392   3.355   0.419  0.2137  0.2850  0.2457
   89MOL   C26228598   0.392   3.434   0.551 -0.1879 -0.2809 -0.4373
   89MOL   C26328599   0.264   3.380   0.342  0.7921 -0.1437  0.1261
   89MOL   H26428600   0.772   3.289   0.181  0.3783  1.7674 -0.4752
   89MOL   H26528601   0.691   3.440   0.195 -1.2651  0.1000  0.5345
   89MOL   H26628602   0.546   3.204   0.312  1.6960 -0.0499 -2.0662
   89MOL   H26728603   0.385   3.247   0.433  1.3947 -0.0562 -1.6594
   89MOL   H26828604   0.486   3.405   0.599 -0.5430 -1.0596 -0.1966
   89MOL   H26928605   0.301   3.400   0.600 -0.7044 -0.7998 -1.7281
   89MOL   H27028606   0.383   3.540   0.529  0.6056  0.2588  1.6547
   89MOL   H27128607   0.258   3.326   0.248  0.0630 -3.3654  1.9305
   89MOL   H27228608   0.179   3.337   0.395  2.0248 -1.4956  1.0313
   89MOL   H27328609   0.242   3.487   0.339  1.3370 -0.0686 -1.6159
   89MOL   C27428610   0.698   3.302   0.438 -0.1297  0.7958  0.2548
   89MOL   C27528611   0.825   3.210   0.438  0.0140 -0.0697  0.2201
   89MOL   O27628612   0.895   3.253   0.549  0.1181 -0.1582 -0.1892
   89MOL   C27728613   1.005   3.341   0.546  0.0639 -0.6820 -0.1203
   89MOL   C27828614   1.125   3.259   0.577  0.2172 -0.5829 -0.1710
   89MOL   C27928615   0.987   3.446   0.673 -0.1947 -0.3567 -0.4493
   89MOL   H28028616   0.734   3.403   0.457  0.6273  0.2272  1.9258
   89MOL   H28128617   0.641   3.265   0.524 -0.2874  2.9381  1.0999
   89MOL   H28228618   0.877   3.238   0.347 -0.9914 -0.1351 -0.3876
   89MOL   H28328619   1.012   3.396   0.452  0.9550  0.8035  0.7839
   89MOL   H28428620   1.212   3.325   0.582 -0.4891  0.4408 -1.0882
   89MOL   H28528621   1.118   3.203   0.670 -3.3549  1.5463  0.9742
   89MOL   H28628622   1.136   3.189   0.494 -1.1695 -1.7101  0.5714
   89MOL   H28728623   1.047   3.535   0.655  0.4609 -0.4485  1.2248
   89MOL   H28828624   1.014   3.406   0.771  1.1777  2.7389  0.5050
   89MOL   H28928625   0.886   3.486   0.667 -0.1901 -0.1486  0.6806
   89MOL   C29028626   0.787   3.062   0.447  0.5295  0.2773 -0.7345
   89MOL   C29128627   0.909   2.969   0.434  0.4039  0.1083  0.6071
   89MOL   O29228628   0.870   2.835   0.462 -0.4000  0.1002 -0.5392
   89MOL   C29328629   0.863   2.812   0.598  0.2649 -0.5070 -1.0860
   89MOL   C29428630   0.983   2.721   0.641  0.7986 -0.0780  0.2227
   89MOL   C29528631   0.725   2.750   0.619  0.5155  0.0349 -0.0969
   89MOL   H29628632   0.720   3.057   0.361 -0.4868  0.0495  0.0570
   89MOL   H29728633   0.728   3.039   0.535 -1.4311  1.6160 -1.6484
   89MOL   H29828634   0.988   3.006   0.500  0.6507 -0.4258  0.6143
   89MOL   H29928635   0.853   2.897   0.665  0.7375  0.4029 -2.1549
   89MOL   H30028636   1.084   2.761   0.643  0.9926 -0.5709  1.9246
   89MOL   H30128637   0.959   2.664   0.732  0.8140  1.7997  1.4364
   89MOL   H30228638   0.984   2.638   0.570  0.4522 -1.1819  1.4728
   89MOL   H30328639   0.700   2.721   0.721  2.1240 -1.1266 -0.0299
   89MOL   H30428640   0.657   2.828   0.583  1.1671 -0.4485 -2.4607
   89MOL   H30528641   0.706   2.666   0.553 -1.3415 -0.6232  1.2271
   89MOL   C30628642   0.988   2.959   0.304  0.6194 -0.1492 -0.3964
   89MOL   C30728643   1.120   2.880   0.323 -0.2327 -0.2708  0.1462
   89MOL   O30828644   1.221   2.972   0.372 -0.7068  0.2475  0.1193
   89MOL   C30928645   1.350   2.914   0.393 -0.3199  0.2153 -0.7678
   89MOL   C31028646   1.421   2.904   0.259 -0.3437 -0.4574  1.2843
   89MOL   C31128647   1.416   3.010   0.492 -0.3129  0.4973  0.5256
   89MOL   H31228648   1.013   3.059   0.270  0.5646  0.3738  1.0927
   89MOL   H31328649   0.931   2.908   0.226 -0.0464  0.3354 -0.2240
   89MOL   H31428650   1.113   2.791   0.385  2.0502 -0.4025  0.2348
   89MOL   H31528651   1.340   2.817   0.442  1.6482  0.4877  0.2104
   89MOL   H31628652   1.376   2.832   0.190  1.3835 -0.3368 -0.0037
   89MOL   H31728653   1.522   2.865   0.262 -0.1490 -0.4546 -2.4531
   89MOL   H31828654   1.426   2.999   0.207  2.8906 -1.3983 -0.2185
   89MOL   H31928655   1.510   2.973   0.532 -1.0045 -0.3727  1.4038
   89MOL   H32028656   1.352   3.035   0.577  1.1618  1.3907  1.3760
   89MOL   H32128657   1.436   3.098   0.432  2.3680 -0.1674  0.3938
   89MOL   H32228658   1.133   2.847   0.219  0.9510  1.8369 -0.3924
   90MOL     C128659   0.374   7.109   1.468 -0.0323 -0.2637  0.1543
   90MOL     C228660   0.377   7.217   1.363 -0.2556  0.0533 -0.1745
   90MOL     O328661   0.241   7.244   1.318 -0.6061 -0.2295  0.2602
   90MOL     C428662   0.233   7.326   1.206 -0.2818 -0.2059 -0.1185
   90MOL     C528663   0.095   7.373   1.193 -0.2428 -0.0070 -0.0601
   90MOL     C628664   0.272   7.247   1.081  0.1757 -0.3043  0.6206
   90MOL     H728665   0.315   7.026   1.428  0.1737  0.6156 -2.0646
   90MOL     H828666   0.471   7.064   1.487  2.1244  3.9797 -0.1856
   90MOL     H928667   0.429   7.168   1.281  1.7672  2.6279 -0.4871
   90MOL    H1028668   0.301   7.411   1.208 -0.4524 -0.0798  0.3513
   90MOL    H1128669   0.076   7.436   1.106 -1.6994  1.7111  1.4604
   90MOL    H1228670   0.017   7.298   1.204  0.1945 -0.5638 -0.7381
   90MOL    H1328671   0.076   7.442   1.275  1.8078 -0.7010  1.0417
   90MOL    H1428672   0.380   7.235   1.071  0.3604  1.3581  0.5467
   90MOL    H1528673   0.216   7.158   1.054 -1.3109  1.0624 -0.8706
   90MOL    H1628674   0.260   7.322   1.003 -1.5404 -1.9006 -0.6660
   90MOL    H1728675   0.330   7.137   1.563 -0.8998  1.7454 -0.8075
   90MOL    C1828676   0.456   7.333   1.425 -0.0827  0.0747 -0.5074
   90MOL    C1928677   0.567   7.392   1.334  0.1033 -0.8456 -0.7577
   90MOL    O2028678   0.686   7.311   1.328  0.3289  0.2033  0.6741
   90MOL    C2128679   0.722   7.266   1.201 -0.0970  0.1367 -0.0625
   90MOL    C2228680   0.813   7.142   1.222 -0.9921 -0.5176 -0.0810
   90MOL    C2328681   0.794   7.381   1.124  0.2749  0.6459 -0.4784
   90MOL    H2428682   0.377   7.404   1.446 -0.4323 -1.0998  2.3231
   90MOL    H2528683   0.503   7.316   1.522  1.7657 -0.0264 -1.3980
   90MOL    H2628684   0.516   7.418   1.241 -1.2183  0.9672  0.4475
   90MOL    H2728685   0.634   7.223   1.154 -0.5497 -0.2442  1.1222
   90MOL    H2828686   0.752   7.059   1.257 -3.4613  0.4224 -1.9979
   90MOL    H2928687   0.855   7.104   1.129  1.7001 -0.0724  0.9060
   90MOL    H3028688   0.891   7.176   1.290 -0.1938  0.6651 -1.5398
   90MOL    H3128689   0.727   7.466   1.124  1.8012  1.8663 -0.3062
   90MOL    H3228690   0.818   7.364   1.018  0.0815  0.7734 -0.5419
   90MOL    H3328691   0.889   7.412   1.168  0.9003 -1.8706  0.0324
   90MOL    C3428692   0.634   7.524   1.398  0.2193  0.5175  0.3234
   90MOL    C3528693   0.546   7.646   1.411  0.0721  0.1617  0.2811
   90MOL    O3628694   0.459   7.635   1.522  0.3970  0.0227  0.3869
   90MOL    C3728695   0.342   7.716   1.522 -0.5612  0.4109  0.0235
   90MOL    C3828696   0.233   7.666   1.433 -0.1092  0.0930  0.5252
   90MOL    C3928697   0.291   7.716   1.670 -0.7759 -0.1880  0.6054
   90MOL    H4028698   0.721   7.557   1.341  1.4781 -1.6071  0.9542
   90MOL    H4128699   0.684   7.505   1.493  1.4562  2.0809  0.0126
   90MOL    H4228700   0.485   7.647   1.321  0.3430  1.3216  0.0999
   90MOL    H4328701   0.376   7.817   1.498  2.9263 -0.2121  1.9157
   90MOL    H4428702   0.205   7.568   1.473 -0.2969  0.3904  1.1280
   90MOL    H4528703   0.277   7.651   1.334 -2.1474 -0.6530 -0.2951
   90MOL    H4628704   0.141   7.723   1.428  0.0372  0.2478 -0.6899
   90MOL    H4728705   0.244   7.621   1.694 -1.0157 -0.4125 -0.6731
   90MOL    H4828706   0.366   7.728   1.748 -0.7553 -1.6245  0.8187
   90MOL    H4928707   0.210   7.787   1.686 -2.3615 -2.2470  1.8972
   90MOL    C5028708   0.628   7.778   1.419 -0.3708  0.2328 -0.0028
   90MOL    C5128709   0.665   0.029   1.288 -0.3267  0.4115  0.1450
   90MOL    O5228710   0.765   0.140   1.323  0.1134 -0.2562 -0.3165
   90MOL    C5328711   0.897   0.103   1.343 -0.1102  0.2243  0.1676
   90MOL    C5428712   0.934   0.132   1.491 -0.4070 -0.4913  0.2764
   90MOL    C5528713   0.974   0.191   1.243 -0.0995  0.6686  0.2185
   90MOL    H5628714   0.561   0.026   1.471 -0.1964  0.6038 -0.2572
   90MOL    H5728715   0.717   7.771   1.482  0.5023  1.3772 -1.0786
   90MOL    H5828716   0.725   7.797   1.214  1.1115  0.3864  1.2915
   90MOL    H5928717   0.909   7.816   1.330  1.4174  0.0900  2.2885
   90MOL    H6028718   0.861   0.199   1.536 -0.6170  0.7463 -1.8460
   90MOL    H6128719   1.036   0.171   1.501 -1.4434  2.7799 -1.4917
   90MOL    H6228720   0.928   0.043   1.554 -0.8546  0.6395  1.8712
   90MOL    H6328721   0.953   0.154   1.143 -0.2268  2.8750 -0.6112
   90MOL    H6428722   1.083   0.184   1.241 -0.0797  0.7933  0.7835
   90MOL    H6528723   0.937   0.293   1.255  0.5484  0.7619  1.4827
   90MOL    C6628724   0.541   0.091   1.223 -0.4499  0.9718 -1.0082
   90MOL    C6728725   0.565   0.159   1.088  0.0483 -0.0783  0.2329
   90MOL    O6828726   0.468   0.258   1.058  0.8038 -0.2384 -0.4248
   90MOL    C6928727   0.499   0.388   1.111  0.7050  0.3304 -0.1140
   90MOL    C7028728   0.578   0.474   1.014 -0.7104  0.0700 -0.6598
   90MOL    C7128729   0.358   0.448   1.134  0.5922 -0.0613  0.4294
   90MOL    H7228730   0.455   0.025   1.213 -0.0246  0.2191  0.2170
   90MOL    H7328731   0.506   0.166   1.294 -1.1127  0.4779 -0.8097
   90MOL    H7428732   0.668   0.194   1.091 -0.7568  2.6599 -1.7894
   90MOL    H7528733   0.557   0.373   1.202 -0.6823 -1.7669  0.4704
   90MOL    H7628734   0.678   0.432   1.005 -0.5748 -0.5722  2.9002
   90MOL    H7728735   0.544   0.476   0.911 -1.4994  0.8613 -0.3861
   90MOL    H7828736   0.576   0.576   1.051  2.2657  0.7401 -2.2121
   90MOL    H7928737   0.309   0.473   1.039 -0.8772 -1.2013  0.8622
   90MOL    H8028738   0.361   0.538   1.195  0.5557 -0.2172  0.6613
   90MOL    H8128739   0.292   0.376   1.182 -0.0512 -1.1797 -1.9959
   90MOL    C8228740   0.556   0.059   0.977 -0.0480 -0.4341 -0.0831
   90MOL    C8328741   0.596   0.110   0.837 -0.2757 -1.0234 -0.0204
   90MOL    O8428742   0.735   0.127   0.836  0.0828  0.5978  0.4925
   90MOL    C8528743   0.799   0.185   0.723 -0.1454  0.7109 -0.4899
   90MOL    C8628744   0.948   0.184   0.740  0.3900 -0.0272 -0.9027
   90MOL    C8728745   0.767   0.335   0.715  0.5129 -0.0273  0.2193
   90MOL    H8828746   0.623   7.802   1.014  1.0344  1.0369  1.0982
   90MOL    H8928747   0.450   0.033   0.979 -0.3663  0.8243 -0.2175
   90MOL    H9028748   0.559   0.213   0.832  1.2584 -0.4331  0.4983
   90MOL    H9128749   0.778   0.139   0.626  0.8024 -0.0783 -0.3283
   90MOL    H9228750   0.969   0.079   0.718 -1.1985 -0.9243  1.6539
   90MOL    H9328751   1.012   0.251   0.682  0.8757 -0.2560 -0.6277
   90MOL    H9428752   0.968   0.195   0.846 -0.1501 -0.2085 -0.7773
   90MOL    H9528753   0.661   0.351   0.698  0.9717  1.8339 -1.0386
   90MOL    H9628754   0.792   0.384   0.809 -0.1199 -1.2465  1.0344
   90MOL    H9728755   0.828   0.394   0.646  1.1312  1.0188  1.6392
   90MOL    C9828756   0.562   0.017   0.718 -0.3839  0.0346  0.3069
   90MOL    C9928757   0.491   0.094   0.600 -0.2436  0.0443 -0.1639
   90MOL   O10028758   0.375   0.167   0.656  0.1125 -0.3314  0.1701
   90MOL   C10128759   0.356   0.301   0.635 -0.2997  1.0112  0.1349
   90MOL   C10228760   0.265   0.361   0.740  0.1615  0.7031 -0.4181
   90MOL   C10328761   0.309   0.327   0.491  0.1670 -0.2099  0.2616
   90MOL   H10428762   0.644   7.774   0.685  1.2455  2.5155 -0.4929
   90MOL   H10528763   0.501   7.758   0.761 -2.4269  1.5965  0.4014
   90MOL   H10628764   0.557   0.168   0.555  2.5732 -1.5694  1.1635
   90MOL   H10728765   0.452   0.349   0.651  0.4336 -0.8448  1.4394
   90MOL   H10828766   0.162   0.327   0.741  0.8969 -1.5657  2.1846
   90MOL   H10928767   0.260   0.470   0.738 -1.7230  0.6645  1.3784
   90MOL   H11028768   0.304   0.344   0.840 -0.1684  1.0680 -0.2241
   90MOL   H11128769   0.382   0.294   0.417  1.3253  2.0253  0.3421
   90MOL   H11228770   0.292   0.434   0.479  1.9816  0.2311  1.3865
   90MOL   H11328771   0.217   0.271   0.475 -0.2083  0.4201  0.1871
   90MOL   C11428772   0.439   0.002   0.498 -0.0021  0.5254 -0.0661
   90MOL   C11528773   0.549   7.777   0.388 -0.2956  0.4649  0.1155
   90MOL   O11628774   0.488   7.681   0.299 -0.0931 -0.1444 -0.0330
   90MOL   C11728775   0.498   7.550   0.346 -0.3975  0.1460 -1.1941
   90MOL   C11828776   0.640   7.489   0.321  0.0917 -0.0801 -0.1078
   90MOL   C11928777   0.393   7.460   0.287  0.4945  0.5937 -0.0877
   90MOL   H12028778   0.361   0.050   0.439 -2.1177 -2.2797  0.2989
   90MOL   H12128779   0.393   7.734   0.544 -0.3567  0.4375 -0.5900
   90MOL   H12228780   0.646   7.746   0.428 -0.7172 -1.8167 -0.5400
   90MOL   H12328781   0.480   7.546   0.454  1.1685  1.3117 -0.8717
   90MOL   H12428782   0.712   7.570   0.311  0.8688 -0.7365  0.1102
   90MOL   H12528783   0.659   7.426   0.234 -0.2508 -0.0432 -0.2093
   90MOL   H12628784   0.668   7.438   0.413  1.9206  1.1249  0.0423
   90MOL   H12728785   0.293   7.503   0.292  0.5438  0.6043  0.8804
   90MOL   H12828786   0.391   7.359   0.326 -0.3961  0.2896 -0.9146
   90MOL   H12928787   0.405   7.442   0.180 -1.8296 -2.8521  0.1627
   90MOL   C13028788   0.585   0.070   0.282  0.0474  0.0478 -0.3609
   90MOL   C13128789   0.727   0.134   0.313  0.1652 -0.2552 -0.4260
   90MOL   O13228790   0.741   0.255   0.233  0.2021 -0.5036  0.3858
   90MOL   C13328791   0.656   0.368   0.257 -0.0019 -0.4492 -0.1092
   90MOL   C13428792   0.745   0.496   0.273 -0.7560 -0.1073 -0.5877
   90MOL   C13528793   0.567   0.391   0.133  0.7839 -0.2085  0.4638
   90MOL   H13628794   0.498   0.135   0.286 -0.9015 -1.0449 -2.4598
   90MOL   H13728795   0.602   0.028   0.183 -0.0459  1.2837 -0.9097
   90MOL   H13828796   0.752   0.142   0.419 -0.5958 -1.4061 -0.1508
   90MOL   H13928797   0.601   0.350   0.349 -1.4202 -1.0340 -1.0649
   90MOL   H14028798   0.795   0.502   0.369  0.6322  0.4803 -1.3291
   90MOL   H14128799   0.682   0.584   0.255 -0.5157 -0.1147 -1.4977
   90MOL   H14228800   0.829   0.495   0.203 -1.1852  2.5133 -1.2038
   90MOL   H14328801   0.632   0.434   0.056 -1.8785  2.5363 -0.3653
   90MOL   H14428802   0.508   0.307   0.096  2.3781 -1.4057  0.6099
   90MOL   H14528803   0.491   0.467   0.151  1.2019  0.7149 -1.4849
   90MOL   C14628804   0.845   0.040   0.264  0.4594 -0.1078 -0.3214
   90MOL   C14728805   0.991   0.084   0.253  0.4430 -0.2456  0.0122
   90MOL   O14828806   1.050   0.131   0.369 -0.1889 -0.4551  0.3564
   90MOL   C14928807   1.147   0.229   0.344  0.4023 -0.4725 -0.1407
   90MOL   C15028808   1.248   0.206   0.450 -0.2452 -0.0025 -0.2483
   90MOL   C15128809   1.079   0.367   0.349 -0.5261 -0.1849  0.3428
   90MOL   H15228810   0.817   0.014   0.162 -0.8081  1.9592 -0.5282
   90MOL   H15328811   0.843   7.767   0.320  1.4821 -0.7445 -1.3376
   90MOL   H15428812   0.993   0.168   0.183 -1.6869 -0.2300 -0.0730
   90MOL   H15528813   1.197   0.221   0.247  1.1525  1.1550  0.0924
   90MOL   H15628814   1.258   0.099   0.471  3.8072  0.3499  0.1848
   90MOL   H15728815   1.223   0.258   0.543  0.4392  0.5671 -0.3708
   90MOL   H15828816   1.347   0.247   0.429 -0.0304  0.1548  1.0076
   90MOL   H15928817   1.007   0.388   0.270 -0.6732 -0.9263  0.2751
   90MOL   H16028818   1.144   0.454   0.353  0.5586 -1.0286  1.7047
   90MOL   H16128819   1.022   0.381   0.441 -2.2441 -1.5391 -0.4769
   90MOL   C16228820   1.069   7.798   0.181  0.3964  0.2505 -0.1530
   90MOL   C16328821   1.132   7.683   0.267  0.2682 -0.4640 -0.3789
   90MOL   O16428822   1.030   7.588   0.295 -0.1660 -0.1382  0.6682
   90MOL   C16528823   1.063   7.495   0.395 -0.1717 -0.4803 -0.3052
   90MOL   C16628824   0.996   7.359   0.350 -0.0294  0.0331  0.3105
   90MOL   C16728825   0.990   7.541   0.521  0.3803  0.0732 -0.3082
   90MOL   H16828826   1.008   7.755   0.101 -1.2274  1.0234  0.6528
   90MOL   H16928827   1.150   0.030   0.131  1.4768 -0.5474  0.7275
   90MOL   H17028828   1.165   7.734   0.358 -0.4343  0.4625 -0.6429
   90MOL   H17128829   1.167   7.475   0.421 -0.4967 -2.7151 -0.6007
   90MOL   H17228830   1.016   7.318   0.251 -0.0903 -2.4748  1.2938
   90MOL   H17328831   0.887   7.365   0.352 -0.0928 -1.0758  2.9617
   90MOL   H17428832   1.016   7.284   0.427  4.7334  1.0983  0.2298
   90MOL   H17528833   1.018   7.641   0.556  1.9214 -0.5931  0.4039
   90MOL   H17628834   1.014   7.478   0.607 -0.0950  0.7518  0.3339
   90MOL   H17728835   0.881   7.541   0.509  0.0017 -2.1177  2.4548
   90MOL   C17828836   1.254   7.624   0.191  0.6131 -0.2660 -0.1081
   90MOL   C17928837   1.388   7.706   0.201  0.6959  0.5161  0.3856
   90MOL   O18028838   1.488   7.631   0.269  0.4817  0.1434  0.3044
   90MOL   C18128839   1.503   7.637   0.413  0.0055 -0.2383  0.2546
   90MOL   C18228840   1.621   7.719   0.470  0.4251 -0.2360  0.1168
   90MOL   C18328841   1.534   7.488   0.448 -0.1169 -0.7174 -0.1648
   90MOL   H18428842   1.224   7.599   0.090  2.0682  1.2126 -0.9251
   90MOL   H18528843   1.276   7.531   0.242  1.1929 -0.4037 -0.6063
   90MOL   H18628844   1.376   7.797   0.260 -1.8827  0.5926 -0.2041
   90MOL   H18728845   1.413   7.665   0.468 -0.3888 -1.3995  0.2230
   90MOL   H18828846   1.623   7.704   0.578  2.4743  3.3112  0.6408
   90MOL   H18928847   1.604   0.004   0.446 -0.0775  0.1881  2.2601
   90MOL   H19028848   1.720   7.699   0.429  0.3589  2.9161 -1.7452
   90MOL   H19128849   1.462   7.435   0.386  0.4032 -0.0846 -1.3189
   90MOL   H19228850   1.524   7.461   0.554 -1.4070 -0.7772 -0.2964
   90MOL   H19328851   1.634   7.467   0.409  0.3568  1.2462 -0.0201
   90MOL   C19428852   1.436   7.749   0.064  0.4931 -0.1391 -0.1885
   90MOL   C19528853   1.526   0.052   0.069 -0.8003  0.4624 -0.3070
   90MOL   O19628854   1.449   0.167   0.107  0.1361  0.2101  0.4903
   90MOL   C19728855   1.513   0.294   0.118  0.2082  0.5033 -0.2128
   90MOL   C19828856   1.411   0.403   0.114 -0.7934  0.3297  0.2359
   90MOL   C19928857   1.619   0.306   0.230 -0.4037  0.0254 -0.6008
   90MOL   H20028858   1.483   7.658   0.026 -1.7093 -1.0116 -0.9061
   90MOL   H20128859   1.353   7.759   7.815 -0.4789 -0.8347  0.8553
   90MOL   H20228860   1.604   0.035   0.144 -0.7185  0.4151 -0.4019
   90MOL   H20328861   1.573   0.314   0.029 -0.4685  1.6394 -0.4147
   90MOL   H20428862   1.457   0.500   0.092  1.4181 -0.7022  0.1809
   90MOL   H20528863   1.349   0.387   0.026 -0.2033  0.3008 -0.1777
   90MOL   H20628864   1.349   0.419   0.202  1.7746 -1.9491  2.5297
   90MOL   H20728865   1.702   0.242   0.201 -0.7317 -0.5294 -0.3175
   90MOL   H20828866   1.648   0.411   0.240 -0.0035  0.1134 -2.4664
   90MOL   H20928867   1.577   0.253   0.315 -0.6959  0.1148 -0.6909
   90MOL   C21028868   1.612   0.071   7.759 -0.7632 -0.3692  0.6804
   90MOL   C21128869   1.529   0.136   7.641 -0.6620  0.8560 -0.3188
   90MOL   O21228870   1.622   0.185   7.552 -0.0161  0.1157 -0.7719
   90MOL   C21328871   1.687   0.305   7.577 -0.8099  0.1257  0.1262
   90MOL   C21428872   1.818   0.296   7.503 -0.0032  0.1161  0.3726
   90MOL   C21528873   1.622   0.426   7.507  0.2188  0.3825 -0.4260
   90MOL   H21628874   1.665   7.804   7.721 -0.1730  0.0541  0.5158
   90MOL   H21728875   1.698   0.131   7.790  1.5021 -3.2475  0.1813
   90MOL   H21828876   1.454   0.203   7.684 -0.2004  1.1873 -0.0284
   90MOL   H21928877   1.707   0.306   7.684 -1.1688  0.5531  0.1921
   90MOL   H22028878   1.867   0.204   7.535  0.9346  0.4592 -0.0522
   90MOL   H22128879   1.891   0.371   7.533 -0.8368  0.7347  0.8446
   90MOL   H22228880   1.812   0.272   7.396 -2.6144 -3.3020  1.2246
   90MOL   H22328881   1.660   0.522   7.541  0.3565 -0.4675  1.8551
   90MOL   H22428882   1.520   0.425   7.544  0.4440  2.6479  0.3260
   90MOL   H22528883   1.606   0.421   7.399  0.0250 -0.9498 -0.3506
   90MOL   C22628884   1.452   0.024   7.570 -0.2418 -0.0922  0.9440
   90MOL   C22728885   1.319   0.070   7.505 -0.2277 -0.3094  0.5173
   90MOL   O22828886   1.258   7.771   7.454  0.0558 -0.0554 -0.0360
   90MOL   C22928887   1.186   7.689   7.548  0.0110 -0.0869 -0.2695
   90MOL   C23028888   1.264   7.558   7.575 -0.2993  0.0179 -0.1698
   90MOL   C23128889   1.054   7.659   7.462 -0.7766 -0.2759  0.0343
   90MOL   H23228890   1.420   7.765   7.636  0.8494 -1.1427  0.2400
   90MOL   H23328891   1.514   7.797   7.493 -0.2273  1.4496 -0.0201
   90MOL   H23428892   1.254   0.116   7.579  0.1577  3.3287 -1.3040
   90MOL   H23528893   1.162   7.730   7.646  1.4078 -1.5459  0.7154
   90MOL   H23628894   1.220   7.489   7.502 -2.0723  0.8992  0.0306
   90MOL   H23728895   1.369   7.561   7.548 -0.0323  1.4164  1.0123
   90MOL   H23828896   1.251   7.514   7.674  0.8826 -1.4183 -0.6411
   90MOL   H23928897   1.083   7.602   7.374 -1.4925  0.5415 -0.7389
   90MOL   H24028898   1.003   7.749   7.428 -3.5008 -2.1764 -1.1387
   90MOL   H24128899   0.984   7.609   7.529 -1.9255  1.7238  0.3483
   90MOL   C24228900   1.336   0.173   7.391 -0.1239 -0.1510  0.0182
   90MOL   C24328901   1.206   0.252   7.374  0.7828  0.3741 -1.0606
   90MOL   O24428902   1.207   0.287   7.234  0.1743 -0.3564  0.1441
   90MOL   C24528903   1.089   0.242   7.162  0.0563 -0.0066 -0.4167
   90MOL   C24628904   1.088   0.313   7.028  0.4987 -0.5641  0.2532
   90MOL   C24728905   1.098   0.097   7.139 -0.4452 -0.6070  0.4372
   90MOL   H24828906   1.412   0.248   7.414  0.0448  0.1367 -1.4169
   90MOL   H24928907   1.369   0.125   7.300  0.9945 -0.9474  0.8403
   90MOL   H25028908   1.117   0.199   7.405  0.9779  0.6861  0.0308
   90MOL   H25128909   1.002   0.265   7.224  2.3044 -0.4988  3.0580
   90MOL   H25228910   0.998   0.292   6.971  1.1401 -1.1732 -0.5321
   90MOL   H25328911   1.096   0.422   7.023 -0.7536 -0.4962 -0.5553
   90MOL   H25428912   1.172   0.282   6.967  0.2865 -2.0572  0.6918
   90MOL   H25528913   1.014   0.051   7.086 -1.1859  0.2167  0.8703
   90MOL   H25628914   1.190   0.058   7.097  0.3756 -0.1482  1.7837
   90MOL   H25728915   1.096   0.038   7.230 -0.2134 -0.1173  0.7633
   90MOL   C25828916   1.220   0.381   7.457 -0.5493 -0.2779  0.7921
   90MOL   C25928917   1.097   0.460   7.474  0.1661  0.2150  0.0912
   90MOL   O26028918   0.978   0.388   7.506  0.3416  0.2578 -0.1379
   90MOL   C26128919   0.978   0.313   7.626 -0.8405  0.1430 -0.0700
   90MOL   C26228920   0.951   0.397   7.746  0.4722  0.1659 -0.2580
   90MOL   C26328921   0.880   0.208   7.614  0.1589 -0.1096  0.1591
   90MOL   H26428922   1.267   0.365   7.554  0.5470 -0.2274  0.2754
   90MOL   H26528923   1.295   0.437   7.401 -1.1216 -0.8868 -0.6365
   90MOL   H26628924   1.110   0.521   7.564 -2.1232  0.3755  0.3376
   90MOL   H26728925   1.074   0.261   7.633 -0.0521  1.5882  0.0208
   90MOL   H26828926   1.030   0.461   7.785  1.0577 -1.1618  0.7985
   90MOL   H26928927   0.930   0.326   0.006 -0.4346 -1.8948 -2.2656
   90MOL   H27028928   0.868   0.462   7.722  1.3564  0.3403 -2.9716
   90MOL   H27128929   0.892   0.161   7.516  1.8101  3.1275 -1.2765
   90MOL   H27228930   0.882   0.134   7.694 -1.4017  0.0141  0.3398
   90MOL   H27328931   0.776   0.240   7.605  0.0888 -0.6751 -1.2119
   90MOL   C27428932   1.058   0.558   7.355  0.4768  0.5794 -0.6447
   90MOL   C27528933   0.956   0.663   7.402  0.9176 -0.6196 -0.0394
   90MOL   O27628934   1.015   0.788   7.433  0.0273 -0.0817  0.5304
   90MOL   C27728935   1.093   0.804   7.553 -0.2038 -0.1844 -0.0034
   90MOL   C27828936   1.074   0.953   7.591  0.0536 -0.1209  0.1748
   90MOL   C27928937   1.239   0.779   7.538 -0.5442 -0.3652 -0.4797
   90MOL   H28028938   1.155   0.603   7.337  0.5765  0.2690 -0.8917
   90MOL   H28128939   1.025   0.495   7.273 -0.9737 -2.0943  1.8986
   90MOL   H28228940   0.894   0.625   7.484 -1.3349 -1.9036 -2.2877
   90MOL   H28328941   1.063   0.734   7.631  0.8417  0.2835  0.8408
   90MOL   H28428942   0.969   0.979   7.608 -0.6591 -2.1977 -0.8625
   90MOL   H28528943   1.135   0.966   7.680 -1.5545 -0.6085  1.3762
   90MOL   H28628944   1.106   1.033   7.524  1.3750 -0.3704  0.4923
   90MOL   H28728945   1.287   0.840   7.461 -0.9097 -1.1169 -1.3127
   90MOL   H28828946   1.259   0.678   7.502  1.2540 -0.7754  1.5831
   90MOL   H28928947   1.289   0.790   7.634  1.7620  1.7059 -1.8354
   90MOL   C29028948   0.849   0.699   7.292  0.7328  0.6031  0.0070
   90MOL   C29128949   0.727   0.785   7.352  0.8244 -0.1525  0.5428
   90MOL   O29228950   0.715   0.907   7.279  0.1586 -0.0011  0.0332
   90MOL   C29328951   0.650   1.019   7.337  0.4313  0.7233 -1.0868
   90MOL   C29428952   0.617   1.124   7.234 -0.0097 -1.1148 -0.2687
   90MOL   C29528953   0.750   1.079   7.437 -0.3354  0.2552  0.2423
   90MOL   H29628954   0.831   0.613   7.228  1.7276  0.8246 -0.5875
   90MOL   H29728955   0.913   0.756   7.224  0.1257  0.2027 -0.9074
   90MOL   H29828956   0.735   0.813   7.457  1.0609 -0.2968  0.5632
   90MOL   H29928957   0.553   0.991   7.378 -1.0527  3.1163 -2.7901
   90MOL   H30028958   0.559   1.087   7.150  0.6528  0.3947 -1.4174
   90MOL   H30128959   0.563   1.209   7.275  1.5238  0.5665 -1.6084
   90MOL   H30228960   0.712   1.157   7.191  1.2698 -1.3571  2.3143
   90MOL   H30328961   0.717   1.165   7.494 -0.7297  0.9970 -1.0933
   90MOL   H30428962   0.781   1.007   7.514  0.9834  1.2158  0.6376
   90MOL   H30528963   0.839   1.110   7.382  0.4292 -0.2731  1.1407
   90MOL   C30628964   0.593   0.708   7.327 -0.1959 -0.2030 -0.2910
   90MOL   C30728965   0.598   0.575   7.412  0.3592  0.3672  0.9154
   90MOL   O30828966   0.475   0.511   7.401 -0.6789  0.1964 -0.2131
   90MOL   C30928967   0.468   0.418   7.515 -0.4838 -1.4129  0.2521
   90MOL   C31028968   0.386   0.483   7.616  0.0215 -0.5873 -0.7442
   90MOL   C31128969   0.394   0.294   7.452 -0.0545 -1.1622 -0.3552
   90MOL   H31228970   0.590   0.694   7.219 -1.4400  0.0051 -0.2907
   90MOL   H31328971   0.500   0.760   7.350 -0.7491 -1.6858  0.9398
   90MOL   H31428972   0.673   0.508   7.370  1.3061  1.6329  0.5596
   90MOL   H31528973   0.566   0.384   7.547  0.0453  1.2141  1.5959
   90MOL   H31628974   0.419   0.584   7.641 -1.0605 -0.1496 -1.0631
   90MOL   H31728975   0.398   0.419   7.704 -3.0269  0.4016  0.4768
   90MOL   H31828976   0.281   0.480   7.588 -0.1600 -0.7345 -0.0636
   90MOL   H31928977   0.423   0.204   7.507  3.7313  1.0758  1.4713
   90MOL   H32028978   0.426   0.279   7.349 -0.8314 -1.2216 -0.5965
   90MOL   H32128979   0.286   0.312   7.452 -0.1577 -1.7435  0.3507
   90MOL   H32228980   0.624   0.603   7.514  0.4433 -0.9319  1.2612
   91MOL     C128981   5.358   0.929   1.865  0.3381  0.4045 -0.4856
   91MOL     C228982   5.401   0.805   1.786 -0.2433  0.6019  0.9405
   91MOL     O328983   5.476   0.722   1.881 -0.2764  0.8116 -0.1144
   91MOL     C428984   5.554   0.621   1.801  0.1513 -0.7136 -0.1361
   91MOL     C528985   5.549   0.488   1.882 -0.7031  0.0447 -0.4018
   91MOL     C628986   5.699   0.668   1.793  0.3072 -0.3792 -0.1508
   91MOL     H728987   5.450   0.968   1.909  0.2865 -1.0442  0.9722
   91MOL     H828988   5.305   1.007   1.810  1.9505  0.9673 -1.3036
   91MOL     H928989   5.477   0.830   1.713 -1.7197 -1.6832 -1.4547
   91MOL    H1028990   5.507   0.611   1.703 -1.4484  0.1952  0.5216
   91MOL    H1128991   5.447   0.450   1.889 -1.0333  0.2551 -3.4986
   91MOL    H1228992   5.601   0.413   1.822 -1.3918 -0.5311 -0.2871
   91MOL    H1328993   5.578   0.500   1.986  1.4211  0.2300 -0.9854
   91MOL    H1428994   5.743   0.630   1.701  1.7798 -1.6927  1.0533
   91MOL    H1528995   5.704   0.776   1.784  0.3488 -0.2131  1.6269
   91MOL    H1628996   5.760   0.637   1.878 -0.5906 -1.6787  0.0526
   91MOL    H1728997   5.297   0.907   1.952 -0.1299 -1.0355 -1.1721
   91MOL    C1828998   5.273   0.738   1.718  0.0328 -0.3543  0.3097
   91MOL    C1928999   5.259   0.789   1.574  0.2393  0.5183 -0.0139
   91MOL    O2029000   5.128   0.777   1.518  0.1310  0.0877 -0.0397
   91MOL    C2129001   5.025   0.865   1.558 -0.0338  0.3014 -0.1277
   91MOL    C2229002   4.923   0.793   1.658  0.0620  0.3185 -0.6324
   91MOL    C2329003   4.946   0.914   1.440 -0.2639 -0.0084  0.1011
   91MOL    H2429004   5.283   0.630   1.707  2.4384 -0.0005 -1.5136
   91MOL    H2529005   5.192   0.753   1.789 -0.9225 -0.1063 -0.8160
   91MOL    H2629006   5.286   0.894   1.567  0.3609  0.4858 -0.0383
   91MOL    H2729007   5.079   0.944   1.609 -0.4394 -0.7265  1.9216
   91MOL    H2829008   4.980   0.739   1.734 -1.1016 -0.2768 -0.1755
   91MOL    H2929009   4.849   0.859   1.703 -0.2129 -0.6589  0.3683
   91MOL    H3029010   4.863   0.715   1.612 -1.1595  1.1426 -0.4747
   91MOL    H3129011   4.864   0.980   1.468 -0.3509  0.5975 -1.5287
   91MOL    H3229012   4.907   0.830   1.382  0.2440  1.6512 -2.7621
   91MOL    H3329013   5.016   0.970   1.378  0.7499 -2.7795 -1.3482
   91MOL    C3429014   5.361   0.708   1.481 -0.1995 -0.4363 -0.7973
   91MOL    C3529015   5.364   0.724   1.329 -0.5009  0.4384  0.1495
   91MOL    O3629016   5.417   0.851   1.302 -0.2122 -0.1341  0.1430
   91MOL    C3729017   5.378   0.909   1.182 -0.0296 -0.0164  0.1341
   91MOL    C3829018   5.234   0.954   1.189  0.7758  0.1245 -0.2129
   91MOL    C3929019   5.484   1.012   1.129 -0.8107 -0.2323  0.1186
   91MOL    H4029020   5.340   0.602   1.500  1.5374 -0.8906 -1.2775
   91MOL    H4129021   5.461   0.724   1.522 -1.3764  3.9009  0.6627
   91MOL    H4229022   5.264   0.713   1.289  0.5195 -1.5601 -1.9963
   91MOL    H4329023   5.370   0.833   1.104  1.2079 -0.4151  0.3944
   91MOL    H4429024   5.160   0.879   1.161 -0.1428  0.5481  1.0416
   91MOL    H4529025   5.211   1.040   1.127  1.1064 -0.8679 -1.7445
   91MOL    H4629026   5.206   0.989   1.288  2.3163 -0.6342  0.5222
   91MOL    H4729027   5.494   1.098   1.196 -1.4265  0.3260 -0.4901
   91MOL    H4829028   5.582   0.967   1.120 -0.2887  0.9821 -0.4560
   91MOL    H4929029   5.457   1.047   1.029  0.7611 -1.3983 -0.7204
   91MOL    C5029030   5.444   0.611   1.248 -0.4076  0.5700  0.4722
   91MOL    C5129031   5.599   0.623   1.238  0.0991  0.3842 -0.0595
   91MOL    O5229032   5.651   0.514   1.162  0.0256  0.1608  0.2796
   91MOL    C5329033   5.732   0.545   1.049  0.3331 -0.4743 -0.8490
   91MOL    C5429034   5.640   0.556   0.930  0.0291  0.2775  0.1672
   91MOL    C5529035   5.837   0.442   1.038  0.2499  0.7140  0.1166
   91MOL    H5629036   5.414   0.518   1.296 -0.0405  0.2705  0.1285
   91MOL    H5729037   5.420   0.619   1.142  1.3283 -2.6204 -0.2424
   91MOL    H5829038   5.619   0.715   1.182 -2.4402  0.4522 -0.9252
   91MOL    H5929039   5.782   0.641   1.061  1.8052 -1.1401 -1.5803
   91MOL    H6029040   5.701   0.557   0.840  0.2405 -1.3627  0.2687
   91MOL    H6129041   5.579   0.645   0.938 -0.6524 -0.3226  2.0930
   91MOL    H6229042   5.568   0.475   0.917 -0.4478  0.7965 -0.3924
   91MOL    H6329043   5.795   0.342   1.051 -1.6848  1.7403  2.1375
   91MOL    H6429044   5.916   0.456   1.113 -1.5297  2.7589  1.6556
   91MOL    H6529045   5.886   0.451   0.941 -0.4406 -0.1669 -0.3199
   91MOL    C6629046   5.675   0.641   1.369 -0.0869  0.4680 -0.1749
   91MOL    C6729047   5.831   0.638   1.365  0.4416 -1.0408 -0.3637
   91MOL    O6829048   5.877   0.545   1.469  0.3513  0.2706 -0.4516
   91MOL    C6929049   5.949   0.434   1.426 -0.1263  0.4499 -0.0462
   91MOL    C7029050   6.099   0.462   1.397  0.1009 -0.0373  0.2043
   91MOL    C7129051   5.936   0.336   1.536 -0.2593  0.6966  0.4780
   91MOL    H7229052   5.649   0.739   1.409 -0.7450 -0.9298  2.9643
   91MOL    H7329053   5.641   0.571   1.446 -1.6528  0.4328 -0.8863
   91MOL    H7429054   5.881   0.610   1.273  0.0667 -0.0512 -0.8640
   91MOL    H7529055   5.901   0.391   1.338  2.6810 -2.8302 -0.1277
   91MOL    H7629056   6.142   0.370   1.358  0.6394  0.0287  0.6424
   91MOL    H7729057   6.124   0.543   1.328 -0.1388  1.9582  2.3854
   91MOL    H7829058   6.145   0.498   1.489 -1.0784  0.9756  0.4035
   91MOL    H7929059   5.838   0.287   1.538 -0.8703  1.6237 -3.0260
   91MOL    H8029060   5.959   0.385   1.631 -0.1625 -0.4038  1.0319
   91MOL    H8129061   6.012   0.259   1.519 -2.3845 -1.3834  0.1474
   91MOL    C8229062   5.903   0.767   1.400 -0.1846 -0.6976 -0.0768
   91MOL    C8329063   5.917   0.861   1.281 -0.0593  0.2948 -0.0242
   91MOL    O8429064   5.941   0.993   1.315 -0.0940  0.1527  0.1070
   91MOL    C8529065   5.817   1.076   1.337 -0.1041  0.7992 -0.5694
   91MOL    C8629066   5.792   1.154   1.216  0.1718 -0.0466 -0.1651
   91MOL    C8729067   5.852   1.170   1.459  0.2257  0.2708 -0.2320
   91MOL    H8829068   5.848   0.825   1.474  0.5645 -1.8070  1.3879
   91MOL    H8929069   5.997   0.740   1.448 -0.2086 -0.8366 -0.1095
   91MOL    H9029070   5.828   0.860   1.218  1.0073  0.0974 -1.5643
   91MOL    H9129071   5.744   1.001   1.368  1.6463 -1.1430 -1.0616
   91MOL    H9229072   5.776   1.096   1.125 -0.5475 -0.2399  0.0835
   91MOL    H9329073   5.698   1.207   1.235  0.5381  0.9503 -1.1049
   91MOL    H9429074   5.877   1.219   1.197 -1.2718  1.4272 -1.7085
   91MOL    H9529075   5.773   1.243   1.475  0.0234 -0.1319  0.6197
   91MOL    H9629076   5.872   1.110   1.548 -1.5548  0.8346  0.5706
   91MOL    H9729077   5.940   1.229   1.435  0.4484 -0.0213 -0.1433
   91MOL    C9829078   6.040   0.827   1.194 -0.0389 -1.0996 -0.5103
   91MOL    C9929079   6.034   0.889   1.053  0.0966  0.2516  0.2219
   91MOL   O10029080   5.932   0.823   0.973  0.2073 -0.4423 -0.0754
   91MOL   C10129081   5.907   0.883   0.847  0.3014 -0.0629 -0.6122
   91MOL   C10229082   5.767   0.928   0.839  0.1135 -0.2554 -0.9476
   91MOL   C10329083   5.930   0.777   0.742 -0.2229 -0.3643 -0.3440
   91MOL   H10429084   6.122   0.868   1.252 -0.1152  0.5319 -1.5437
   91MOL   H10529085   6.059   0.720   1.184  1.7823 -0.8396 -0.0440
   91MOL   H10629086   5.997   0.992   1.051  2.5637  1.1709 -1.7797
   91MOL   H10729087   5.964   0.974   0.828  0.5260 -0.2293 -0.7303
   91MOL   H10829088   5.743   0.956   0.736  1.2726 -1.5933 -1.5913
   91MOL   H10929089   5.751   1.014   0.904 -3.7790 -2.2681  0.9386
   91MOL   H11029090   5.694   0.865   0.889  1.7664 -1.5295 -0.0898
   91MOL   H11129091   5.913   0.815   0.641  2.3872  1.0902 -0.2794
   91MOL   H11229092   5.873   0.684   0.739 -1.3676  0.3439 -0.9764
   91MOL   H11329093   6.033   0.743   0.752 -0.1366  0.0243  0.1327
   91MOL   C11429094   6.176   0.889   0.990 -0.6950 -0.5883 -0.8165
   91MOL   C11529095   6.274   0.989   1.055 -0.5207  1.0736  0.6814
   91MOL   O11629096   6.414   0.946   1.030  0.3358  0.3004  0.2557
   91MOL   C11729097   6.464   0.852   1.127  0.3211  0.0156 -0.1621
   91MOL   C11829098   6.569   0.922   1.218 -0.2307 -0.4724  0.6292
   91MOL   C11929099   6.525   0.739   1.042 -0.3009 -0.4202 -0.2792
   91MOL   H12029100   6.167   0.918   0.885  0.3004  1.6428 -0.3306
   91MOL   H12129101   6.210   0.786   0.994 -0.9710 -0.6407  0.0379
   91MOL   H12229102   6.258   0.989   1.163  0.3315  1.5865  0.8111
   91MOL   H12329103   6.386   0.819   1.196  0.1974  1.5619  0.4573
   91MOL   H12429104   6.670   0.944   1.181 -0.5014 -0.0675  0.1115
   91MOL   H12529105   6.593   0.865   1.307 -0.9983 -0.7372  0.6687
   91MOL   H12629106   6.530   1.014   1.261  0.6874  1.1084 -1.7807
   91MOL   H12729107   6.569   0.665   1.108  2.4374  0.3924 -1.1225
   91MOL   H12829108   6.601   0.779   0.975 -0.5114 -0.5958 -0.6196
   91MOL   H12929109   6.457   0.676   0.986 -1.2254  0.9692 -0.7344
   91MOL   C13029110   6.247   1.128   0.997  0.0639  0.4225 -0.4411
   91MOL   C13129111   6.340   1.237   1.047  0.2403 -0.3138 -0.1418
   91MOL   O13229112   6.272   1.326   1.139 -0.0629 -0.2592  0.2268
   91MOL   C13329113   6.254   1.289   1.279  0.4225 -0.2121  0.5470
   91MOL   C13429114   6.374   1.324   1.359  0.7548 -0.4442 -0.3573
   91MOL   C13529115   6.143   1.377   1.335 -0.1639 -0.7159  0.1938
   91MOL   H13629116   6.146   1.156   1.026 -0.1259 -0.2248 -0.4766
   91MOL   H13729117   6.259   1.127   0.889  4.1457  0.3257 -0.0728
   91MOL   H13829118   6.423   1.193   1.102  2.6964  3.8190 -0.2918
   91MOL   H13929119   6.217   1.187   1.283 -1.5249  0.4795  0.6969
   91MOL   H14029120   6.412   1.424   1.339  0.8008 -0.3940 -0.0297
   91MOL   H14129121   6.457   1.255   1.339 -0.3433 -1.7828 -0.3673
   91MOL   H14229122   6.345   1.322   1.464  0.9674  0.3574 -0.2784
   91MOL   H14329123   6.128   1.358   1.441 -1.1941 -0.8680  0.0200
   91MOL   H14429124   6.168   1.482   1.318 -0.4700 -1.4698 -5.8585
   91MOL   H14529125   6.048   1.365   1.284  0.1584  1.0874 -0.8485
   91MOL   C14629126   6.412   1.313   0.937  0.1713  0.5775 -0.0203
   91MOL   C14729127   6.497   1.252   0.823  0.4003 -0.3201 -0.4609
   91MOL   O14829128   6.548   1.353   0.740 -0.1221  0.1740  0.1855
   91MOL   C14929129   6.479   1.363   0.614  0.5251  0.2089 -0.1107
   91MOL   C15029130   6.570   1.434   0.513 -0.7957  0.0653 -0.2312
   91MOL   C15129131   6.343   1.437   0.624 -0.0457  0.4583 -0.5729
   91MOL   H15229132   6.468   1.379   1.002  2.2244 -1.6228  0.4990
   91MOL   H15329133   6.335   1.375   0.890 -3.2492 -1.8850  2.0634
   91MOL   H15429134   6.432   1.188   0.762  0.6486 -1.0543  0.0441
   91MOL   H15529135   6.467   1.262   0.575  0.1895 -0.2781  1.2246
   91MOL   H15629136   6.590   1.532   0.558 -0.0257  1.0577 -2.6335
   91MOL   H15729137   6.522   1.438   0.415 -1.8381 -0.5307  0.2512
   91MOL   H15829138   6.668   1.389   0.502 -0.1079  1.4405  0.0830
   91MOL   H15929139   6.288   1.434   0.530  1.5490 -0.5939 -1.5012
   91MOL   H16029140   6.355   1.538   0.664  0.7962  0.1792 -0.1189
   91MOL   H16129141   6.272   1.399   0.697  2.9468 -0.4992  1.9591
   91MOL   C16229142   6.623   1.180   0.871 -0.3031  0.2987  0.4530
   91MOL   C16329143   6.702   1.104   0.763 -0.2209 -0.5223  0.6290
   91MOL   O16429144   6.820   1.036   0.818  0.1876  0.5245 -0.2190
   91MOL   C16529145   6.939   1.114   0.823  0.2430  1.2096  0.3052
   91MOL   C16629146   7.033   1.021   0.742  0.4042 -0.4070 -0.7522
   91MOL   C16729147   6.995   1.125   0.964  0.0241  0.4656 -0.8014
   91MOL   H16829148   6.693   1.253   0.913  0.6138  2.0564 -3.9055
   91MOL   H16929149   6.604   1.111   0.953 -1.5144 -1.6034 -1.3752
   91MOL   H17029150   6.720   1.166   0.675 -1.7324  1.6870  1.8482
   91MOL   H17129151   6.925   1.213   0.781  0.6343  0.1820 -2.3752
   91MOL   H17229152   7.054   0.928   0.795 -3.9635 -1.3490 -0.5375
   91MOL   H17329153   7.117   1.070   0.692  0.8319 -0.8337 -0.4494
   91MOL   H17429154   6.985   0.976   0.655  1.2358 -2.6360 -0.0876
   91MOL   H17529155   7.027   1.026   0.995  0.3604  0.9671  0.5193
   91MOL   H17629156   6.929   1.174   1.037  2.3753  0.7209  1.2066
   91MOL   H17729157   7.076   1.197   0.970 -0.0495  0.6491 -1.9279
   91MOL   C17829158   6.618   0.974   0.722 -0.2723 -0.3833  0.5684
   91MOL   C17929159   6.687   0.899   0.603  0.2925  0.2953  0.2260
   91MOL   O18029160   6.599   0.795   0.571 -0.1062 -0.1799  0.2811
   91MOL   C18129161   6.590   0.681   0.655 -0.8965 -0.6477 -0.2151
   91MOL   C18229162   6.719   0.593   0.628 -0.3069 -0.6217  0.5429
   91MOL   C18329163   6.461   0.591   0.633 -0.2255  0.0906 -0.2992
   91MOL   H18429164   6.518   0.994   0.684  0.4186  0.5298 -0.8328
   91MOL   H18529165   6.600   0.911   0.809  0.8476  0.6302  1.5534
   91MOL   H18629166   6.790   0.865   0.619  0.1489 -0.7855 -1.0671
   91MOL   H18729167   6.596   0.709   0.760  1.3653 -0.7987 -0.2733
   91MOL   H18829168   6.807   0.647   0.661 -1.1732  0.0318  1.8377
   91MOL   H18929169   6.729   0.559   0.525 -1.0690 -0.7223  0.4994
   91MOL   H19029170   6.714   0.506   0.694  0.0162 -1.3128 -0.3455
   91MOL   H19129171   6.452   0.572   0.526 -1.0709  0.5057 -0.2998
   91MOL   H19229172   6.376   0.639   0.680  0.2783 -1.3890  2.2221
   91MOL   H19329173   6.475   0.498   0.688 -0.4357 -1.1116 -2.2117
   91MOL   C19429174   6.688   0.990   0.479  0.4149 -0.6525 -0.2036
   91MOL   C19529175   6.734   0.928   0.348  0.0227  0.5552  0.0579
   91MOL   O19629176   6.780   1.035   0.257  0.2934 -0.5053  0.2926
   91MOL   C19729177   6.893   0.998   0.180  0.2439 -0.5858 -0.0241
   91MOL   C19829178   6.875   1.092   0.067  0.3874  0.4095 -0.2755
   91MOL   C19929179   7.019   1.019   0.254 -0.6836  0.4942  0.3744
   91MOL   H20029180   6.594   1.043   0.463 -0.8856 -1.2580  4.5036
   91MOL   H20129181   6.760   1.069   0.500 -2.0200  0.7780  3.2789
   91MOL   H20229182   6.814   0.863   0.383 -0.1140  0.9499  1.1127
   91MOL   H20329183   6.875   0.897   0.142  0.7197 -0.9730  0.7601
   91MOL   H20429184   6.798   1.048   0.004  1.2274 -0.4099 -0.7337
   91MOL   H20529185   6.854   1.190   0.110 -0.1377 -0.1156  0.6927
   91MOL   H20629186   6.961   1.103   0.001 -0.4961 -2.3841 -1.9384
   91MOL   H20729187   7.039   1.119   0.293 -2.5999  0.9459  0.2210
   91MOL   H20829188   7.023   0.945   0.335  0.5255  0.1300  0.0001
   91MOL   H20929189   7.097   0.997   0.181  0.0362  0.8063  1.0431
   91MOL   C21029190   6.633   0.842   0.270  0.5686  0.2285 -0.0543
   91MOL   C21129191   6.502   0.910   0.230  0.2405  1.3423 -0.0182
   91MOL   O21229192   6.538   1.024   0.143 -0.0333 -0.1987  0.1442
   91MOL   C21329193   6.440   1.120   0.110 -0.5944 -0.1141  0.0676
   91MOL   C21429194   6.451   1.237   0.209 -0.0113  0.0491  0.0633
   91MOL   C21529195   6.476   1.165   7.789 -0.8764 -0.2821 -0.5327
   91MOL   H21629196   6.620   0.758   0.338 -0.4200 -0.1834 -0.7283
   91MOL   H21729197   6.679   0.795   0.183 -0.2818  2.5884 -1.8421
   91MOL   H21829198   6.447   0.946   0.316 -1.0647  0.9029 -0.6497
   91MOL   H21929199   6.338   1.081   0.111 -0.8708  0.5723 -0.2602
   91MOL   H22029200   6.446   1.204   0.312  1.0010  0.1264  0.1465
   91MOL   H22129201   6.378   1.315   0.191 -0.1386 -0.0014  0.3647
   91MOL   H22229202   6.551   1.278   0.196 -0.6326  1.7761  0.7012
   91MOL   H22329203   6.571   1.219   7.787  0.3254 -2.3849 -1.3278
   91MOL   H22429204   6.412   1.239   7.742  1.7862  1.9275 -0.7980
   91MOL   H22529205   6.474   1.077   7.725 -1.6342 -0.0323 -0.8585
   91MOL   C22629206   6.393   0.814   0.164 -0.5233  0.0544  0.5537
   91MOL   C22729207   6.335   0.711   0.264  0.0293 -0.5128 -0.2608
   91MOL   O22829208   6.246   0.619   0.206  0.1939  0.6551  0.6919
   91MOL   C22929209   6.296   0.497   0.158  0.0123  1.0237 -0.9684
   91MOL   C23029210   6.181   0.437   0.084 -0.3106  0.1431 -0.3148
   91MOL   C23129211   6.343   0.406   0.276 -0.1887  0.1628  0.2203
   91MOL   H23229212   6.439   0.782   0.071  0.9207  3.2342  0.1154
   91MOL   H23329213   6.317   0.874   0.114  0.1094  0.3151 -0.1049
   91MOL   H23429214   6.420   0.661   0.310  0.1414 -0.6766 -0.6440
   91MOL   H23529215   6.381   0.514   0.093  1.0038 -1.1296 -0.3083
   91MOL   H23629216   6.154   0.500   7.820 -0.9661 -2.1473 -1.8713
   91MOL   H23729217   6.204   0.336   0.049  1.4564 -0.2889  1.9628
   91MOL   H23829218   6.090   0.421   0.142 -0.1675 -2.0568 -0.6411
   91MOL   H23929219   6.369   0.306   0.242 -1.5384 -0.2150  0.2756
   91MOL   H24029220   6.271   0.404   0.359 -1.7565  0.4701 -1.1100
   91MOL   H24129221   6.434   0.443   0.324 -1.2607  1.3693  1.3618
   91MOL   C24229222   6.256   0.769   0.383 -0.3470 -0.3901  0.4086
   91MOL   C24329223   6.126   0.843   0.335 -0.4938 -0.5163  0.3867
   91MOL   O24429224   6.085   0.923   0.446 -0.4468  0.0011  0.4340
   91MOL   C24529225   6.153   1.046   0.455  0.3030  0.2721 -0.0932
   91MOL   C24629226   6.074   1.156   0.382  0.1203 -0.0846  0.5185
   91MOL   C24729227   6.171   1.070   0.610 -0.4998 -0.2117 -0.1313
   91MOL   H24829228   6.248   0.679   0.445  2.8479 -0.1536  1.2770
   91MOL   H24929229   6.316   0.835   0.445  0.1323 -2.1002  1.8191
   91MOL   H25029230   6.154   0.912   0.256  1.4056 -0.9413  0.6648
   91MOL   H25129231   6.254   1.040   0.415  0.4796 -1.6822  0.5854
   91MOL   H25229232   6.136   1.243   0.404  0.5467 -0.5157  1.0373
   91MOL   H25329233   6.070   1.144   0.274 -0.7701 -0.8517  0.6287
   91MOL   H25429234   5.978   1.172   0.430  0.4257  0.1133  1.0710
   91MOL   H25529235   6.072   1.105   0.638 -0.3957 -1.1662  1.4646
   91MOL   H25629236   6.198   0.981   0.666 -1.2364  0.5914  1.5061
   91MOL   H25729237   6.251   1.144   0.618  2.1817 -2.7989 -1.6889
   91MOL   C25829238   6.000   0.755   0.304 -0.1671 -0.1705  0.4645
   91MOL   C25929239   5.919   0.813   0.189  0.4449  0.6354 -0.0690
   91MOL   O26029240   5.793   0.752   0.205 -0.9111 -0.4815  0.9011
   91MOL   C26129241   5.684   0.840   0.234 -0.0316 -0.3798 -0.1944
   91MOL   C26229242   5.562   0.815   0.147 -0.2446 -0.1263 -0.2076
   91MOL   C26329243   5.651   0.843   0.380 -0.5507  0.2758 -0.0328
   91MOL   H26429244   6.021   0.651   0.277 -1.9686 -0.2699 -0.6170
   91MOL   H26529245   5.949   0.742   0.399  0.3341 -1.9167  0.5088
   91MOL   H26629246   5.922   0.922   0.201 -0.5331  0.6620 -0.0933
   91MOL   H26729247   5.719   0.942   0.221 -0.6044 -0.2934 -1.0719
   91MOL   H26829248   5.542   0.708   0.145 -0.9105 -0.0362  1.2645
   91MOL   H26929249   5.574   0.838   0.041  1.4615  0.8762  0.1781
   91MOL   H27029250   5.475   0.866   0.188  1.1793  1.2430  1.1920
   91MOL   H27129251   5.616   0.750   0.426  0.0252  0.6336  1.1410
   91MOL   H27229252   5.744   0.870   0.429 -0.1544  0.3426 -0.8112
   91MOL   H27329253   5.589   0.927   0.411 -1.7271 -0.9494  1.0111
   91MOL   C27429254   5.990   0.783   0.050  0.1186  0.2423 -0.3821
   91MOL   C27529255   5.923   0.854   7.752 -0.0231 -0.2388  0.4394
   91MOL   O27629256   5.962   0.995   7.761 -0.7909 -0.7288 -0.1088
   91MOL   C27729257   5.860   1.080   7.713 -0.0290  0.4462 -0.2168
   91MOL   C27829258   5.922   1.197   7.641  0.2350 -0.5382  0.2615
   91MOL   C27929259   5.770   1.109   0.011  0.3829  0.6707  0.3270
   91MOL   H28029260   6.096   0.806   0.059 -0.0113  0.4757  0.6020
   91MOL   H28129261   5.996   0.677   0.025  2.0255  0.1600  0.3765
   91MOL   H28229262   5.816   0.833   7.754 -0.0989  0.1924  1.1563
   91MOL   H28329263   5.807   1.033   7.630 -2.4573  1.1929  0.8876
   91MOL   H28429264   5.950   1.183   7.537  0.6320  1.7275  0.0433
   91MOL   H28529265   5.841   1.266   7.619  0.9603  0.0292 -0.6951
   91MOL   H28629266   6.003   1.249   7.693 -2.3116  2.8951  0.9675
   91MOL   H28729267   5.707   1.023   0.032  1.2074 -0.1817 -0.6323
   91MOL   H28829268   5.698   1.186   7.804  0.0071  0.8997  1.9361
   91MOL   H28929269   5.821   1.138   0.103  0.6161 -0.1618  0.4665
   91MOL   C29029270   5.986   0.804   7.619  0.5525 -0.9138  0.5681
   91MOL   C29129271   5.931   0.671   7.559 -0.1251  0.4469 -0.9877
   91MOL   O29229272   5.789   0.684   7.543  0.1374  0.5867 -0.1845
   91MOL   C29329273   5.704   0.576   7.583 -0.4019 -0.8863  0.4620
   91MOL   C29429274   5.562   0.605   7.533  0.2099 -0.3259 -0.5194
   91MOL   C29529275   5.711   0.569   7.739  0.2623 -0.2452  0.8714
   91MOL   H29629276   6.092   0.795   7.643  0.7203 -1.7786 -0.4905
   91MOL   H29729277   5.979   0.874   7.535 -1.8471 -2.0851 -0.2567
   91MOL   H29829278   5.971   0.593   7.625 -1.2216 -1.7846 -2.8969
   91MOL   H29929279   5.735   0.479   7.545 -0.7974 -0.5832 -0.6424
   91MOL   H30029280   5.552   0.574   7.429 -3.0085  1.4013 -0.8054
   91MOL   H30129281   5.479   0.558   7.586 -0.1328 -0.9209 -1.5578
   91MOL   H30229282   5.540   0.711   7.521  0.9953 -0.0250  0.6119
   91MOL   H30329283   5.674   0.471   7.771  0.5771 -1.5466 -2.5317
   91MOL   H30429284   5.813   0.577   7.776 -0.0533  0.7767  1.5298
   91MOL   H30529285   5.649   0.645   7.785 -1.0578  0.3697 -1.8218
   91MOL   C30629286   5.989   0.647   7.415 -0.5816  0.1704  0.4419
   91MOL   C30729287   5.935   0.526   7.337  0.6561 -0.0662 -0.1828
   91MOL   O30829288   6.014   0.509   7.220 -0.0033 -0.8296 -0.0061
   91MOL   C30929289   5.980   0.405   7.129 -0.3293  0.6882  0.3143
   91MOL   C31029290   5.869   0.446   7.034 -0.2353 -0.4528 -0.1762
   91MOL   C31129291   6.104   0.364   7.051 -0.2369 -1.0600  0.6667
   91MOL   H31229292   6.092   0.614   7.428 -1.5089 -1.9548  2.8825
   91MOL   H31329293   5.994   0.734   7.349 -0.7885  0.5457  0.9203
   91MOL   H31429294   5.946   0.431   7.388 -0.5787  0.2743  0.7548
   91MOL   H31529295   5.946   0.316   7.182 -0.1808 -0.4483 -1.4712
   91MOL   H31629296   5.780   0.477   7.088 -0.5581 -2.2567  0.3513
   91MOL   H31729297   5.826   0.370   6.969 -0.3003 -0.9396  0.4389
   91MOL   H31829298   5.898   0.543   6.991 -2.3766 -0.5598 -1.9814
   91MOL   H31929299   6.077   0.293   6.972  1.5669 -1.0025 -0.0348
   91MOL   H32029300   6.183   0.317   7.109 -0.7822 -1.0739  1.3939
   91MOL   H32129301   6.148   0.445   6.992  0.3355 -1.2902  0.7685
   91MOL   H32229302   5.829   0.538   7.314  0.7463  0.4382 -0.3595
   92MOL     C129303   4.577   6.299   3.257  0.4871 -0.3954 -0.4725
   92MOL     C229304   4.662   6.181   3.320 -0.7886 -0.5197 -0.4724
   92MOL     O329305   4.617   6.054   3.264 -0.2505  0.0582  0.6050
   92MOL     C429306   4.559   5.972   3.366 -0.3501  0.8602  0.3029
   92MOL     C529307   4.558   5.834   3.299  0.9440 -0.0980  0.1632
   92MOL     C629308   4.417   6.035   3.388  0.0356 -0.6438  0.5644
   92MOL     H729309   4.623   6.393   3.288  0.4380 -1.0041  1.5172
   92MOL     H829310   4.570   6.309   3.149  1.2609 -0.3551 -0.5209
   92MOL     H929311   4.652   6.197   3.428 -1.1162  1.6477 -0.8048
   92MOL    H1029312   4.627   5.963   3.450  1.1873  3.1640 -0.6517
   92MOL    H1129313   4.513   5.767   3.372 -1.7589  0.9919 -0.4633
   92MOL    H1229314   4.500   5.832   3.207  2.7309 -2.6710 -0.9833
   92MOL    H1329315   4.658   5.791   3.284  0.6722 -1.4566  2.0565
   92MOL    H1429316   4.374   6.068   3.294 -0.2676 -0.5889  0.7222
   92MOL    H1529317   4.347   5.965   3.435 -0.0643 -2.4590 -2.1904
   92MOL    H1629318   4.412   6.115   3.462  0.5717 -0.9424  0.9319
   92MOL    H1729319   4.479   6.292   3.306 -0.2314  2.2722 -1.4238
   92MOL    C1829320   4.811   6.203   3.304 -0.2627 -0.1566 -0.6400
   92MOL    C1929321   4.902   6.125   3.395 -0.1913  0.7087  0.6997
   92MOL    O2029322   4.849   6.129   3.525  0.3381 -0.5397  0.1056
   92MOL    C2129323   4.913   6.054   3.627 -0.7383  0.0685 -0.3636
   92MOL    C2229324   4.807   5.981   3.704  0.3067  0.1229  0.0422
   92MOL    C2329325   4.986   6.161   3.713 -0.4572  0.0427 -0.1119
   92MOL    H2429326   4.815   6.184   3.197  0.6875 -0.8766 -0.4827
   92MOL    H2529327   4.832   6.309   3.313  1.5422 -0.5737  0.1709
   92MOL    H2629328   4.888   6.024   3.355  2.6386 -0.1967  1.9170
   92MOL    H2729329   4.991   5.992   3.582 -1.7302 -0.4075 -1.4637
   92MOL    H2829330   4.848   5.940   3.796  2.0911 -2.3547 -1.7587
   92MOL    H2929331   4.726   6.051   3.721  0.9917  0.4258  2.1709
   92MOL    H3029332   4.760   5.899   3.650 -0.9233  1.6108 -1.2037
   92MOL    H3129333   5.086   6.172   3.670 -0.1920 -1.5241  0.0903
   92MOL    H3229334   5.015   6.122   3.810  0.1758 -0.3892 -0.4731
   92MOL    H3329335   4.932   6.256   3.711  0.0815  0.3666  0.3457
   92MOL    C3429336   5.048   6.165   3.371  0.2050  0.3054 -0.9742
   92MOL    C3529337   5.100   6.124   3.228  0.0500 -0.7743 -0.1693
   92MOL    O3629338   5.194   6.224   3.192 -0.7333  0.6057  0.4622
   92MOL    C3729339   5.143   6.343   3.137  0.0555  0.4525  1.4148
   92MOL    C3829340   5.234   6.464   3.156  0.0434 -0.0956 -0.2532
   92MOL    C3929341   5.132   6.312   2.989 -0.0326  0.2746  0.0543
   92MOL    H4029342   5.110   6.145   3.459  2.7542  3.4866 -1.9708
   92MOL    H4129343   5.060   6.272   3.383  3.3377  0.0541 -1.4848
   92MOL    H4229344   5.028   6.120   3.146 -0.6810  1.0967  0.3618
   92MOL    H4329345   5.051   6.376   3.185 -1.7532  0.4288 -1.8787
   92MOL    H4429346   5.181   6.549   3.113 -1.6819 -0.4837  1.0370
   92MOL    H4529347   5.331   6.457   3.108 -0.3980 -2.0978 -0.9057
   92MOL    H4629348   5.247   6.481   3.263 -1.4986 -0.9165  0.0882
   92MOL    H4729349   5.070   6.227   2.960 -0.3935  0.9336 -1.1209
   92MOL    H4829350   5.094   6.398   2.935 -0.1380  0.6454  0.7065
   92MOL    H4929351   5.229   6.285   2.948  0.2779 -0.1830  1.0570
   92MOL    C5029352   5.172   5.983   3.247 -0.4572 -0.1175 -0.2240
   92MOL    C5129353   5.244   5.919   3.122 -0.3010 -0.3928 -0.1064
   92MOL    O5229354   5.261   5.771   3.145  0.4913  0.2316  0.0655
   92MOL    C5329355   5.194   5.697   3.049 -0.2059 -1.0310  0.0585
   92MOL    C5429356   5.047   5.683   3.079  0.5630  0.2089  0.2168
   92MOL    C5529357   5.259   5.560   3.026 -0.0699  0.5660 -0.0394
   92MOL    H5629358   5.244   6.003   3.326 -0.4402  2.8351 -0.9087
   92MOL    H5729359   5.097   5.910   3.276 -1.7113  1.1320 -0.2900
   92MOL    H5829360   5.183   5.941   3.035 -0.6441 -0.1131  0.2032
   92MOL    H5929361   5.193   5.744   2.951  1.7858  0.2572  0.6148
   92MOL    H6029362   5.033   5.618   3.165 -1.3963 -0.0254 -0.2474
   92MOL    H6129363   5.004   5.634   2.991  0.7477 -0.1990  0.3545
   92MOL    H6229364   5.001   5.781   3.091 -0.3216  0.0777 -1.8928
   92MOL    H6329365   5.254   5.507   3.121 -0.5458  2.2409  0.8919
   92MOL    H6429366   5.358   5.570   2.983 -1.0048  1.5167 -2.0635
   92MOL    H6529367   5.193   5.500   2.963 -2.4094  2.0378  0.9227
   92MOL    C6629368   5.378   5.979   3.092  0.0041 -0.8987  0.0353
   92MOL    C6729369   5.460   5.920   2.976  0.5602  0.0544 -0.4181
   92MOL    O6829370   5.575   6.003   2.951  0.2466  0.3248 -0.1851
   92MOL    C6929371   5.652   6.059   3.062  0.0868 -0.3503 -0.3615
   92MOL    C7029372   5.722   5.957   3.165  0.2467 -0.2401  0.1961
   92MOL    C7129373   5.749   6.145   2.982  0.1210 -0.0187 -0.4167
   92MOL    H7229374   5.344   6.081   3.077  1.8807 -0.3705 -0.7536
   92MOL    H7329375   5.429   5.981   3.188 -2.3611 -0.2123  1.3159
   92MOL    H7429376   5.488   5.816   2.991  0.8248  0.1983  0.0994
   92MOL    H7529377   5.586   6.130   3.113  0.6199 -0.6565  0.7549
   92MOL    H7629378   5.652   5.896   3.222 -0.9145 -0.1598 -1.0975
   92MOL    H7729379   5.801   5.904   3.112  1.1919  1.5435 -0.2076
   92MOL    H7829380   5.759   6.019   3.246 -1.9034  2.0923 -0.5280
   92MOL    H7929381   5.704   6.205   2.903  2.9792 -0.0235 -2.1348
   92MOL    H8029382   5.821   6.075   2.938 -0.1413 -0.4787 -0.1170
   92MOL    H8129383   5.802   6.214   3.047  0.2667 -0.4543 -0.0704
   92MOL    C8229384   5.385   5.941   2.843  0.3832  0.4346 -0.2747
   92MOL    C8329385   5.450   5.869   2.721 -0.1309  0.1270  0.0483
   92MOL    O8429386   5.467   5.728   2.748  0.5179  0.2677  0.3766
   92MOL    C8529387   5.561   5.652   2.671  0.1825 -0.2238 -0.3044
   92MOL    C8629388   5.563   5.503   2.707 -0.2318 -0.7853  0.1490
   92MOL    C8729389   5.701   5.709   2.669  0.0733 -0.8663 -0.7326
   92MOL    H8829390   5.279   5.917   2.852  0.8467 -1.2951  0.8938
   92MOL    H8929391   5.387   6.047   2.820  2.9611  0.7212  1.0467
   92MOL    H9029392   5.551   5.910   2.717  0.4854 -1.1117  2.0562
   92MOL    H9129393   5.514   5.649   2.572 -0.3984 -1.5452  0.0025
   92MOL    H9229394   5.467   5.453   2.694 -0.8113 -0.5831  3.2759
   92MOL    H9329395   5.644   5.464   2.645 -0.1024  0.4915 -0.5130
   92MOL    H9429396   5.588   5.487   2.811  0.9430 -2.0146 -0.3185
   92MOL    H9529397   5.776   5.644   2.625  0.2310 -1.6385  0.6453
   92MOL    H9629398   5.698   5.804   2.615  0.3526 -0.6773 -0.4210
   92MOL    H9729399   5.733   5.743   2.768 -1.4354  3.2166 -1.5595
   92MOL    C9829400   5.374   5.888   2.592  0.1832 -0.2101  0.0426
   92MOL    C9929401   5.411   6.024   2.522 -0.7201 -0.2952  0.2278
   92MOL   O10029402   5.298   6.085   2.459  0.3577  0.0140  0.0135
   92MOL   C10129403   5.200   6.163   2.543 -0.9171 -0.0493 -0.4945
   92MOL   C10229404   5.057   6.126   2.526  0.2515  0.0366  0.4974
   92MOL   C10329405   5.217   6.312   2.502 -0.2614 -0.0059  0.0220
   92MOL   H10429406   5.404   5.811   2.522  0.1765  0.5462 -0.8141
   92MOL   H10529407   5.267   5.870   2.608  0.3219 -0.4228  0.7499
   92MOL   H10629408   5.449   6.094   2.597  2.3817  0.4701 -1.9618
   92MOL   H10729409   5.232   6.142   2.645 -0.6920 -0.7278 -0.6991
   92MOL   H10829410   5.042   6.021   2.552 -0.8094  0.1198  0.2459
   92MOL   H10929411   5.024   6.145   2.423 -0.1830  0.0907  0.6454
   92MOL   H11029412   4.989   6.174   2.596  1.2514  1.4592  0.5063
   92MOL   H11129413   5.320   6.344   2.520 -0.3092 -0.1441  0.5407
   92MOL   H11229414   5.151   6.375   2.561  2.0639  1.8806  0.6953
   92MOL   H11329415   5.188   6.321   2.397  0.8485  0.4127 -0.2575
   92MOL   C11429416   5.523   5.994   2.424 -0.2156 -0.1233 -0.4120
   92MOL   C11529417   5.588   6.124   2.375  0.1744 -0.1612 -0.0362
   92MOL   O11629418   5.698   6.156   2.456  0.1835 -0.3579  0.5891
   92MOL   C11729419   5.747   6.289   2.443  0.3330  0.6648 -0.7443
   92MOL   C11829420   5.894   6.278   2.414  0.9682 -1.4848  0.2712
   92MOL   C11929421   5.713   6.370   2.566  0.3080 -0.3059  1.0556
   92MOL   H12029422   5.490   5.932   2.341  0.6506  0.8024 -1.4581
   92MOL   H12129423   5.591   5.923   2.471  0.4519  0.1267 -0.9835
   92MOL   H12229424   5.525   6.213   2.367  2.3652  1.2692 -1.9929
   92MOL   H12329425   5.716   6.338   2.350  0.2390  1.1548 -0.4550
   92MOL   H12429426   5.912   6.234   2.316 -1.4172  1.2870 -1.4809
   92MOL   H12529427   5.937   6.202   2.480  1.7924 -1.5144 -0.2856
   92MOL   H12629428   5.947   6.373   2.425 -1.4770 -0.0985  0.3789
   92MOL   H12729429   5.605   6.375   2.574  0.2557  0.8103 -0.1591
   92MOL   H12829430   5.752   6.471   2.554 -0.5696  0.0312  1.0016
   92MOL   H12929431   5.753   6.324   2.657  3.1434  0.3227  0.1971
   92MOL   C13029432   5.635   6.107   2.226  0.3492  0.0503 -0.0901
   92MOL   C13129433   5.529   6.084   2.112 -0.0020  0.8447  0.3033
   92MOL   O13229434   5.571   5.986   2.017 -0.2891  0.4595  0.5336
   92MOL   C13329435   5.563   5.853   2.057 -0.0543  0.6239  0.6040
   92MOL   C13429436   5.414   5.793   2.044  0.5782 -0.5815  0.2647
   92MOL   C13529437   5.681   5.787   1.982 -0.2705  0.3863  0.9854
   92MOL   H13629438   5.708   6.026   2.222  0.0088 -0.2576 -0.0883
   92MOL   H13729439   5.701   6.189   2.198 -1.0751  0.8126 -1.2531
   92MOL   H13829440   5.431   6.056   2.149 -0.9225 -0.2911 -2.8549
   92MOL   H13929441   5.600   5.835   2.158 -3.1250  1.0303  1.8512
   92MOL   H14029442   5.345   5.849   2.108  2.4178  0.0299  1.7597
   92MOL   H14129443   5.408   5.687   2.069 -2.1090 -0.3649  0.7111
   92MOL   H14229444   5.382   5.809   1.941  2.6944  1.8585 -0.0705
   92MOL   H14329445   5.664   5.781   1.874 -0.6403 -0.4636  1.0864
   92MOL   H14429446   5.780   5.825   2.005 -0.1878  0.9573 -0.2874
   92MOL   H14529447   5.683   5.683   2.013 -1.2941  0.2679  0.6706
   92MOL   C14629448   5.501   6.227   2.050  0.0131  0.8190  0.1043
   92MOL   C14729449   5.377   6.229   1.959 -0.0239 -0.4856 -0.2456
   92MOL   O14829450   5.268   6.237   2.044 -0.4926  0.1045 -0.1824
   92MOL   C14929451   5.157   6.153   2.017 -0.2234  0.0820 -0.2805
   92MOL   C15029452   5.055   6.196   1.915 -0.8282 -0.5397 -0.0855
   92MOL   C15129453   5.108   6.127   2.164  0.3093  0.0495 -0.2988
   92MOL   H15229454   5.592   6.234   1.989  0.4831  0.8008  0.8013
   92MOL   H15329455   5.504   6.313   2.117 -0.0876  0.4443  0.5905
   92MOL   H15429456   5.371   6.138   1.899 -1.2313 -0.3613 -0.3272
   92MOL   H15529457   5.200   6.056   1.990  1.2439  1.0151 -1.3431
   92MOL   H15629458   5.018   6.296   1.936  0.9764 -0.4971  3.1806
   92MOL   H15729459   4.968   6.131   1.907 -0.3516 -1.2070  0.0928
   92MOL   H15829460   5.096   6.195   1.813  0.5941 -2.9159  0.4641
   92MOL   H15929461   5.186   6.076   2.220  0.5452 -0.2340 -0.8721
   92MOL   H16029462   5.014   6.073   2.167 -0.2243  1.0088  0.2593
   92MOL   H16129463   5.080   6.224   2.204 -1.4326 -0.7874  0.5314
   92MOL   C16229464   5.371   6.346   1.854 -0.2198  0.2427  0.0830
   92MOL   C16329465   5.478   6.338   1.738  0.1043 -0.1595 -0.0071
   92MOL   O16429466   5.426   6.240   1.657 -0.4204  0.3194  0.5730
   92MOL   C16529467   5.510   6.154   1.588  0.0952  0.3051 -0.6060
   92MOL   C16629468   5.426   6.131   1.460 -0.3487 -0.1929 -0.4663
   92MOL   C16729469   5.543   6.024   1.668  0.2919  0.2516 -0.6150
   92MOL   H16829470   5.274   6.343   1.805 -0.3559 -0.8065  0.3983
   92MOL   H16929471   5.374   6.445   1.899 -2.1957  0.3172  0.0938
   92MOL   H17029472   5.568   6.289   1.774 -0.7545 -0.8087  1.2774
   92MOL   H17129473   5.605   6.203   1.566 -0.0083  1.6082  1.6840
   92MOL   H17229474   5.473   6.058   1.394  2.2111  1.7833 -0.8942
   92MOL   H17329475   5.408   6.224   1.406 -2.8921 -0.0823  0.5196
   92MOL   H17429476   5.324   6.098   1.479 -1.1213  0.4807 -3.1340
   92MOL   H17529477   5.605   6.050   1.754  0.0177  1.9552 -0.9145
   92MOL   H17629478   5.603   5.951   1.614  0.5997 -1.5425  2.0234
   92MOL   H17729479   5.457   5.969   1.706  0.9344 -0.4928 -0.2040
   92MOL   C17829480   5.510   6.461   1.650 -0.2913 -0.3551  0.1400
   92MOL   C17929481   5.554   6.588   1.727 -0.2306  0.6862 -0.5129
   92MOL   O18029482   5.664   6.539   1.807 -0.0649 -0.5947  0.4693
   92MOL   C18129483   5.709   6.620   1.919  0.3812 -0.2367  0.5127
   92MOL   C18229484   5.848   6.566   1.955 -0.0682  0.2896  0.7298
   92MOL   C18329485   5.624   6.594   2.036  0.3346  0.0496  0.2325
   92MOL   H18429486   5.420   6.486   1.595 -0.6026 -1.4386  0.1499
   92MOL   H18529487   5.585   6.433   1.576  0.8965  0.5141  0.9924
   92MOL   H18629488   5.466   6.606   1.788  1.3339  0.6695  1.8077
   92MOL   H18729489   5.719   6.726   1.896 -0.2327 -0.5707 -1.4083
   92MOL   H18829490   5.920   6.566   1.873 -1.5079  0.0214 -0.5740
   92MOL   H18929491   5.834   6.464   1.990  1.2113  0.5303  1.9640
   92MOL   H19029492   5.893   6.623   2.036 -1.2931  0.7636  1.0899
   92MOL   H19129493   5.662   6.638   2.129 -0.4889  0.6716  0.2752
   92MOL   H19229494   5.629   6.490   2.067  2.5098  0.3156  0.8824
   92MOL   H19329495   5.520   6.626   2.035 -0.1451 -1.4879 -0.2864
   92MOL   C19429496   5.592   6.698   1.622  0.8189  0.7683  0.6835
   92MOL   C19529497   5.566   6.838   1.669 -0.2753  0.1477  0.1930
   92MOL   O19629498   5.433   6.839   1.717 -0.2061  0.8611 -0.0200
   92MOL   C19729499   5.412   6.903   1.842 -0.3236 -0.8111 -0.6309
   92MOL   C19829500   5.478   7.040   1.861  0.2267 -0.5861 -0.4420
   92MOL   C19929501   5.257   6.914   1.846 -0.7803  0.5549  0.3654
   92MOL   H20029502   5.689   6.680   1.576  0.9150  1.4556  0.6128
   92MOL   H20129503   5.528   6.674   1.537  0.9702 -1.0227  1.0718
   92MOL   H20229504   5.640   6.855   1.747 -0.2458  0.2791  0.1372
   92MOL   H20329505   5.468   6.844   1.914  0.5017  1.4455  0.6325
   92MOL   H20429506   5.586   7.038   1.849  0.1988 -0.9870 -0.6469
   92MOL   H20529507   5.442   7.109   1.786  1.5431 -1.6505 -2.0833
   92MOL   H20629508   5.464   7.093   1.955  0.3883 -0.4826 -0.4764
   92MOL   H20729509   5.216   6.975   1.765 -1.8385 -0.4800  0.1082
   92MOL   H20829510   5.208   6.817   1.855 -1.9967  1.2362  1.2953
   92MOL   H20929511   5.227   6.966   1.937  1.6445 -2.2965  2.8642
   92MOL   C21029512   5.571   6.947   1.565  0.2453 -0.3116  0.4255
   92MOL   C21129513   5.707   7.020   1.560  0.5855  0.4713 -0.2924
   92MOL   O21229514   5.802   6.929   1.505 -0.4511  0.0491 -0.4989
   92MOL   C21329515   5.938   6.926   1.551  0.2509  0.6698  0.1797
   92MOL   C21429516   5.945   6.871   1.695  0.4651  0.0383 -0.4158
   92MOL   C21529517   6.021   6.828   1.465 -0.0767  0.3704  0.1594
   92MOL   H21629518   5.497   7.026   1.575  0.3770 -0.1447  0.1066
   92MOL   H21729519   5.547   6.904   1.468 -0.4159 -0.4920  0.6705
   92MOL   H21829520   5.729   7.048   1.664 -1.2330  0.8851  0.0027
   92MOL   H21929521   5.982   7.025   1.543 -0.3980  1.0765  1.4585
   92MOL   H22029522   5.861   6.803   1.707 -1.1108  2.3039  2.0380
   92MOL   H22129523   5.930   6.944   1.775 -4.1014 -0.0622 -1.0950
   92MOL   H22229524   6.040   6.821   1.716  0.4722 -0.2166 -1.0530
   92MOL   H22329525   6.017   6.866   1.363 -0.8960  1.5906  0.6329
   92MOL   H22429526   5.969   6.732   1.468  1.3051 -0.4341 -1.2226
   92MOL   H22529527   6.122   6.799   1.490 -0.0320 -0.2164 -0.6907
   92MOL   C22629528   5.704   7.137   1.460 -0.5313 -0.6207 -0.2846
   92MOL   C22729529   5.799   7.258   1.482 -0.5613  0.2810  0.0336
   92MOL   O22829530   5.779   7.307   1.617  0.3687  0.1662  0.8398
   92MOL   C22929531   5.882   7.372   1.692  0.4410 -0.3884  0.9282
   92MOL   C23029532   5.966   7.260   1.756  0.0397 -0.9480 -0.0763
   92MOL   C23129533   5.825   7.470   1.800  0.8024 -0.3391  1.4058
   92MOL   H23229534   5.606   7.184   1.460  0.4583  1.4598 -0.2617
   92MOL   H23329535   5.722   7.097   1.360 -1.5638  0.2507 -0.8305
   92MOL   H23429536   5.905   7.233   1.486 -0.8823 -1.4436 -1.4582
   92MOL   H23529537   5.945   7.428   1.622  0.5684 -0.2117  1.1857
   92MOL   H23629538   6.028   7.307   1.832 -0.8005 -1.3138  0.8415
   92MOL   H23729539   5.907   7.190   1.815  0.0198 -1.1783 -0.3688
   92MOL   H23829540   6.032   7.211   1.684 -1.7469 -0.8917 -1.7961
   92MOL   H23929541   5.770   7.558   1.766 -2.4243 -2.6337  0.4083
   92MOL   H24029542   5.903   7.511   1.863 -0.0903  2.1397  0.9503
   92MOL   H24129543   5.752   7.417   1.863 -1.0174  0.0944 -0.2813
   92MOL   C24229544   5.761   7.377   1.383  0.8057  0.3448  0.6558
   92MOL   C24329545   5.834   7.359   1.249  0.3094 -0.1485  0.3344
   92MOL   O24429546   5.974   7.371   1.263 -0.2309  0.6501  0.0774
   92MOL   C24529547   6.057   7.257   1.249  0.7021 -0.4206  0.2379
   92MOL   C24629548   6.099   7.228   1.107  0.1410 -0.6537  0.1774
   92MOL   C24729549   6.175   7.292   1.338 -0.0375 -0.5411  0.0569
   92MOL   H24829550   5.654   7.375   1.365  1.0158 -1.2360 -0.4932
   92MOL   H24929551   5.780   7.468   1.440  0.8184  0.1038  1.0347
   92MOL   H25029552   5.810   7.261   1.208  1.4171 -0.5913  0.7218
   92MOL   H25129553   5.994   7.174   1.280 -2.2691  1.2047 -1.1586
   92MOL   H25229554   6.011   7.223   1.043  0.0388 -0.8182  0.3328
   92MOL   H25329555   6.151   7.314   1.063  1.5938 -0.7452  1.6573
   92MOL   H25429556   6.163   7.141   1.093  1.0934 -0.2543  1.8821
   92MOL   H25529557   6.134   7.295   1.439 -1.3672  1.6502 -0.5110
   92MOL   H25629558   6.247   7.210   1.331 -0.5060 -0.6624 -4.7846
   92MOL   H25729559   6.236   7.379   1.312  1.5681 -0.8883  2.4639
   92MOL   C25829560   5.778   7.468   1.155  0.4685  0.1675 -0.1015
   92MOL   C25929561   5.796   7.448   1.004 -0.1990  0.3146  1.3972
   92MOL   O26029562   5.762   7.564   0.939 -0.5275 -0.0574  0.3438
   92MOL   C26129563   5.868   7.661   0.929  0.2278  0.3248 -0.3559
   92MOL   C26229564   5.941   7.629   0.795 -0.3988  0.2653  0.0445
   92MOL   C26329565   5.808   7.804   0.932 -0.2746 -0.0300  0.1746
   92MOL   H26429566   5.671   7.470   1.174 -0.0303  0.5321 -2.8061
   92MOL   H26529567   5.815   7.569   1.179 -1.0694  0.9156 -0.8575
   92MOL   H26629568   5.900   7.416   0.991 -1.0521 -1.3098 -2.0533
   92MOL   H26729569   5.936   7.647   1.013  0.5161  0.3260 -0.5888
   92MOL   H26829570   5.964   7.523   0.789 -0.1354  0.4078 -1.6456
   92MOL   H26929571   6.033   7.687   0.788  0.9400 -2.1788 -4.7385
   92MOL   H27029572   5.876   7.643   0.708  0.2143 -1.9641 -0.7985
   92MOL   H27129573   5.772   0.017   1.029 -0.0229  0.1849  0.1925
   92MOL   H27229574   5.881   0.062   0.912  0.2873 -0.2776  1.2420
   92MOL   H27329575   5.719   7.815   0.870 -0.4624  0.1078  0.4679
   92MOL   C27429576   5.687   7.349   0.958 -0.1906 -0.8684 -0.5849
   92MOL   C27529577   5.674   7.303   0.807  0.4970  0.0513  0.0667
   92MOL   O27629578   5.751   7.185   0.798  0.3633  0.4682 -0.5892
   92MOL   C27729579   5.808   7.137   0.675  0.0871 -0.1780 -0.3903
   92MOL   C27829580   5.754   6.999   0.640 -0.1909  0.1091 -0.0169
   92MOL   C27929581   5.956   7.135   0.706  0.2545  0.3542  0.0447
   92MOL   H28029582   5.674   7.269   1.031  0.0562 -0.6624 -0.3149
   92MOL   H28129583   5.602   7.409   0.988  1.6666  0.5453  2.0153
   92MOL   H28229584   5.731   7.376   0.751  2.6195 -0.7681  1.0871
   92MOL   H28329585   5.781   7.215   0.603  3.0863  0.2491 -1.1238
   92MOL   H28429586   5.771   6.919   0.711  0.4489  0.9632  0.8020
   92MOL   H28529587   5.646   7.014   0.632 -0.2017  0.9788  1.4905
   92MOL   H28629588   5.794   6.961   0.546  2.0826  0.3895  0.7964
   92MOL   H28729589   5.991   7.057   0.774  1.3140 -0.4788 -1.4256
   92MOL   H28829590   5.992   7.227   0.751 -0.8514  1.0978 -0.5742
   92MOL   H28929591   6.014   7.118   0.616 -0.2631  0.8310 -0.3819
   92MOL   C29029592   5.523   7.288   0.755 -0.2713 -0.2018  0.2624
   92MOL   C29129593   5.421   7.222   0.854  1.0747 -0.5020  0.7880
   92MOL   O29229594   5.300   7.204   0.782 -0.5435  0.2125  0.4580
   92MOL   C29329595   5.208   7.319   0.780 -0.0014  0.0945  1.2297
   92MOL   C29429596   5.138   7.351   0.916 -0.7878  0.7849  0.8113
   92MOL   C29529597   5.105   7.283   0.671  0.4862 -0.6805  0.0718
   92MOL   H29629598   5.518   7.240   0.658  0.3504 -0.4673  0.3584
   92MOL   H29729599   5.493   7.387   0.721 -2.9894 -0.5110  1.6249
   92MOL   H29829600   5.416   7.284   0.943 -1.1347 -0.0648  0.3952
   92MOL   H29929601   5.260   7.408   0.745  3.6937 -2.6758 -0.6970
   92MOL   H30029602   5.061   7.277   0.938  0.5723 -1.5624 -2.0472
   92MOL   H30129603   5.204   7.345   1.003  0.1437 -2.1631 -0.0467
   92MOL   H30229604   5.087   7.446   0.903 -0.3478  0.7559 -1.3413
   92MOL   H30329605   5.013   7.340   0.663 -0.5374 -2.2834  0.0731
   92MOL   H30429606   5.146   7.292   0.571  0.5787  0.8916  0.2468
   92MOL   H30529607   5.072   7.180   0.689  0.1451 -0.5260  0.3318
   92MOL   C30629608   5.467   7.081   0.895  0.3863  0.2333  0.0258
   92MOL   C30729609   5.355   6.995   0.947  0.2155 -0.1392  0.1071
   92MOL   O30829610   5.411   6.888   1.022 -0.7721 -0.0101  0.1560
   92MOL   C30929611   5.342   6.809   1.115 -0.5776  0.7867  1.1138
   92MOL   C31029612   5.309   6.886   1.243 -0.2731 -0.0579 -0.2933
   92MOL   C31129613   5.225   6.745   1.046  0.2495 -0.4808  0.4348
   92MOL   H31229614   5.540   7.100   0.974  0.3517 -0.9768  0.3674
   92MOL   H31329615   5.512   7.012   0.823  0.4314 -1.3083  1.4895
   92MOL   H31429616   5.287   7.043   1.018  2.0948  0.8236  1.3019
   92MOL   H31529617   5.414   6.732   1.144 -0.6573  0.3149  0.0785
   92MOL   H31629618   5.228   6.958   1.232 -0.0673  0.3529  0.7477
   92MOL   H31729619   5.396   6.941   1.279  1.1572 -3.0912  1.0925
   92MOL   H31829620   5.287   6.812   1.320 -1.1116 -0.1393 -0.6095
   92MOL   H31929621   5.254   6.685   0.960  0.2819 -0.6188  0.5421
   92MOL   H32029622   5.139   6.808   1.022  0.1359 -0.0311  1.9458
   92MOL   H32129623   5.177   6.677   1.117 -2.0859  1.1629  0.5054
   92MOL   H32229624   5.301   6.956   0.861 -0.2778 -1.1387  0.8554
   93MOL     C129625   5.553   2.437   5.065  0.4154 -0.2241 -0.2518
   93MOL     C229626   5.486   2.352   4.947 -0.0701  0.8019  0.1706
   93MOL     O329627   5.490   2.214   4.977  0.3549  0.9388  0.1040
   93MOL     C429628   5.612   2.146   4.946 -0.0127  0.6897  0.2708
   93MOL     C529629   5.560   2.011   4.894 -0.2528 -0.4488  0.0066
   93MOL     C629630   5.693   2.122   5.074 -0.5083  0.0388  0.3120
   93MOL     H729631   5.660   2.427   5.081  0.3865 -1.7695 -0.9208
   93MOL     H829632   5.525   2.541   5.049  1.4413  0.2756  1.1962
   93MOL     H929633   5.544   2.376   4.858 -0.7129  3.9586  0.5334
   93MOL    H1029634   5.657   2.194   4.860 -0.1524 -1.6914 -1.1662
   93MOL    H1129635   5.634   1.932   4.877 -1.2233 -0.8179 -2.8298
   93MOL    H1229636   5.484   1.969   4.960 -0.5158 -1.3443 -0.8516
   93MOL    H1329637   5.516   2.027   4.795  0.9468 -0.3855 -0.5246
   93MOL    H1429638   5.773   2.050   5.053  0.0399  1.1365 -1.4701
   93MOL    H1529639   5.737   2.200   5.135  0.1937 -0.2033  0.1204
   93MOL    H1629640   5.626   2.066   5.140 -1.3422 -1.3645 -1.6347
   93MOL    H1729641   5.508   2.406   5.159  0.0514  3.9719  1.0407
   93MOL    C1829642   5.346   2.381   4.912 -0.5236 -0.7186 -0.0039
   93MOL    C1929643   5.296   2.319   4.783  0.1725  0.0900  0.9857
   93MOL    O2029644   5.339   2.397   4.666 -0.2918  0.2061  0.4873
   93MOL    C2129645   5.366   2.323   4.545  0.0406 -0.2973 -0.4963
   93MOL    C2229646   5.518   2.342   4.517 -0.0713 -0.0153 -0.2672
   93MOL    C2329647   5.268   2.372   4.430 -0.3563 -0.8905  0.6714
   93MOL    H2429648   5.286   2.356   4.999 -0.2473  0.6095  0.5765
   93MOL    H2529649   5.327   2.488   4.901  3.4194  0.0257 -0.4931
   93MOL    H2629650   5.328   2.215   4.769 -1.2384 -0.1252 -0.7969
   93MOL    H2729651   5.335   2.219   4.553  1.1466 -0.5410  0.7492
   93MOL    H2829652   5.555   2.313   4.419 -1.5032  1.5348 -1.2885
   93MOL    H2929653   5.544   2.448   4.511 -0.5717  0.2481  1.8722
   93MOL    H3029654   5.590   2.301   4.588  0.0115 -1.1277 -0.9847
   93MOL    H3129655   5.289   2.475   4.399  2.5864 -0.9253  2.4193
   93MOL    H3229656   5.165   2.390   4.464 -0.4513  1.4770 -0.7420
   93MOL    H3329657   5.253   2.306   4.345 -2.1234 -1.3993  1.3386
   93MOL    C3429658   5.141   2.308   4.770 -0.4199  0.0248 -0.4361
   93MOL    C3529659   5.064   2.219   4.868  0.7141 -0.6789  0.2970
   93MOL    O3629660   5.062   2.268   4.999 -0.1627  0.3490  0.4937
   93MOL    C3729661   5.062   2.181   5.115 -0.7001  1.0328  0.4355
   93MOL    C3829662   5.209   2.138   5.148  0.1041 -0.0216  0.0887
   93MOL    C3929663   4.980   2.245   5.225 -0.3676 -0.1795 -0.3103
   93MOL    H4029664   5.112   2.286   4.667 -0.5441  1.1764 -0.6527
   93MOL    H4129665   5.094   2.405   4.785 -0.2305 -0.1497  1.3410
   93MOL    H4229666   5.123   2.128   4.871 -0.4399 -1.4804 -0.6905
   93MOL    H4329667   5.026   2.081   5.090 -0.2230  0.7972  0.6888
   93MOL    H4429668   5.267   2.218   5.195  0.5121 -0.2624  0.0019
   93MOL    H4529669   5.263   2.113   5.057  0.6922 -2.0236  0.9552
   93MOL    H4629670   5.198   2.051   5.213  1.0386  0.1735  0.5095
   93MOL    H4729671   4.978   2.173   5.306 -0.3574 -0.9093 -0.9601
   93MOL    H4829672   5.030   2.340   5.250 -1.0473  0.0363  0.2333
   93MOL    H4929673   4.879   2.273   5.198 -0.5701 -0.3290  0.2848
   93MOL    C5029674   4.927   2.166   4.822 -0.1833 -0.0687  0.4968
   93MOL    C5129675   4.920   2.035   4.737 -0.2580  0.2219 -0.2544
   93MOL    O5229676   5.021   2.058   4.636 -0.3574 -0.6742  0.0943
   93MOL    C5329677   5.077   1.943   4.582  0.2513  0.4186  0.0977
   93MOL    C5429678   5.204   1.909   4.658 -0.0416  0.2703 -0.0397
   93MOL    C5529679   5.086   1.962   4.437 -0.6657 -0.5647 -0.7012
   93MOL    H5629680   4.861   2.151   4.908 -1.8808  1.6234 -0.4746
   93MOL    H5729681   4.868   2.249   4.783 -1.0259  0.3107  2.5339
   93MOL    H5829682   4.948   1.956   4.806  1.4320  0.3967 -0.7328
   93MOL    H5929683   5.013   1.857   4.600  0.9002 -0.3638 -1.2885
   93MOL    H6029684   5.286   1.978   4.640 -0.2497  0.3512 -0.7061
   93MOL    H6129685   5.238   1.811   4.625 -1.0062 -1.5970  4.1844
   93MOL    H6229686   5.187   1.906   4.765  0.7068  0.2283  0.0742
   93MOL    H6329687   5.144   2.050   4.409 -0.4598 -0.5338 -0.1928
   93MOL    H6429688   4.989   1.980   4.392 -2.3312  0.8513  3.1731
   93MOL    H6529689   5.137   1.873   4.399  1.9044 -0.0592  1.3839
   93MOL    C6629690   4.781   2.005   4.675  0.1490  0.7718 -0.0419
   93MOL    C6729691   4.670   1.951   4.780 -0.0554  0.2327  0.3980
   93MOL    O6829692   4.706   1.813   4.799  0.2185 -0.1734 -0.6247
   93MOL    C6929693   4.759   1.784   4.923  0.6512 -0.7404 -1.1733
   93MOL    C7029694   4.647   1.720   5.003 -0.0096 -0.8286 -0.5074
   93MOL    C7129695   4.860   1.665   4.911  0.3156  0.6669 -0.7093
   93MOL    H7229696   4.738   2.085   4.615  0.2696  0.2428 -0.8347
   93MOL    H7329697   4.803   1.934   4.595 -1.1315  0.6191 -0.2642
   93MOL    H7429698   4.666   2.011   4.870 -1.8383 -1.0933  1.2287
   93MOL    H7529699   4.787   1.875   4.977  0.7165 -2.5587  1.9444
   93MOL    H7629700   4.688   1.656   5.081  0.9398  0.0262 -0.2882
   93MOL    H7729701   4.586   1.790   5.059  0.7011  0.7832 -1.6834
   93MOL    H7829702   4.577   1.663   4.943  0.6452  0.8510 -2.9575
   93MOL    H7929703   4.798   1.592   4.859 -0.8276 -1.4891  3.4714
   93MOL    H8029704   4.913   1.616   4.993  1.7317  0.5551 -1.6840
   93MOL    H8129705   4.928   1.697   4.832 -1.5277  0.9107 -2.2547
   93MOL    C8229706   4.531   1.946   4.721  0.5830 -0.0316 -0.8679
   93MOL    C8329707   4.449   2.075   4.697 -0.4732  0.2316  0.4641
   93MOL    O8429708   4.501   2.124   4.572 -0.2935 -0.5187  0.3562
   93MOL    C8529709   4.478   2.256   4.532  0.4995 -0.0726  0.1590
   93MOL    C8629710   4.515   2.268   4.385  0.0294 -0.2243  0.1041
   93MOL    C8729711   4.565   2.348   4.628  0.2274 -0.4737  0.0219
   93MOL    H8829712   4.514   1.887   4.631 -0.1744 -0.7972 -0.2349
   93MOL    H8929713   4.469   1.902   4.799  0.0518 -0.5130 -1.5480
   93MOL    H9029714   4.483   2.144   4.775 -0.3796  0.2345  0.4207
   93MOL    H9129715   4.373   2.284   4.534  0.7313  0.9163 -0.9606
   93MOL    H9229716   4.466   2.191   4.325 -2.7108  2.2843 -1.0107
   93MOL    H9329717   4.485   2.364   4.342 -1.4544 -1.0699 -0.7609
   93MOL    H9429718   4.624   2.262   4.382  0.1179  0.9910  0.7052
   93MOL    H9529719   4.572   2.448   4.585 -3.1774 -1.1381 -2.3951
   93MOL    H9629720   4.530   2.364   4.730  0.3467  2.1347 -0.3153
   93MOL    H9729721   4.673   2.335   4.636  0.2751  1.6494  4.0197
   93MOL    C9829722   4.295   2.037   4.701  0.9547 -0.2169  0.4323
   93MOL    C9929723   4.224   2.072   4.834  0.3730 -0.4191 -0.1912
   93MOL   O10029724   4.285   1.989   4.940  0.2291 -0.1502 -0.0799
   93MOL   C10129725   4.293   2.046   5.073 -0.8380  0.3487  0.4522
   93MOL   C10229726   4.427   2.106   5.101 -0.3571 -0.1306 -0.2811
   93MOL   C10329727   4.271   1.939   5.174  0.1297  0.5251 -0.2133
   93MOL   H10429728   4.242   2.086   4.619  0.2644  1.5468  1.9042
   93MOL   H10529729   4.271   1.936   4.668 -0.8703 -0.0996  1.3088
   93MOL   H10629730   4.240   2.177   4.857 -2.1747  0.1130 -0.6363
   93MOL   H10729731   4.211   2.117   5.087 -2.6234 -1.4339 -0.7350
   93MOL   H10829732   4.510   2.035   5.110  0.0647  0.5495  1.3421
   93MOL   H10929733   4.419   2.153   5.199  1.4613 -2.1722  0.9051
   93MOL   H11029734   4.455   2.188   5.035 -1.2047  0.6828  0.3561
   93MOL   H11129735   4.174   1.898   5.144  0.7300 -0.6844 -0.5078
   93MOL   H11229736   4.252   1.985   5.271 -0.5369 -1.3753  0.5687
   93MOL   H11329737   4.345   1.861   5.185 -0.7837 -0.4507 -0.9170
   93MOL   C11429738   4.073   2.043   4.830 -0.0617 -0.5796 -0.0714
   93MOL   C11529739   3.979   2.149   4.766  0.2457 -0.2926 -0.0316
   93MOL   O11629740   3.851   2.076   4.765  0.2609  0.2889  0.0147
   93MOL   C11729741   3.796   2.056   4.632  0.6961  0.1149  0.0955
   93MOL   C11829742   3.654   2.012   4.647 -0.5642 -0.6034 -0.2413
   93MOL   C11929743   3.872   1.949   4.561  0.4966 -0.3341 -0.3673
   93MOL   H12029744   4.027   2.029   4.928  1.0252  0.7249  0.6401
   93MOL   H12129745   4.053   1.949   4.778 -0.0041  0.0509 -1.2475
   93MOL   H12229746   4.007   2.175   4.664  0.9866 -1.9018 -0.2480
   93MOL   H12329747   3.787   2.151   4.579  2.2643  0.1359 -0.1646
   93MOL   H12429748   3.605   2.100   4.688  1.4102 -0.0117  0.9605
   93MOL   H12529749   3.650   1.932   4.721  2.3279  0.5871  1.2936
   93MOL   H12629750   3.623   1.978   4.548  1.6966 -2.0063 -0.5168
   93MOL   H12729751   3.899   1.866   4.627 -0.0337 -0.7799 -0.7124
   93MOL   H12829752   3.964   1.997   4.528  1.4240 -2.2064 -0.5732
   93MOL   H12929753   3.829   1.896   4.477  1.1069 -0.9791 -0.2799
   93MOL   C13029754   3.958   2.280   4.850 -0.0311 -0.3153  0.0385
   93MOL   C13129755   3.953   2.406   4.766 -0.4615 -0.3105 -0.4757
   93MOL   O13229756   4.092   2.423   4.715 -0.3626  0.5893 -0.0859
   93MOL   C13329757   4.091   2.485   4.592  0.1897 -0.3285 -0.0353
   93MOL   C13429758   4.225   2.552   4.574 -0.1082 -0.2342  0.1732
   93MOL   C13529759   4.049   2.392   4.480  0.0633  0.4554 -0.5154
   93MOL   H13629760   4.044   2.295   4.915  1.3427  0.2971 -1.8731
   93MOL   H13729761   3.872   2.279   4.918 -0.2901  1.8274 -0.2323
   93MOL   H13829762   3.875   2.384   4.693 -1.5398 -0.5091  0.7260
   93MOL   H13929763   4.022   2.569   4.595  2.3860  1.5320 -0.8333
   93MOL   H14029764   4.231   2.587   4.471  2.3028  1.4481  0.8430
   93MOL   H14129765   4.311   2.488   4.594 -0.3282 -1.1682 -1.7797
   93MOL   H14229766   4.221   2.640   4.638  0.6658  1.9129 -2.6335
   93MOL   H14329767   3.961   2.332   4.503  0.1256  0.0976 -1.1898
   93MOL   H14429768   4.024   2.439   4.384  0.5194  1.2368 -0.2617
   93MOL   H14529769   4.133   2.325   4.461 -1.3464 -0.6418 -3.1908
   93MOL   C14629770   3.922   2.526   4.854  0.2401  0.2474  0.1593
   93MOL   C14729771   3.779   2.548   4.910  0.3104 -0.4631  0.5773
   93MOL   O14829772   3.751   2.452   5.018  0.1292 -0.8618  0.7224
   93MOL   C14929773   3.616   2.418   5.046 -0.0015  0.2357 -0.2290
   93MOL   C15029774   3.597   2.399   5.196 -0.6748  0.3900 -1.5300
   93MOL   C15129775   3.586   2.281   4.985  0.0924 -0.7566 -0.4023
   93MOL   H15229776   3.938   2.616   4.794 -0.6893  1.5754  1.8610
   93MOL   H15329777   3.998   2.519   4.931 -0.9604 -0.7066  1.2812
   93MOL   H15429778   3.720   2.530   4.820 -1.0646  0.4988  1.2688
   93MOL   H15529779   3.549   2.498   5.016  1.2381  1.3569 -0.0786
   93MOL   H15629780   3.608   2.497   5.242 -0.3031 -0.4528  0.1963
   93MOL   H15729781   3.655   2.323   5.249 -3.1411 -0.3414  0.1958
   93MOL   H15829782   3.495   2.371   5.223  0.1935 -1.4386  0.0062
   93MOL   H15929783   3.483   2.251   5.003 -0.5885  2.1002  0.8038
   93MOL   H16029784   3.645   2.209   5.042  0.3522  0.0552  0.3736
   93MOL   H16129785   3.602   2.275   4.878  2.1691 -0.8389 -0.1097
   93MOL   C16229786   3.748   2.693   4.971  0.2525  0.0349 -0.1063
   93MOL   C16329787   3.811   2.726   5.107 -0.9792  0.6738  0.1133
   93MOL   O16429788   3.953   2.717   5.084  0.0711 -0.1378  0.1454
   93MOL   C16529789   4.030   2.690   5.205 -0.4284  0.2000  0.7322
   93MOL   C16629790   4.174   2.742   5.174 -0.1995 -0.4497 -0.0559
   93MOL   C16729791   4.038   2.538   5.231 -0.3520  0.4549 -0.2634
   93MOL   H16829792   3.783   2.769   4.901 -1.5017  0.8665 -0.1129
   93MOL   H16929793   3.640   2.710   4.963  0.4671  1.3583 -0.4150
   93MOL   H17029794   3.773   2.658   5.183  0.3160 -2.5226 -1.9770
   93MOL   H17129795   3.995   2.749   5.290 -3.7944  1.6540 -1.5566
   93MOL   H17229796   4.202   2.705   5.075 -2.1753 -1.3027 -0.3112
   93MOL   H17329797   4.239   2.698   5.250 -1.9749  1.8166  2.8524
   93MOL   H17429798   4.187   2.850   5.181 -2.1329 -0.1962 -0.0956
   93MOL   H17529799   4.082   2.485   5.147 -3.8176 -1.2019 -1.1138
   93MOL   H17629800   3.938   2.503   5.257 -0.8756  2.2767  0.2500
   93MOL   H17729801   4.093   2.518   5.322  0.6615  1.7157 -0.5839
   93MOL   C17829802   3.784   2.871   5.147 -0.5046 -0.4927  0.4016
   93MOL   C17929803   3.634   2.901   5.163 -0.0888  0.4058 -0.4607
   93MOL   O18029804   3.625   2.997   5.267  0.4640  0.0562 -0.3455
   93MOL   C18129805   3.586   2.939   5.393  0.5427 -0.3317  0.0486
   93MOL   C18229806   3.437   2.908   5.398  0.0910  0.1636 -0.2114
   93MOL   C18329807   3.635   3.041   5.502 -0.1831  0.2620  0.1529
   93MOL   H18429808   3.833   2.940   5.078 -1.4838 -0.0520  0.1383
   93MOL   H18529809   3.832   2.882   5.244 -1.3912 -0.4686  0.8408
   93MOL   H18629810   3.576   2.810   5.178 -0.6326  0.7516 -0.4564
   93MOL   H18729811   3.642   2.847   5.406 -1.6527 -2.0456 -2.2196
   93MOL   H18829812   3.394   2.908   5.498 -1.1306  2.0295 -0.7181
   93MOL   H18929813   3.431   2.801   5.377  1.9000 -0.1519  0.8302
   93MOL   H19029814   3.373   2.956   5.324  1.3980  1.5791 -0.4591
   93MOL   H19129815   3.655   2.991   5.597  2.5434  1.2509  0.1234
   93MOL   H19229816   3.557   3.114   5.526 -1.1178 -0.8753  0.6287
   93MOL   H19329817   3.725   3.089   5.465  0.1484 -1.1061 -0.8472
   93MOL   C19429818   3.582   2.972   5.033 -0.6175 -0.1911  0.5191
   93MOL   C19529819   3.429   2.971   5.009  1.0523  0.2561  0.1213
   93MOL   O19629820   3.386   2.838   4.995  0.0292  0.5417 -0.5461
   93MOL   C19729821   3.261   2.789   5.037 -0.1152 -1.2996 -0.2511
   93MOL   C19829822   3.160   2.797   4.922 -0.4132  0.0452  0.1723
   93MOL   C19929823   3.279   2.659   5.098 -0.0903 -0.2778 -0.2758
   93MOL   H20029824   3.617   3.075   5.040 -1.0320 -0.1079  1.4165
   93MOL   H20129825   3.616   2.938   4.935 -1.6566 -2.1580  0.8098
   93MOL   H20229826   3.386   3.008   5.101  0.9119  0.8821 -0.1953
   93MOL   H20329827   3.214   2.856   5.109  1.0872 -0.1940 -0.4598
   93MOL   H20429828   3.063   2.756   4.951 -0.0597 -0.8356  0.1494
   93MOL   H20529829   3.151   2.892   4.869  1.4446  0.0768 -0.1099
   93MOL   H20629830   3.204   2.737   4.843  0.0805 -0.1533  0.5991
   93MOL   H20729831   3.316   2.580   5.033  1.0080  0.8631 -1.0721
   93MOL   H20829832   3.349   2.673   5.181 -3.0873  0.5902  2.1925
   93MOL   H20929833   3.195   2.634   5.163 -0.3401 -1.3967 -1.0115
   93MOL   C21029834   3.372   3.064   4.898 -0.5855  0.0556 -0.2351
   93MOL   C21129835   3.394   3.218   4.911 -0.0223  0.4534  0.4074
   93MOL   O21229836   3.396   3.272   4.779 -0.5442  0.2513 -0.2318
   93MOL   C21329837   3.504   3.237   4.694  0.2471  0.2017 -0.0599
   93MOL   C21429838   3.482   3.323   4.569  0.0559 -0.1338 -1.0638
   93MOL   C21529839   3.641   3.280   4.746 -0.2635  0.5743 -0.3198
   93MOL   H21629840   3.265   3.045   4.888 -0.9119  0.4826  2.2822
   93MOL   H21729841   3.426   3.026   4.811 -1.5491 -2.4567  0.2298
   93MOL   H21829842   3.490   3.247   4.954  2.1376 -2.2238 -2.4082
   93MOL   H21929843   3.516   3.133   4.663  3.7493  0.3895  0.4326
   93MOL   H22029844   3.524   3.421   4.592  0.0354 -0.9291  2.6146
   93MOL   H22129845   3.376   3.332   4.546  0.0913  1.0279 -0.7799
   93MOL   H22229846   3.530   3.278   4.481 -0.4631 -1.2934 -0.7660
   93MOL   H22329847   3.666   3.219   4.833 -3.2498  1.1236  0.9695
   93MOL   H22429848   3.652   3.381   4.785  1.2228 -0.2810  1.5352
   93MOL   H22529849   3.710   3.254   4.665  1.3473  0.8594  0.9347
   93MOL   C22629850   3.288   3.285   4.991  0.3912 -0.6891 -0.6964
   93MOL   C22729851   3.317   3.431   5.039 -0.0622 -0.2204  0.2863
   93MOL   O22829852   3.400   3.427   5.159 -0.2036 -0.0148  0.1526
   93MOL   C22929853   3.541   3.455   5.138  1.0283 -0.1459 -0.4302
   93MOL   C23029854   3.626   3.357   5.221  0.0578  0.2426  0.5431
   93MOL   C23129855   3.575   3.596   5.169  0.0882  0.0007 -0.4819
   93MOL   H23229856   3.278   3.228   5.084  2.6961  1.1211  0.7233
   93MOL   H23329857   3.195   3.274   4.936  0.6183 -1.1715 -0.9863
   93MOL   H23429858   3.363   3.496   4.964 -0.6015 -0.2329 -0.0600
   93MOL   H23529859   3.558   3.447   5.031 -0.3680  0.8607 -0.7538
   93MOL   H23629860   3.606   3.366   5.327 -1.1014  3.0464  0.1402
   93MOL   H23729861   3.599   3.254   5.196  0.8279  0.2243 -0.2619
   93MOL   H23829862   3.732   3.375   5.204 -0.3632  0.4659 -2.1419
   93MOL   H23929863   3.671   3.621   5.122  0.0966 -2.1865 -1.7055
   93MOL   H24029864   3.578   3.610   5.277  0.0952 -0.3167 -0.4392
   93MOL   H24129865   3.499   3.666   5.136 -0.0121 -1.5072 -3.7407
   93MOL   C24229866   3.183   3.502   5.078 -0.5516  0.1114 -0.0900
   93MOL   C24329867   3.197   3.648   5.107  0.0679  0.3660 -0.1422
   93MOL   O24429868   3.091   3.686   5.196 -0.1545 -0.1118 -0.3464
   93MOL   C24529869   3.102   3.645   5.328  0.3186 -0.0752  0.6552
   93MOL   C24629870   3.113   3.779   5.415  0.0659 -0.4726  0.6184
   93MOL   C24729871   2.979   3.554   5.364 -0.0471  0.0269  0.0912
   93MOL   H24829872   3.105   3.478   5.006 -1.1837 -1.0434  0.9599
   93MOL   H24929873   3.146   3.438   5.158  0.9475  0.9936  1.3407
   93MOL   H25029874   3.291   3.667   5.159 -0.0278  2.4949 -0.7040
   93MOL   H25129875   3.197   3.595   5.349  0.6301  0.4179  0.4433
   93MOL   H25229876   3.102   3.763   5.522  2.2691 -1.4327  0.7401
   93MOL   H25329877   3.207   3.834   5.403  0.3547 -0.6022  2.2018
   93MOL   H25429878   3.026   3.842   5.397  0.3021 -0.5400 -0.8520
   93MOL   H25529879   2.976   3.518   5.467 -2.1966 -1.0288 -0.3368
   93MOL   H25629880   2.886   3.609   5.356 -0.3779 -0.3420  1.3177
   93MOL   H25729881   2.979   3.463   5.304 -0.0676  1.3143 -1.8988
   93MOL   C25829882   3.176   3.726   4.972  0.9668  0.1235 -0.6476
   93MOL   C25929883   3.158   3.871   4.970 -0.5002 -0.1036  0.2558
   93MOL   O26029884   3.143   3.912   4.843 -0.1748  0.4489  0.5823
   93MOL   C26129885   3.010   3.912   4.783 -0.7123  0.0653 -0.6122
   93MOL   C26229886   2.920   4.017   4.846  0.4895 -0.8885 -0.2168
   93MOL   C26329887   3.030   3.939   4.635  0.5857 -0.2421  0.3327
   93MOL   H26429888   3.247   3.703   4.893  0.0907 -0.6239 -1.2308
   93MOL   H26529889   3.078   3.694   4.937 -0.1598  2.2994  0.4259
   93MOL   H26629890   3.078   3.912   5.030  0.0489  1.6437 -0.1949
   93MOL   H26729891   2.964   3.813   4.787 -0.8464 -0.0145 -3.2455
   93MOL   H26829892   2.901   4.007   4.953 -0.2131 -2.1581 -0.4451
   93MOL   H26929893   2.831   4.037   4.786  1.1605 -0.6766 -1.1536
   93MOL   H27029894   2.963   4.116   4.833 -1.5290  0.0979  0.4241
   93MOL   H27129895   3.103   3.866   4.600 -0.6045 -0.4692 -1.7184
   93MOL   H27229896   2.941   3.912   4.578  1.1637  1.3087 -1.3473
   93MOL   H27329897   3.074   4.035   4.608  1.2483 -0.5769  0.2066
   93MOL   C27429898   3.292   3.943   5.005  0.2363 -0.4197  0.0336
   93MOL   C27529899   3.266   4.041   5.124  0.3788 -0.3325 -1.1100
   93MOL   O27629900   3.384   4.079   5.186 -0.8356 -0.3005  0.4930
   93MOL   C27729901   3.447   3.978   5.267  0.0877  0.4401  0.0678
   93MOL   C27829902   3.449   4.052   5.405 -0.0860 -0.7796 -1.3302
   93MOL   C27929903   3.590   3.968   5.210 -0.3968  0.2677  0.7347
   93MOL   H28029904   3.360   3.868   5.044 -0.9315 -1.3029  0.4063
   93MOL   H28129905   3.344   3.993   4.923 -0.0348  1.1110  0.7834
   93MOL   H28229906   3.209   3.985   5.198  0.8354  0.7153  0.0520
   93MOL   H28329907   3.405   3.878   5.265  2.8967 -0.7518 -2.3971
   93MOL   H28429908   3.500   4.145   5.380 -0.0433 -0.9151 -1.7563
   93MOL   H28529909   3.350   4.089   5.432  1.1156  0.9111  0.8951
   93MOL   H28629910   3.493   4.000   5.491  0.1611 -0.1759 -1.0902
   93MOL   H28729911   3.646   4.060   5.195 -1.2830  0.4836 -1.3167
   93MOL   H28829912   3.573   3.929   5.110 -0.5903  1.1491  0.4219
   93MOL   H28929913   3.640   3.893   5.271  0.9184  1.8933  1.7105
   93MOL   C29029914   3.198   4.176   5.096  0.4057  0.3893 -0.0431
   93MOL   C29129915   3.169   4.269   5.213 -0.4516 -0.5461 -0.2455
   93MOL   O29229916   3.120   4.392   5.150 -0.0598 -0.6142 -0.2516
   93MOL   C29329917   3.119   4.518   5.217  0.7511 -0.4049 -0.0832
   93MOL   C29429918   3.003   4.603   5.162  0.3719  0.0308  0.1386
   93MOL   C29529919   3.249   4.597   5.213  0.1170 -0.0605 -0.1009
   93MOL   H29629920   3.108   4.173   5.035  0.0866  2.5316  0.2582
   93MOL   H29729921   3.277   4.225   5.039  1.7741 -1.4919  0.1797
   93MOL   H29829922   3.264   4.293   5.259 -1.6574  0.6348  1.7373
   93MOL   H29929923   3.093   4.501   5.322  0.5494 -0.4469 -0.1394
   93MOL   H30029924   3.024   4.615   5.056  0.2968 -0.3030  0.0872
   93MOL   H30129925   2.906   4.553   5.167 -0.3424  1.2027 -1.5386
   93MOL   H30229926   2.996   4.698   5.215  1.1404 -0.4167  1.0485
   93MOL   H30329927   3.284   4.599   5.110 -0.6320  1.4781 -0.3381
   93MOL   H30429928   3.245   4.692   5.265 -0.1548 -1.4050  2.3995
   93MOL   H30529929   3.326   4.543   5.268  0.3982 -1.9543 -2.2546
   93MOL   C30629930   3.077   4.206   5.313  0.5271 -0.0983  0.0808
   93MOL   C30729931   2.940   4.149   5.263  0.3595 -0.4179  0.4472
   93MOL   O30829932   2.852   4.108   5.369  0.1493  0.0325 -0.4829
   93MOL   C30929933   2.723   4.055   5.328  0.7769 -0.1356  0.6121
   93MOL   C31029934   2.737   3.907   5.288 -0.2708 -0.3473  0.0654
   93MOL   C31129935   2.622   4.083   5.439  0.5940 -0.2349  0.1345
   93MOL   H31229936   3.050   4.278   5.390 -0.6169  0.8732 -1.2077
   93MOL   H31329937   3.130   4.124   5.360  3.0450  1.7659  0.6282
   93MOL   H31429938   2.894   4.224   5.199 -1.6212  0.2154  2.5148
   93MOL   H31529939   2.698   4.112   5.238 -0.8647 -1.8522 -0.0523
   93MOL   H31629940   2.788   3.905   5.192  0.3426  1.2183  0.3531
   93MOL   H31729941   2.649   3.847   5.265  0.7358 -1.5629 -0.6905
   93MOL   H31829942   2.799   3.853   5.359  2.3757 -1.3153 -2.8417
   93MOL   H31929943   2.629   4.191   5.450 -0.6286  0.1311 -2.3528
   93MOL   H32029944   2.638   4.030   5.533 -0.1494 -0.8810 -0.0978
   93MOL   H32129945   2.527   4.052   5.397  1.6645 -2.1731 -0.9308
   93MOL   H32229946   2.965   4.071   5.192  1.6943  0.9092 -0.5684
   94MOL     C129947   3.812   6.513   1.424  0.3151  0.1920 -0.4243
   94MOL     C229948   3.732   6.537   1.561 -0.6014 -0.3441  0.3046
   94MOL     O329949   3.830   6.550   1.657 -0.5176  0.2685 -0.4327
   94MOL     C429950   3.883   6.428   1.714 -0.1140  0.3217 -0.4335
   94MOL     C529951   3.819   6.403   1.852 -0.4054 -0.0218 -0.4555
   94MOL     C629952   4.033   6.449   1.733  0.4698 -0.3097 -0.1166
   94MOL     H729953   3.739   6.492   1.345 -0.9123  2.0846  0.1769
   94MOL     H829954   3.857   6.607   1.392  1.2869  0.2203  0.9648
   94MOL     H929955   3.663   6.454   1.576 -0.3223 -0.5756  0.3187
   94MOL    H1029956   3.864   6.345   1.645  2.4179 -0.7767  0.1464
   94MOL    H1129957   3.710   6.390   1.849  0.0312 -4.2754 -0.7155
   94MOL    H1229958   3.839   6.308   1.900  3.1822  1.4976  1.2219
   94MOL    H1329959   3.828   6.494   1.911 -3.1815  0.5182 -0.7552
   94MOL    H1429960   4.051   6.541   1.788  0.9846 -0.2621 -0.3647
   94MOL    H1529961   4.093   6.369   1.776 -2.0592 -1.8382  0.6480
   94MOL    H1629962   4.082   6.457   1.636 -0.7155 -0.6400 -0.7591
   94MOL    H1729963   3.894   6.442   1.430 -0.2557 -0.4793 -0.4119
   94MOL    C1829964   3.643   6.667   1.564  0.5056 -0.3796 -0.2227
   94MOL    C1929965   3.519   6.668   1.471 -0.2324  0.3955 -0.4079
   94MOL    O2029966   3.451   6.790   1.472  0.1158  0.2516 -0.5256
   94MOL    C2129967   3.513   6.903   1.411  0.0909 -0.1809  0.0702
   94MOL    C2229968   3.486   7.009   1.510  0.5668  0.1730 -0.5473
   94MOL    C2329969   3.461   6.952   1.277  0.2028 -0.6754 -0.2769
   94MOL    H2429970   3.609   6.679   1.667  1.1798 -2.1705  0.2374
   94MOL    H2529971   3.709   6.749   1.535  0.1150  0.1236  0.2882
   94MOL    H2629972   3.555   6.659   1.369 -2.1992  3.3638 -1.4420
   94MOL    H2729973   3.621   6.892   1.402  0.2623  1.3412  0.0861
   94MOL    H2829974   3.523   7.108   1.482  1.3523  1.2446  3.7848
   94MOL    H2929975   3.380   7.017   1.533  1.1617  0.7277  2.1819
   94MOL    H3029976   3.541   6.989   1.602  1.4330  0.2976 -1.0342
   94MOL    H3129977   3.476   6.880   1.197 -0.3599  2.3022 -3.1830
   94MOL    H3229978   3.514   7.040   1.239  1.1820 -0.4097  1.6476
   94MOL    H3329979   3.353   6.968   1.282  0.0593 -1.3767 -1.2269
   94MOL    C3429980   3.420   6.550   1.477  0.4755  0.6536 -0.6624
   94MOL    C3529981   3.352   6.516   1.610 -0.0156 -0.7870 -0.1105
   94MOL    O3629982   3.221   6.564   1.613 -1.2354 -0.0714  0.3000
   94MOL    C3729983   3.180   6.652   1.722  0.8852  0.5557  0.3155
   94MOL    C3829984   3.217   6.790   1.701 -0.0380 -0.4217  0.7222
   94MOL    C3929985   3.024   6.651   1.730  0.5168  0.3039  0.1703
   94MOL    H4029986   3.477   6.470   1.429  0.4903 -2.1244  3.7059
   94MOL    H4129987   3.338   6.578   1.411 -0.8567  0.6123  0.9630
   94MOL    H4229988   3.415   6.552   1.691 -0.6240  2.2936 -0.9722
   94MOL    H4329989   3.226   6.611   1.812  0.2984  2.8585  1.6954
   94MOL    H4429990   3.325   6.796   1.711 -0.0588  4.3715 -0.7285
   94MOL    H4529991   3.175   6.866   1.767  1.5797 -0.1918  1.5103
   94MOL    H4629992   3.188   6.820   1.600  1.3207  0.2573  0.5260
   94MOL    H4729993   2.986   6.708   1.646 -0.2778 -0.4559  0.0069
   94MOL    H4829994   2.984   6.550   1.723  0.3108  0.4075 -0.1661
   94MOL    H4929995   2.995   6.702   1.822  1.5116  0.2525  0.5156
   94MOL    C5029996   3.334   6.366   1.627  1.0046  0.2597  0.5534
   94MOL    C5129997   3.283   6.307   1.765  0.8580 -0.1443 -0.1791
   94MOL    O5229998   3.399   6.303   1.847  0.3394 -0.1755 -0.1511
   94MOL    C5329999   3.367   6.321   1.993 -0.2088  0.2557 -0.4946
   94MOL    C5430000   3.312   6.463   2.024 -0.2384  0.3539  0.4628
   94MOL    C5530001   3.491   6.291   2.069  0.8964  0.2534  0.1582
   94MOL    H5630002   3.265   6.317   1.558  2.8317 -0.7952 -0.5698
   94MOL    H5730003   3.421   6.305   1.604  2.1887  1.7174  1.1207
   94MOL    H5830004   3.199   6.368   1.797  2.4517  1.3866  1.2103
   94MOL    H5930005   3.291   6.249   2.022  2.2926 -1.7429  1.3419
   94MOL    H6030006   3.380   6.539   1.984  1.7462 -1.1722  0.8798
   94MOL    H6130007   3.312   6.475   2.132  2.8293 -1.7120  0.7604
   94MOL    H6230008   3.213   6.470   1.980 -0.3523 -1.4905  0.4067
   94MOL    H6330009   3.577   6.357   2.054  1.3151 -0.1254  0.8748
   94MOL    H6430010   3.527   6.196   2.031  3.9085  0.4581  2.3087
   94MOL    H6530011   3.472   6.290   2.176  2.3086 -0.9814  0.4114
   94MOL    C6630012   3.241   6.156   1.760 -0.0809  0.4959 -0.0168
   94MOL    C6730013   3.092   6.139   1.715 -0.1462 -0.1610 -0.3540
   94MOL    O6830014   3.021   6.098   1.829  0.2674  0.5593  0.2052
   94MOL    C6930015   2.893   6.144   1.831  0.3335  0.4093 -0.2319
   94MOL    C7030016   2.823   6.035   1.913  0.2214 -0.5645 -0.5447
   94MOL    C7130017   2.880   6.283   1.898  0.6724  0.2074  0.0422
   94MOL    H7230018   3.299   6.112   1.679  1.4304  1.1653  0.6865
   94MOL    H7330019   3.267   6.101   1.851 -1.3670  0.0346  0.0914
   94MOL    H7430020   3.048   6.230   1.676  1.1588  1.0438  0.9299
   94MOL    H7530021   2.844   6.139   1.734 -2.2970 -0.0939  1.0789
   94MOL    H7630022   2.725   6.072   1.943 -0.5361 -1.7816 -1.4566
   94MOL    H7730023   2.818   5.945   1.851  0.4292 -1.3691  0.5974
   94MOL    H7830024   2.877   6.025   2.007  0.7443 -0.2627 -0.8077
   94MOL    H7930025   2.970   6.341   1.878  0.4071  0.5526 -0.1351
   94MOL    H8030026   2.879   6.272   2.007  1.7119 -0.4538  0.0009
   94MOL    H8130027   2.792   6.339   1.869  2.1320  2.0112 -0.9552
   94MOL    C8230028   3.073   6.010   1.621  0.3269  0.2233 -0.7174
   94MOL    C8330029   3.127   6.030   1.477  0.8880 -0.6735 -0.2128
   94MOL    O8430030   3.226   5.928   1.457  0.3664  0.1336 -0.3627
   94MOL    C8530031   3.355   5.959   1.401  0.0892  0.1685 -0.3959
   94MOL    C8630032   3.342   6.012   1.262  1.0065 -0.2864  0.0301
   94MOL    C8730033   3.458   5.844   1.401 -0.0152  0.4577 -0.2668
   94MOL    H8830034   3.138   5.937   1.669 -0.5260 -0.4882 -0.6141
   94MOL    H8930035   2.970   5.973   1.621  0.1149  0.7976 -0.0246
   94MOL    H9030036   3.171   6.130   1.473 -2.2930  0.7443 -2.7440
   94MOL    H9130037   3.392   6.038   1.467  0.7948 -0.6533  0.2050
   94MOL    H9230038   3.308   5.936   1.192  1.9218 -0.5590 -0.1214
   94MOL    H9330039   3.284   6.103   1.249  1.1499 -0.2495 -0.3686
   94MOL    H9430040   3.439   6.043   1.222  1.3351  0.1214  1.1047
   94MOL    H9530041   3.476   5.820   1.506  0.2198  0.2381 -0.3591
   94MOL    H9630042   3.430   5.748   1.359 -0.8418  0.3534  0.4839
   94MOL    H9730043   3.552   5.878   1.358 -0.1660  1.2267  0.0006
   94MOL    C9830044   3.017   6.018   1.371 -0.2432 -0.7167  0.1454
   94MOL    C9930045   2.914   6.123   1.371  0.4573  0.6504 -0.8523
   94MOL   O10030046   2.829   6.092   1.262 -0.1087 -0.0653 -0.3436
   94MOL   C10130047   2.699   6.045   1.291  0.5156 -0.1634  0.1686
   94MOL   C10230048   2.694   5.890   1.308 -0.7621 -0.5451  0.4899
   94MOL   C10330049   2.609   6.103   1.185 -0.7655 -0.5272 -0.2721
   94MOL   H10430050   3.076   6.021   1.280 -1.4569 -0.2442 -0.6306
   94MOL   H10530051   2.975   5.918   1.375 -1.2204 -0.3037  0.4428
   94MOL   H10630052   2.853   6.133   1.461 -0.9972  1.1710 -1.8709
   94MOL   H10730053   2.661   6.091   1.382 -1.7234 -1.1932 -0.2335
   94MOL   H10830054   2.593   5.860   1.337 -1.3049  1.4337  0.7320
   94MOL   H10930055   2.769   5.851   1.376 -0.8658 -1.9386 -0.1751
   94MOL   H11030056   2.716   5.849   1.209 -1.2964 -0.0991  0.1821
   94MOL   H11130057   2.612   6.211   1.170  0.5769 -0.4009  0.8174
   94MOL   H11230058   2.504   6.086   1.211 -0.7597 -0.3104 -0.1016
   94MOL   H11330059   2.638   6.070   1.085 -0.9137 -1.9265  0.1246
   94MOL   C11430060   2.965   6.264   1.345  0.3477  0.9296  0.3513
   94MOL   C11530061   2.852   6.368   1.335  0.1241 -0.0662  0.4154
   94MOL   O11630062   2.810   6.411   1.465 -0.2347  0.0054  0.3468
   94MOL   C11730063   2.688   6.476   1.475 -0.0095  0.1529 -0.7953
   94MOL   C11830064   2.646   6.492   1.625 -0.2062  0.3371 -0.1459
   94MOL   C11930065   2.571   6.409   1.395 -0.2994  0.0443  0.3092
   94MOL   H12030066   3.021   6.259   1.252 -0.6472  0.8620 -0.2469
   94MOL   H12130067   3.031   6.290   1.428 -0.4302  2.9066  0.3580
   94MOL   H12230068   2.777   6.328   1.267  1.5487 -3.0072  0.5131
   94MOL   H12330069   2.709   6.575   1.436 -0.4589  1.9796  3.3081
   94MOL   H12430070   2.591   6.412   1.674  1.5170  1.2287  3.3714
   94MOL   H12530071   2.569   6.568   1.638 -2.5126 -1.9909  0.1644
   94MOL   H12630072   2.738   6.517   1.677  0.6142 -0.6364 -1.1038
   94MOL   H12730073   2.471   6.423   1.435 -0.9912 -0.8105 -1.0727
   94MOL   H12830074   2.596   6.304   1.402 -0.9887 -0.1757 -0.4730
   94MOL   H12930075   2.573   6.435   1.289 -0.1475  2.3877  0.8610
   94MOL   C13030076   2.915   6.489   1.267  0.1081  0.5814  0.0135
   94MOL   C13130077   2.938   6.470   1.114 -0.2221  0.8219 -0.1863
   94MOL   O13230078   3.044   6.559   1.075  0.1206  0.5701  0.3177
   94MOL   C13330079   3.178   6.516   1.101  0.3909 -0.2550 -0.1972
   94MOL   C13430080   3.204   6.386   1.023 -0.6590 -0.6779 -0.4398
   94MOL   C13530081   3.270   6.622   1.074 -0.2426 -0.2438 -0.0331
   94MOL   H13630082   3.004   6.509   1.327  0.4176  0.1951 -0.3118
   94MOL   H13730083   2.859   6.580   1.289 -0.9030 -0.2337  0.8858
   94MOL   H13830084   2.960   6.366   1.092 -0.9121  0.3498  1.2588
   94MOL   H13930085   3.193   6.485   1.205  0.5705  2.3056  0.5751
   94MOL   H14030086   3.175   6.297   1.079  2.6307 -1.1480  0.6330
   94MOL   H14130087   3.309   6.361   1.005 -0.3688 -0.4001  0.8492
   94MOL   H14230088   3.152   6.389   0.927  0.6337  1.8596 -1.1153
   94MOL   H14330089   3.260   6.648   0.969  0.1400  1.6472  0.3739
   94MOL   H14430090   3.258   6.711   1.136  0.7036 -0.4085  0.4110
   94MOL   H14530091   3.376   6.600   1.088  0.4389  0.8768 -3.0389
   94MOL   C14630092   2.805   6.517   1.034  0.3799  0.6606 -0.6289
   94MOL   C14730093   2.826   6.511   0.881  0.3996  0.3348  0.4142
   94MOL   O14830094   2.693   6.484   0.837 -0.0312  0.3154 -0.1473
   94MOL   C14930095   2.676   6.368   0.756 -0.1390 -1.2458  0.2793
   94MOL   C15030096   2.568   6.404   0.649  0.2462 -0.1265  0.1611
   94MOL   C15130097   2.659   6.235   0.837  0.3226 -0.0884 -0.0492
   94MOL   H15230098   2.792   6.622   1.061  1.5226  0.8717 -0.8942
   94MOL   H15330099   2.718   6.465   1.073 -0.1470  1.2306 -1.0299
   94MOL   H15430100   2.897   6.436   0.845 -0.3920 -0.2989  0.1666
   94MOL   H15530101   2.767   6.361   0.695 -0.7156  1.8702 -1.0396
   94MOL   H15630102   2.501   6.333   0.602  0.7230 -0.6471  0.2609
   94MOL   H15730103   2.613   6.462   0.569  0.4432 -0.0784  0.3061
   94MOL   H15830104   2.496   6.470   0.697  2.1140  2.3669 -0.3989
   94MOL   H15930105   2.736   6.220   0.912  1.6176 -0.2687 -1.4016
   94MOL   H16030106   2.646   6.153   0.767 -0.9971  0.1624 -0.1256
   94MOL   H16130107   2.562   6.225   0.888 -0.5986 -0.7955 -1.8974
   94MOL   C16230108   2.872   6.641   0.817  0.2568  0.0692 -0.0534
   94MOL   C16330109   2.923   6.623   0.670 -0.2701 -0.1245 -0.0284
   94MOL   O16430110   2.906   6.747   0.588  0.1220  0.9688 -0.6013
   94MOL   C16530111   2.784   6.746   0.516 -0.6193 -0.0943  0.0525
   94MOL   C16630112   2.815   6.655   0.385  0.5015  0.2092 -0.6780
   94MOL   C16730113   2.761   6.887   0.470  1.0026  0.0403 -0.1355
   94MOL   H16830114   2.786   6.707   0.818 -1.6699 -2.3496  0.5315
   94MOL   H16930115   2.951   6.670   0.885  0.7914 -3.5434  0.9871
   94MOL   H17030116   2.876   6.542   0.615 -0.0548  0.5738 -1.2494
   94MOL   H17130117   2.703   6.707   0.578 -1.7010  1.2656 -0.4841
   94MOL   H17230118   2.725   6.630   0.329  1.4368 -0.5873 -1.8207
   94MOL   H17330119   2.876   6.566   0.401  1.0763  0.5079 -1.2056
   94MOL   H17430120   2.877   6.720   0.324  0.3469 -1.2987 -2.4669
   94MOL   H17530121   2.732   6.959   0.547 -0.1150 -0.5800  0.0478
   94MOL   H17630122   2.684   6.883   0.393  0.4243  0.0569  0.4277
   94MOL   H17730123   2.851   6.933   0.430  0.5433  0.2769 -0.9105
   94MOL   C17830124   3.082   6.599   0.668 -0.2686 -0.4902 -0.1121
   94MOL   C17930125   3.139   6.495   0.572 -0.0356 -0.1304  0.4528
   94MOL   O18030126   3.276   6.493   0.565 -0.6496 -0.3596  0.6105
   94MOL   C18130127   3.333   6.576   0.461 -0.8690  0.9505  0.0998
   94MOL   C18230128   3.481   6.514   0.442 -0.0226  0.1377 -0.0233
   94MOL   C18330129   3.335   6.726   0.498  0.1093 -0.5600 -0.0437
   94MOL   H18430130   3.111   6.564   0.767  2.7306 -0.7944 -1.0507
   94MOL   H18530131   3.138   6.691   0.656  1.8979 -1.9675 -1.8047
   94MOL   H18630132   3.095   6.519   0.475 -0.1452 -3.3390 -0.3513
   94MOL   H18730133   3.281   6.562   0.366  1.9489 -0.6100 -1.2750
   94MOL   H18830134   3.528   6.510   0.540 -2.4524 -0.1823  1.1462
   94MOL   H18930135   3.541   6.562   0.364  0.3546  3.4684  2.2022
   94MOL   H19030136   3.472   6.410   0.410 -1.5910  0.3825 -0.4264
   94MOL   H19130137   3.236   6.766   0.478  1.3581  3.2392  0.8925
   94MOL   H19230138   3.386   6.795   0.431  0.9026 -0.5896  0.5194
   94MOL   H19330139   3.369   6.748   0.600  0.6500  1.7476 -0.6996
   94MOL   C19430140   3.104   6.353   0.613 -0.4997 -0.3255  0.3189
   94MOL   C19530141   3.141   6.238   0.515  0.9541  0.4707  0.0934
   94MOL   O19630142   3.064   6.268   0.389 -0.4197 -0.1455 -0.0746
   94MOL   C19730143   3.142   6.319   0.284  0.1034 -0.1457  0.1596
   94MOL   C19830144   3.214   6.209   0.204 -1.0432 -1.0906 -0.4700
   94MOL   C19930145   3.057   6.412   0.194  0.5857  0.5571 -0.3876
   94MOL   H20030146   3.155   6.331   0.707 -0.9716 -1.0351  0.4088
   94MOL   H20130147   2.999   6.338   0.637 -0.7012 -0.7353 -0.8240
   94MOL   H20230148   3.250   6.235   0.501  0.6642  0.4873 -2.5095
   94MOL   H20330149   3.217   6.380   0.335  0.5003 -2.2770  2.2162
   94MOL   H20430150   3.155   6.117   0.199  0.3297 -2.0506  0.6517
   94MOL   H20530151   3.259   6.237   0.109 -0.4891 -1.7029 -0.3921
   94MOL   H20630152   3.301   6.178   0.262 -1.5680 -1.9747 -0.1379
   94MOL   H20730153   2.976   6.358   0.144  0.8803  0.5495 -0.8551
   94MOL   H20830154   3.015   6.499   0.246  0.8654 -0.3024  1.3104
   94MOL   H20930155   3.125   6.459   0.123 -0.5086 -0.3013 -2.0379
   94MOL   C21030156   3.088   6.094   0.550  0.5591  0.5374 -0.0596
   94MOL   C21130157   3.163   6.032   0.669 -0.0266  0.3878 -0.5697
   94MOL   O21230158   3.079   5.932   0.730  0.2436  0.3997  0.5627
   94MOL   C21330159   3.102   5.916   0.871  0.1501  0.3087  0.2581
   94MOL   C21430160   2.997   6.005   0.938 -0.3114 -0.3455  0.0884
   94MOL   C21530161   3.074   5.768   0.906 -0.7005  0.5227 -0.0323
   94MOL   H21630162   3.088   6.033   0.460 -1.9039  1.5109 -0.7846
   94MOL   H21730163   2.982   6.107   0.572  0.6495 -0.2578  0.8734
   94MOL   H21830164   3.167   6.110   0.744  1.2699 -0.4251  0.2270
   94MOL   H21930165   3.204   5.934   0.906 -0.1165  0.5200  0.9448
   94MOL   H22030166   3.007   6.109   0.908 -1.2509 -0.3555 -0.2859
   94MOL   H22130167   3.010   5.995   1.046 -2.4020  1.6687  0.5620
   94MOL   H22230168   2.898   5.971   0.907 -0.2156 -0.9502  0.4220
   94MOL   H22330169   2.969   5.748   0.887 -0.4554  1.2868 -2.2449
   94MOL   H22430170   3.093   5.742   1.011  1.9300 -1.1552 -0.8630
   94MOL   H22530171   3.129   5.710   0.832  0.2135  0.2061  0.8763
   94MOL   C22630172   3.298   5.975   0.633  0.7006 -0.1846 -0.6790
   94MOL   C22730173   3.417   6.070   0.666 -0.0239  0.0115  0.0675
   94MOL   O22830174   3.537   6.004   0.632 -0.5786  0.0078  0.3251
   94MOL   C22930175   3.576   5.956   0.503  0.0916 -0.2905 -0.3076
   94MOL   C23030176   3.701   5.867   0.512  0.2459  0.2061 -0.5955
   94MOL   C23130177   3.594   6.077   0.411  0.6100 -0.0661  0.8056
   94MOL   H23230178   3.285   5.942   0.530 -3.1154  2.5220 -1.1379
   94MOL   H23330179   3.311   5.883   0.691 -1.7161 -0.1595 -0.0531
   94MOL   H23430180   3.417   6.160   0.605 -0.2463  1.0936  1.6584
   94MOL   H23530181   3.496   5.889   0.470  0.0269  0.2189 -1.1848
   94MOL   H23630182   3.749   5.849   0.415  1.2748 -1.1358  0.1427
   94MOL   H23730183   3.781   5.906   0.575 -0.9826  1.1087  0.4311
   94MOL   H23830184   3.666   5.772   0.552  0.2374  0.2333 -0.5364
   94MOL   H23930185   3.620   6.046   0.309  1.9641 -0.9243  1.3899
   94MOL   H24030186   3.680   6.129   0.454  1.8669 -1.1394 -0.3491
   94MOL   H24130187   3.507   6.140   0.395  0.4935 -0.0457  1.5024
   94MOL   C24230188   3.425   6.109   0.820 -0.1752 -0.3494 -0.1162
   94MOL   C24330189   3.553   6.193   0.860 -0.0528 -0.0173 -0.4019
   94MOL   O24430190   3.564   6.182   0.998  0.7719 -0.2067  0.0699
   94MOL   C24530191   3.687   6.159   1.066 -0.4256 -0.0879  0.2318
   94MOL   C24630192   3.678   6.202   1.211  0.3604  0.3076 -0.0443
   94MOL   C24730193   3.720   6.013   1.059  0.6433 -0.5093 -0.9604
   94MOL   H24830194   3.333   6.157   0.853 -0.5051 -1.1681  0.1636
   94MOL   H24930195   3.432   6.018   0.879 -0.8189 -0.2840  0.0683
   94MOL   H25030196   3.641   6.145   0.818 -0.0261 -3.6838  3.5944
   94MOL   H25130197   3.761   6.208   1.003 -1.9115 -1.2905 -2.5830
   94MOL   H25230198   3.654   6.309   1.213  1.1153  0.4618  1.3023
   94MOL   H25330199   3.595   6.162   1.269  0.5579 -0.1632 -0.0882
   94MOL   H25430200   3.778   6.184   1.250  0.3039  0.3767  0.1342
   94MOL   H25530201   3.825   5.995   1.036  0.7756  1.0388 -1.6931
   94MOL   H25630202   3.717   5.967   1.157 -1.1460  2.1097  0.2902
   94MOL   H25730203   3.650   5.962   0.993 -1.5819 -1.4704  2.0101
   94MOL   C25830204   3.533   6.339   0.805  0.3554 -0.4173  0.1542
   94MOL   C25930205   3.673   6.412   0.797  0.4221 -0.4722  0.3274
   94MOL   O26030206   3.662   6.555   0.783  0.3574  0.0496 -1.0507
   94MOL   C26130207   3.607   6.621   0.894  0.7983 -0.5042  0.2112
   94MOL   C26230208   3.732   6.627   0.987 -0.2926  0.1994 -0.2312
   94MOL   C26330209   3.562   6.766   0.852  0.4038 -0.8405  0.2050
   94MOL   H26430210   3.488   6.345   0.706 -1.4358  1.0261  1.0337
   94MOL   H26530211   3.458   6.391   0.864 -0.6652 -0.2434 -1.2766
   94MOL   H26630212   3.728   6.381   0.886  2.3420 -3.6276 -1.8777
   94MOL   H26730213   3.520   6.576   0.943 -0.1533 -0.5091 -1.4518
   94MOL   H26830214   3.821   6.643   0.926  0.9656 -2.1820  0.9388
   94MOL   H26930215   3.754   6.534   1.038  2.3068  1.9581  2.0060
   94MOL   H27030216   3.717   6.709   1.058  1.7864  0.9145 -0.6030
   94MOL   H27130217   3.490   6.754   0.771  0.9166  2.1590 -0.7864
   94MOL   H27230218   3.495   6.811   0.925 -1.3437  0.0226 -1.8848
   94MOL   H27330219   3.642   6.833   0.820 -2.0089  1.9614 -0.1250
   94MOL   C27430220   3.750   6.361   0.674 -0.0046  0.5766 -0.8618
   94MOL   C27530221   3.894   6.389   0.679  0.1781  0.4358 -0.3543
   94MOL   O27630222   3.948   6.285   0.768 -0.0976 -0.3471 -0.2142
   94MOL   C27730223   4.074   6.320   0.821 -0.4330  0.5514 -0.0739
   94MOL   C27830224   4.137   6.189   0.860  0.1798  0.2815 -0.5554
   94MOL   C27930225   4.062   6.421   0.941 -0.0997 -0.1225  0.3204
   94MOL   H28030226   3.732   6.258   0.645  0.3716 -0.0455  1.0699
   94MOL   H28130227   3.717   6.414   0.585  1.9422  1.9270 -0.8138
   94MOL   H28230228   3.916   6.490   0.716 -0.4534  0.2415  0.5638
   94MOL   H28330229   4.147   6.364   0.753 -1.0564 -0.7449 -1.6378
   94MOL   H28430230   4.238   6.201   0.900 -1.1153 -0.7197  3.2078
   94MOL   H28530231   4.079   6.138   0.937  0.8593  0.2643 -0.0449
   94MOL   H28630232   4.135   6.122   0.774  3.5051 -0.2141 -0.3199
   94MOL   H28730233   4.024   6.520   0.913 -0.0421 -0.7466 -2.0688
   94MOL   H28830234   4.161   6.426   0.986  0.9326 -0.3145 -1.8693
   94MOL   H28930235   4.001   6.380   1.021  2.2572 -0.8153  1.7918
   94MOL   C29030236   3.954   6.376   0.532 -0.5586  0.1962  0.2358
   94MOL   C29130237   3.928   6.486   0.436 -0.4936 -0.1052  0.1395
   94MOL   O29230238   4.018   6.592   0.462 -0.0088 -0.0044  0.3611
   94MOL   C29330239   3.965   6.730   0.476 -0.2753 -0.3090  0.4805
   94MOL   C29430240   4.080   6.809   0.535  0.7429  0.2462 -0.4451
   94MOL   C29530241   3.840   6.732   0.570 -0.3653 -0.2796 -0.0072
   94MOL   H29630242   3.911   6.283   0.494 -3.5042  1.2112  0.9445
   94MOL   H29730243   4.062   6.361   0.532 -0.5357  0.3355  1.0085
   94MOL   H29830244   3.823   6.513   0.449 -0.2470  1.1215 -0.3281
   94MOL   H29930245   3.942   6.771   0.377 -0.7308  1.4403  1.2950
   94MOL   H30030246   4.060   6.916   0.542 -0.9603 -0.1335  0.6523
   94MOL   H30130247   4.101   6.766   0.633 -2.3097 -0.2929  0.0296
   94MOL   H30230248   4.170   6.796   0.475  0.8507 -0.1544 -0.2028
   94MOL   H30330249   3.832   6.835   0.605  1.2756 -0.0096 -0.4176
   94MOL   H30430250   3.747   6.706   0.519  0.0478 -1.7929 -0.0270
   94MOL   H30530251   3.832   6.662   0.653  0.1245 -1.1433 -0.6783
   94MOL   C30630252   3.946   6.434   0.288  0.2035  0.0366 -0.4218
   94MOL   C30730253   3.826   6.356   0.239 -0.5371 -0.5296 -0.1063
   94MOL   O30830254   3.724   6.437   0.184 -0.5500 -0.2840  0.4943
   94MOL   C30930255   3.675   6.400   0.058  0.2510 -0.0479  0.0620
   94MOL   C31030256   3.637   6.245   0.052 -0.1665  0.4717  0.0778
   94MOL   C31130257   3.544   6.475   0.030 -0.0427 -0.2355 -0.0231
   94MOL   H31230258   4.028   6.362   0.283  0.2775 -0.0751  1.9967
   94MOL   H31330259   3.970   6.516   0.219  0.8676  0.9999  0.9263
   94MOL   H31430260   3.860   6.282   0.167 -0.7937 -0.8100  0.0604
   94MOL   H31530261   3.748   6.419   7.800 -0.3251  0.8440 -0.2742
   94MOL   H31630262   3.590   6.234   7.774 -0.8685  0.8930  0.3637
   94MOL   H31730263   3.566   6.220   0.130  0.7924 -0.5261  0.6427
   94MOL   H31830264   3.723   6.179   0.063  2.0367  3.3664  0.7503
   94MOL   H31930265   3.469   6.437   0.100  0.4261  1.7534  1.6194
   94MOL   H32030266   3.510   6.443   7.752  0.6355 -5.1112  1.2143
   94MOL   H32130267   3.546   6.584   0.025 -2.6872 -0.1472  0.2360
   94MOL   H32230268   3.770   6.303   0.316 -0.2920  0.0649  0.4862
   95MOL     C130269   0.674   2.327   6.136  0.0239 -0.2167  0.0606
   95MOL     C230270   0.709   2.426   6.243 -0.1334  0.1510  0.3899
   95MOL     O330271   0.823   2.514   6.205  0.1334  0.1378  0.3250
   95MOL     C430272   0.948   2.458   6.204 -0.1690 -0.9665  0.1085
   95MOL     C530273   0.998   2.450   6.347  0.5428 -0.1625 -0.0831
   95MOL     C630274   1.034   2.559   6.115  1.1334  0.3742 -0.2540
   95MOL     H730275   0.638   2.385   6.050  1.8354  0.9171  0.0498
   95MOL     H830276   0.767   2.286   6.097  1.3915  1.6868  1.2424
   95MOL     H930277   0.739   2.367   6.330  0.7053  0.8008  0.5557
   95MOL    H1030278   0.958   2.356   6.170  0.5480 -0.5931 -0.8111
   95MOL    H1130279   0.953   2.374   6.410  0.8359  0.3808  0.7895
   95MOL    H1230280   1.101   2.417   6.353  0.2361 -0.8902  1.4468
   95MOL    H1330281   0.983   2.548   6.394 -1.9919  0.2631 -1.6567
   95MOL    H1430282   1.022   2.664   6.141 -1.4180 -0.0611  0.4923
   95MOL    H1530283   1.135   2.521   6.124  0.4158 -1.1784  1.7607
   95MOL    H1630284   1.013   2.556   6.008  1.7026  2.3575 -0.4237
   95MOL    H1730285   0.596   2.253   6.154 -1.5239  1.2190 -0.5118
   95MOL    C1830286   0.585   2.516   6.271 -0.2507  0.2422  0.2793
   95MOL    C1930287   0.472   2.464   6.366 -0.5295 -0.0706 -0.1596
   95MOL    O2030288   0.443   2.333   6.328  0.6176 -0.0415 -0.0031
   95MOL    C2130289   0.392   2.243   6.422 -0.0345  0.5583 -0.8915
   95MOL    C2230290   0.503   2.200   6.518 -0.4716 -0.9508 -0.0898
   95MOL    C2330291   0.355   2.124   6.336  0.3609  0.3567  0.2841
   95MOL    H2430292   0.625   2.610   6.308 -0.2660 -0.3648  1.9159
   95MOL    H2530293   0.547   2.538   6.171  1.1846  0.1138 -0.2967
   95MOL    H2630294   0.517   2.474   6.464  0.2370  0.1363 -0.5267
   95MOL    H2730295   0.309   2.282   6.481  0.7043  1.1625 -0.2502
   95MOL    H2830296   0.458   2.121   6.578  0.2125 -0.8859  0.5147
   95MOL    H2930297   0.586   2.152   6.465  0.5346  1.3074 -0.6203
   95MOL    H3030298   0.531   2.286   6.579 -2.9615  0.1866 -0.5009
   95MOL    H3130299   0.265   2.153   6.282 -0.0020 -1.9492 -0.4250
   95MOL    H3230300   0.328   2.043   6.404 -1.8772  1.5488  0.8643
   95MOL    H3330301   0.429   2.096   6.261  0.2967 -0.1337  0.4017
   95MOL    C3430302   0.345   2.559   6.368  0.1814 -0.0094  0.3591
   95MOL    C3530303   0.276   2.568   6.226 -0.6548  0.8356 -0.2272
   95MOL    O3630304   0.141   2.566   6.248 -0.2083 -0.2305 -0.4314
   95MOL    C3730305   0.086   2.435   6.263  0.8593 -0.5822  0.2499
   95MOL    C3830306   7.769   2.443   6.331 -0.5810 -0.1397  0.5076
   95MOL    C3930307   0.075   2.354   6.130  0.4244 -0.5665 -0.1465
   95MOL    H4030308   0.376   2.661   6.390  0.9002 -0.2026  0.2755
   95MOL    H4130309   0.283   2.523   6.450  0.2515 -1.0913 -0.0459
   95MOL    H4230310   0.304   2.493   6.152  1.7923 -0.4825  1.9246
   95MOL    H4330311   0.151   2.384   6.333  3.0455  1.6284 -0.0967
   95MOL    H4430312   7.743   2.344   6.368  0.3534 -0.5925 -0.0486
   95MOL    H4530313   7.686   2.482   6.273 -1.3384  1.1720  2.4121
   95MOL    H4630314   7.768   2.509   6.418 -1.7714  1.1966 -0.5049
   95MOL    H4730315   0.171   2.318   6.093 -0.2391 -1.2769 -1.2148
   95MOL    H4830316   0.022   2.262   6.156  0.8571 -0.7093  0.2208
   95MOL    H4930317   0.028   2.400   6.043  1.1111 -1.1736 -0.8425
   95MOL    C5030318   0.304   2.706   6.167  0.2130 -0.2340  0.0621
   95MOL    C5130319   0.284   2.705   6.016 -0.4160  0.1400  0.1441
   95MOL    O5230320   0.405   2.655   5.962  0.0025  0.5843 -0.4684
   95MOL    C5330321   0.400   2.596   5.835 -0.4095  0.4544  0.4500
   95MOL    C5430322   0.368   2.446   5.852 -0.3543  1.2303  0.9327
   95MOL    C5530323   0.530   2.621   5.764  0.0472 -0.1427 -0.3548
   95MOL    H5630324   0.247   2.785   6.217  1.8402  2.3035 -1.9981
   95MOL    H5730325   0.408   2.735   6.181  0.3515 -0.1702 -1.1036
   95MOL    H5830326   0.211   2.627   5.992 -1.0294  1.1884 -1.5576
   95MOL    H5930327   0.325   2.644   5.773 -0.3239 -0.1774 -0.1494
   95MOL    H6030328   0.280   2.436   5.916 -0.7169  0.0884  0.2677
   95MOL    H6130329   0.448   2.391   5.902  0.1949  0.2343 -1.0162
   95MOL    H6230330   0.343   2.409   5.753 -2.2040  1.6437  1.2395
   95MOL    H6330331   0.612   2.567   5.810  0.4299  1.7830  1.2859
   95MOL    H6430332   0.565   2.724   5.763  2.5582 -0.9340  1.7034
   95MOL    H6530333   0.540   2.585   5.661  1.6956 -2.0344  0.4372
   95MOL    C6630334   0.260   2.845   5.949  0.3010 -0.0916 -0.0019
   95MOL    C6730335   0.146   2.930   6.006 -0.3334 -0.6621 -0.3284
   95MOL    O6830336   0.015   2.902   5.950  0.1833 -0.2771  0.7116
   95MOL    C6930337   7.783   2.780   5.988  0.2049  0.8362 -0.1446
   95MOL    C7030338   7.643   2.813   6.038 -0.4513  0.3350 -0.5946
   95MOL    C7130339   7.792   2.698   5.860 -0.4257 -0.2725 -0.0375
   95MOL    H7230340   0.355   2.898   5.961 -0.3271  0.9987  0.1517
   95MOL    H7330341   0.246   2.823   5.843  0.7507  0.4996 -0.1872
   95MOL    H7430342   0.125   2.918   6.112 -0.7272  0.8097 -0.2160
   95MOL    H7530343   0.017   2.730   6.067  1.7220 -0.7977 -2.1524
   95MOL    H7630344   7.647   2.861   6.135 -0.0996  3.4668 -2.0909
   95MOL    H7730345   7.605   2.885   5.965  0.0042  0.7387 -0.4284
   95MOL    H7830346   7.593   2.716   6.030  1.0196 -0.6368  1.6588
   95MOL    H7930347   7.755   2.596   5.867 -0.0659 -0.4750 -0.9756
   95MOL    H8030348   0.077   2.698   5.834 -0.0404  2.1291  1.3941
   95MOL    H8130349   7.730   2.748   5.785 -1.1300  0.1818  0.8367
   95MOL    C8230350   0.176   3.075   5.974 -0.4774  0.2692  0.4476
   95MOL    C8330351   0.077   3.171   6.039 -0.3893  0.5285 -0.6001
   95MOL    O8430352   0.123   3.220   6.167  0.5047 -0.1149 -0.3345
   95MOL    C8530353   0.186   3.133   6.262 -0.6600  0.1614  0.4300
   95MOL    C8630354   0.085   3.066   6.366 -0.2072 -0.3630  0.5035
   95MOL    C8730355   0.268   3.228   6.342 -0.1007 -0.0266  0.5901
   95MOL    H8830356   0.275   3.112   6.002 -1.6279  1.3170  3.3713
   95MOL    H8930357   0.162   3.065   5.866  0.6415 -0.2898  0.3517
   95MOL    H9030358   7.797   3.129   6.052 -0.2514  1.1939  3.3116
   95MOL    H9130359   0.259   3.059   6.229  0.6791  1.1950  1.0313
   95MOL    H9230360   0.021   2.981   6.339  0.3041 -0.8385  0.7754
   95MOL    H9330361   0.144   3.034   6.453  1.7480  2.2747  0.2044
   95MOL    H9430362   0.013   3.145   6.387  1.3875  1.8216 -2.0493
   95MOL    H9530363   0.303   3.174   6.430 -0.7404 -2.3926 -0.5651
   95MOL    H9630364   0.349   3.257   6.275  0.8971  0.8404  2.1394
   95MOL    H9730365   0.207   3.314   6.370 -1.4530 -0.4573 -0.9838
   95MOL    C9830366   0.058   3.310   5.962 -0.5232  0.2391  1.1684
   95MOL    C9930367   7.778   3.413   6.026  0.1919 -0.1025 -0.8657
   95MOL   O10030368   7.649   3.353   6.013  0.1498  0.3754 -0.0432
   95MOL   C10130369   7.559   3.371   6.122  1.3576  0.2602 -0.5629
   95MOL   C10230370   7.555   3.239   6.207 -0.7819 -0.8438 -0.3174
   95MOL   C10330371   7.420   3.411   6.059 -1.1635  0.1168  0.4201
   95MOL   H10430372   0.158   3.351   5.946 -0.1724 -0.7694  0.7487
   95MOL   H10530373   0.023   3.287   5.862 -0.3817 -2.1728  1.6387
   95MOL   H10630374   7.805   3.413   6.132 -1.6878 -1.1701 -0.3676
   95MOL   H10730375   7.584   3.458   6.183  0.2915  1.0666 -1.2598
   95MOL   H10830376   7.644   3.233   6.270  0.1339 -1.7131 -1.6786
   95MOL   H10930377   7.562   3.153   6.140 -0.8995 -0.1818 -1.1836
   95MOL   H11030378   7.474   3.237   6.281 -2.3966 -1.9686 -2.0520
   95MOL   H11130379   7.442   3.495   5.992  1.8236  0.8495  2.2306
   95MOL   H11230380   7.341   3.444   6.125 -1.0226  0.2337  0.5304
   95MOL   H11330381   7.376   3.338   5.990 -0.6103  0.1020  0.0777
   95MOL   C11430382   7.783   3.558   5.971 -0.5796  0.7109 -0.3965
   95MOL   C11530383   0.080   3.646   6.017  0.2201  0.2071  0.9003
   95MOL   O11630384   0.071   3.759   5.933 -0.0210 -0.4930  0.1150
   95MOL   C11730385   0.185   3.831   5.896  0.4026 -0.2947 -0.2325
   95MOL   C11830386   0.141   3.976   5.924 -0.0690 -0.2827 -0.0579
   95MOL   C11930387   0.221   3.794   5.753  0.4896  0.1568 -0.1490
   95MOL   H12030388   7.694   3.606   6.010 -0.8836 -0.2231  0.0628
   95MOL   H12130389   7.786   3.550   5.862  0.7717  0.2436 -0.3308
   95MOL   H12230390   0.175   3.595   6.006 -0.0719 -0.4780  1.4683
   95MOL   H12330391   0.274   3.813   5.956 -0.1170  0.1082  0.6673
   95MOL   H12430392   0.148   3.987   6.033  0.9501  1.5641 -0.2918
   95MOL   H12530393   0.042   4.007   5.893 -0.0681 -0.4690 -0.2505
   95MOL   H12630394   0.221   4.039   5.885  0.0785 -0.2004  0.3724
   95MOL   H12730395   0.314   3.848   5.736  0.0875  0.8558 -0.1232
   95MOL   H12830396   0.142   3.839   5.692  2.0316  1.7113 -1.0153
   95MOL   H12930397   0.226   3.686   5.739 -0.1329  0.0902  0.0932
   95MOL   C13030398   0.055   3.695   6.159 -0.1992 -0.4334  0.1090
   95MOL   C13130399   0.179   3.751   6.232  0.3721 -0.0716  0.2342
   95MOL   O13230400   0.258   3.640   6.271 -0.0415  0.1154  0.0830
   95MOL   C13330401   0.394   3.649   6.278  0.0936 -0.4645 -0.3933
   95MOL   C13430402   0.443   3.569   6.392 -0.0162  0.6659  0.2015
   95MOL   C13530403   0.454   3.612   6.143 -0.2110 -0.1229 -0.6487
   95MOL   H13630404   0.009   3.617   6.220  2.6773 -1.0497  1.5717
   95MOL   H13730405   7.795   3.768   6.148  0.1631 -0.2747 -1.6307
   95MOL   H13830406   0.244   3.810   6.166  0.9657  1.0912  1.8292
   95MOL   H13930407   0.421   3.751   6.304  0.9427 -1.1212  1.3827
   95MOL   H14030408   0.406   3.467   6.399 -0.5230  0.8183 -0.2361
   95MOL   H14130409   0.405   3.624   6.478 -1.6041 -1.2169  0.7343
   95MOL   H14230410   0.551   3.576   6.407  0.1010  0.3937 -0.4765
   95MOL   H14330411   0.434   3.685   6.065  0.9857  0.7967 -0.1206
   95MOL   H14430412   0.563   3.623   6.148 -0.3692  0.9404  0.7322
   95MOL   H14530413   0.423   3.511   6.115  0.7626 -1.2233  1.9944
   95MOL   C14630414   0.140   3.829   6.357 -0.5633 -0.1966 -0.2565
   95MOL   C14730415   0.245   3.935   6.410 -0.2386  0.1110 -0.2034
   95MOL   O14830416   0.276   4.020   6.297  0.2169 -0.1073  0.6917
   95MOL   C14930417   0.400   4.087   6.300 -0.2449  0.1198  0.1242
   95MOL   C15030418   0.377   4.215   6.220 -0.8580 -0.3365  0.7977
   95MOL   C15130419   0.510   4.001   6.244 -0.4007 -0.1822  0.1554
   95MOL   H15230420   0.123   3.761   6.440 -0.4877  1.6407  1.3025
   95MOL   H15330421   0.051   3.891   6.347 -0.5201  0.3284  2.3841
   95MOL   H15430422   0.342   3.893   6.435  0.0214  1.3917  1.0309
   95MOL   H15530423   0.432   4.114   6.401  1.3341 -2.1002  0.2464
   95MOL   H15630424   0.374   4.199   6.112  0.1580 -0.7253  0.8148
   95MOL   H15730425   0.457   4.289   6.233 -0.0510 -0.8324 -1.0882
   95MOL   H15830426   0.289   4.267   6.256 -0.5535  0.2161  0.7411
   95MOL   H15930427   0.496   3.981   6.138  0.5253  0.1295 -0.0340
   95MOL   H16030428   0.535   3.919   6.311  2.7439  1.4604  1.1183
   95MOL   H16130429   0.601   4.061   6.253 -0.2579 -0.3479 -0.1758
   95MOL   C16230430   0.199   4.014   6.538  0.5098  0.3037  0.9582
   95MOL   C16330431   0.304   4.037   6.639  0.4990  0.1577  0.0646
   95MOL   O16430432   0.244   4.134   6.723 -0.1381  0.6586 -0.1407
   95MOL   C16530433   0.313   4.254   6.750  0.1271  0.3908 -0.3036
   95MOL   C16630434   0.246   4.321   6.868 -0.2371  0.2459  0.6944
   95MOL   C16730435   0.289   4.348   6.627 -0.1049  0.9536  0.1262
   95MOL   H16830436   0.163   4.111   6.503  0.6304 -0.1698 -0.4868
   95MOL   H16930437   0.121   3.952   6.583 -1.6081  1.2037 -1.3870
   95MOL   H17030438   0.404   4.071   6.612  0.8794 -0.4891  0.6165
   95MOL   H17130439   0.420   4.233   6.751  0.6184  2.7791 -0.7098
   95MOL   H17230440   0.244   4.253   6.954  0.1495  1.0229  1.3237
   95MOL   H17330441   0.141   4.342   6.844  0.1129  0.8682 -0.3016
   95MOL   H17430442   0.297   4.415   6.890  0.8897 -0.3932  0.8529
   95MOL   H17530443   0.343   4.442   6.637  0.6214  0.6298 -0.6790
   95MOL   H17630444   0.185   4.380   6.620 -0.9742 -0.6451  4.2002
   95MOL   H17730445   0.319   4.311   6.529  0.6135 -1.2125  1.1286
   95MOL   C17830446   0.321   3.906   6.730 -0.0451  0.3077 -0.4166
   95MOL   C17930447   0.452   3.897   6.812  0.6276 -0.2049 -0.5008
   95MOL   O18030448   0.568   3.945   6.742 -0.1785  0.4056 -0.2318
   95MOL   C18130449   0.625   3.874   6.637 -0.0844  0.4102  1.2055
   95MOL   C18230450   0.715   3.756   6.687  0.2895 -0.3401 -0.1129
   95MOL   C18330451   0.700   3.964   6.546  0.1946 -0.2884 -0.1135
   95MOL   H18430452   0.336   3.820   6.664 -0.0436 -0.4556  0.5696
   95MOL   H18530453   0.232   3.885   6.788 -0.7331 -0.2247 -1.6424
   95MOL   H18630454   0.460   3.794   6.847  2.3953 -0.1916 -0.7967
   95MOL   H18730455   0.541   3.830   6.583  2.1265 -0.7847 -1.3587
   95MOL   H18830456   0.758   3.709   6.599  2.0003  1.6731 -0.4006
   95MOL   H18930457   0.661   3.683   6.748 -3.4395  0.8813 -1.7752
   95MOL   H19030458   0.799   3.783   6.751 -0.0503 -0.9007  0.5829
   95MOL   H19130459   0.737   3.905   6.462 -1.5168 -2.5496  0.6514
   95MOL   H19230460   0.784   4.007   6.601  0.7724 -0.6772 -0.6959
   95MOL   H19330461   0.641   4.046   6.506  0.2472  0.0560  0.5083
   95MOL   C19430462   0.454   3.981   6.948  0.1400  0.0583  0.0609
   95MOL   C19530463   0.571   3.939   7.043  0.4521  0.2814  0.3729
   95MOL   O19630464   0.527   3.819   7.100 -0.2089 -0.7504 -0.0702
   95MOL   C19730465   0.610   3.713   7.141 -0.2591 -0.0929  0.2206
   95MOL   C19830466   0.509   3.630   7.227 -0.2802 -0.2525  0.0958
   95MOL   C19930467   0.689   3.636   7.029  0.7203  0.3961 -0.3440
   95MOL   H20030468   0.468   4.088   6.931 -2.4306  0.3556 -0.3270
   95MOL   H20130469   0.360   3.974   7.003  0.6103  1.3578  1.0781
   95MOL   H20230470   0.659   3.929   6.979  1.0444  1.2855  1.0034
   95MOL   H20330471   0.678   3.746   7.219  2.6970 -2.2763 -1.3376
   95MOL   H20430472   0.472   3.688   7.312  0.4127  0.4731 -0.0899
   95MOL   H20530473   0.418   3.604   7.173 -0.9845  0.7934  0.7508
   95MOL   H20630474   0.562   3.543   7.265  0.3264 -0.3643 -0.9749
   95MOL   H20730475   0.770   3.578   7.071 -0.3751 -0.1452  1.0804
   95MOL   H20830476   0.627   3.569   6.970  0.9150  0.4032 -0.5565
   95MOL   H20930477   0.741   3.699   6.957  1.1248 -0.1499 -0.5297
   95MOL   C21030478   0.613   4.046   7.148  0.7101 -0.7136  0.1208
   95MOL   C21130479   0.506   4.081   7.249 -0.3302 -0.1827 -0.1284
   95MOL   O21230480   0.571   4.089   7.379 -0.2130  0.0726  1.4029
   95MOL   C21330481   0.597   3.965   7.443 -0.3248 -0.3797  0.1068
   95MOL   C21430482   0.712   3.987   7.539 -0.8761 -0.1903  0.3876
   95MOL   C21530483   0.474   3.923   7.521 -0.4185 -0.2853 -0.4752
   95MOL   H21630484   0.650   4.133   7.095 -0.4284 -0.9063 -1.0133
   95MOL   H21730485   0.707   4.024   7.201  2.2864 -1.5094 -2.9100
   95MOL   H21830486   0.431   4.002   7.243 -1.2842  0.6370  0.6096
   95MOL   H21930487   0.624   3.888   7.371 -0.8032  0.5942 -1.1312
   95MOL   H22030488   0.675   4.035   7.630 -0.0115 -0.9466  1.1546
   95MOL   H22130489   0.791   4.040   7.486  0.6750 -0.8763  1.9512
   95MOL   H22230490   0.765   3.900   7.578 -1.2777 -0.0409  1.2904
   95MOL   H22330491   0.396   3.895   7.450 -2.2896  0.0209  1.4144
   95MOL   H22430492   0.434   4.003   7.582 -0.3883 -1.2525  0.8310
   95MOL   H22530493   0.499   3.834   7.580 -1.9112 -1.7307 -1.9619
   95MOL   C22630494   0.438   4.222   7.223  0.7604  0.0473  0.8755
   95MOL   C22730495   0.329   4.264   7.318 -0.0600  0.1635  0.3029
   95MOL   O22830496   0.216   4.179   7.294  0.2999 -0.0738  0.0442
   95MOL   C22930497   0.166   4.104   7.403 -0.0272  0.2558 -0.3926
   95MOL   C23030498   0.097   3.995   7.331 -0.8358 -0.3118 -0.4410
   95MOL   C23130499   0.084   4.207   7.489 -0.2973  0.0500  0.4332
   95MOL   H23230500   0.397   4.222   7.122  0.2471  0.0549  1.0817
   95MOL   H23330501   0.520   4.293   7.217 -0.5804  1.5818  0.2761
   95MOL   H23430502   0.353   4.249   7.424  1.9876 -0.5176 -0.2435
   95MOL   H23530503   0.235   4.061   7.476 -1.8949 -0.4884  0.9809
   95MOL   H23630504   0.028   4.022   7.251 -1.7430 -1.7943 -0.1816
   95MOL   H23730505   0.168   3.927   7.283  1.0145  1.1351  0.2187
   95MOL   H23830506   0.047   3.940   7.410 -1.7978  0.9234 -0.1718
   95MOL   H23930507   0.028   4.279   7.430  1.0387  1.4990  0.8864
   95MOL   H24030508   0.158   4.259   7.551 -0.0256  1.2082 -0.8528
   95MOL   H24130509   0.011   4.154   7.551 -0.3826 -0.3619 -0.0122
   95MOL   C24230510   0.270   4.403   7.292  0.5029 -0.7512  0.0295
   95MOL   C24330511   0.344   4.529   7.336  0.0876  0.2542  0.4411
   95MOL   O24430512   0.457   4.549   7.250  0.2908 -0.0903 -0.3049
   95MOL   C24530513   0.429   4.610   7.128  0.0260  0.2706  0.1629
   95MOL   C24630514   0.419   4.764   7.141 -0.2992 -0.2466  0.1328
   95MOL   C24730515   0.551   4.569   7.047  0.3838 -0.4102  0.2650
   95MOL   H24830516   0.252   4.404   7.184  1.0971 -0.0345 -0.0684
   95MOL   H24930517   0.168   4.409   7.330  0.7289  3.2297  0.2027
   95MOL   H25030518   0.281   4.618   7.329  0.9697  0.7188 -1.8746
   95MOL   H25130519   0.339   4.569   7.081  1.1768  1.5373 -3.2752
   95MOL   H25230520   0.514   4.802   7.178 -1.2399  1.6791  0.6407
   95MOL   H25330521   0.413   4.816   7.045 -0.9174  0.9250  0.7827
   95MOL   H25430522   0.336   4.800   7.203 -0.3892  0.5861 -0.4491
   95MOL   H25530523   0.550   4.615   6.948 -0.3692  0.3162  0.5984
   95MOL   H25630524   0.641   4.604   7.095  0.1165 -0.4059  0.7665
   95MOL   H25730525   0.549   4.462   7.026 -0.9567 -0.2846 -0.3727
   95MOL   C25830526   0.396   4.526   7.479 -0.5085  0.6153 -0.3842
   95MOL   C25930527   0.464   4.663   7.523  0.3851  0.4294 -0.0720
   95MOL   O26030528   0.556   4.646   7.628  0.2208 -0.0691 -0.6061
   95MOL   C26130529   0.677   4.578   7.589  0.6017  0.5084 -0.6844
   95MOL   C26230530   0.787   4.685   7.563  0.2557 -0.3453  0.4188
   95MOL   C26330531   0.729   4.498   7.706 -0.1884 -0.3428 -0.2421
   95MOL   H26430532   0.314   4.495   7.544  0.0134 -2.2034 -1.0132
   95MOL   H26530533   0.462   4.439   7.478 -0.9280  0.2279 -4.1527
   95MOL   H26630534   0.513   4.706   7.435  0.7647 -1.0247 -0.5835
   95MOL   H26730535   0.666   4.506   7.508 -1.9203  0.7910 -0.6382
   95MOL   H26830536   0.758   4.742   7.474 -1.7397 -0.2703  1.1002
   95MOL   H26930537   0.882   4.634   7.546  0.9724  0.5541  1.6609
   95MOL   H27030538   0.802   4.764   7.637  1.6904  1.4231 -1.6698
   95MOL   H27130539   0.824   4.450   7.686  1.0890  2.1360 -0.3387
   95MOL   H27230540   0.735   4.575   7.783  0.1139 -0.8835  0.2741
   95MOL   H27330541   0.662   4.416   7.732 -0.4434 -0.3521 -0.9196
   95MOL   C27430542   0.359   4.770   7.571 -0.0844 -0.6187 -0.3215
   95MOL   C27530543   0.403   4.916   7.527  0.0019  0.0179 -0.2389
   95MOL   O27630544   0.299   5.005   7.555  0.2667  0.6068 -0.0763
   95MOL   C27730545   0.197   5.012   7.452  0.6913 -0.2720 -0.5714
   95MOL   C27830546   0.192   5.158   7.420 -0.4245 -1.1957 -0.3010
   95MOL   C27930547   0.065   4.955   7.498 -0.1340  0.2541  0.4804
   95MOL   H28030548   0.261   4.748   7.529 -0.6075  0.8016  0.1196
   95MOL   H28130549   0.343   4.745   7.675 -0.9523 -0.9673 -0.5405
   95MOL   H28230550   0.424   4.915   7.420  0.1341 -1.7966 -0.2122
   95MOL   H28330551   0.226   4.965   7.358  3.1044 -1.4838  0.7191
   95MOL   H28430552   0.116   5.183   7.346 -0.5242  2.1471  0.8373
   95MOL   H28530553   0.170   5.212   7.511  1.1317  0.2460 -0.7532
   95MOL   H28630554   0.285   5.204   7.387 -0.3548 -1.6980 -0.8232
   95MOL   H28730555   0.033   4.988   7.597 -1.0691 -0.3660  0.3856
   95MOL   H28830556   0.043   4.850   7.481 -1.7835  0.7506 -0.6269
   95MOL   H28930557   7.812   5.011   7.440  1.6866  2.1338 -0.0675
   95MOL   C29030558   0.524   4.969   7.609  0.1161  0.6082 -0.6165
   95MOL   C29130559   0.574   5.112   7.587  0.3504  0.5297  0.4568
   95MOL   O29230560   0.625   5.162   7.712 -0.1653 -0.3643  0.0931
   95MOL   C29330561   0.560   5.277   7.754 -0.6820  0.3397  0.0200
   95MOL   C29430562   0.657   5.346   0.035  1.2390 -0.3743  0.7636
   95MOL   C29530563   0.419   5.240   7.810 -0.4493  0.1746  0.0679
   95MOL   H29630564   0.605   4.897   7.593 -1.0182 -0.8273  0.0182
   95MOL   H29730565   0.503   4.961   7.716  0.7624  0.6644 -0.4845
   95MOL   H29830566   0.494   5.177   7.553 -0.0356 -1.2404 -2.1612
   95MOL   H29930567   0.544   5.346   7.671 -1.1243 -0.5596 -0.6523
   95MOL   H30030568   0.695   5.280   0.113 -1.1096  0.3798  2.5933
   95MOL   H30130569   0.751   5.373   7.808 -0.4301  1.8310 -1.4108
   95MOL   H30230570   0.621   5.432   0.092 -4.4772 -2.4458  0.6053
   95MOL   H30330571   0.363   5.331   0.014 -0.5879  0.7686 -2.3388
   95MOL   H30430572   0.369   5.166   7.749  1.0289 -1.6028  0.9747
   95MOL   H30530573   0.444   5.188   0.082 -2.1067 -1.5223 -0.4079
   95MOL   C30630574   0.698   5.104   7.496  0.4252  0.1814  0.1134
   95MOL   C30730575   0.669   5.073   7.348 -0.0217  0.1830  0.3900
   95MOL   O30830576   0.584   5.168   7.285 -0.2114 -0.3574 -0.3899
   95MOL   C30930577   0.520   5.132   7.168  0.4950  0.4090  0.4648
   95MOL   C31030578   0.430   5.245   7.128  0.1013 -0.4399 -0.0128
   95MOL   C31130579   0.615   5.087   7.057  0.9681 -0.0450 -0.5148
   95MOL   H31230580   0.759   5.024   7.537  2.8486  1.3928 -1.0317
   95MOL   H31330581   0.743   5.203   7.504 -1.0242  0.6731  3.0387
   95MOL   H31430582   0.764   5.072   7.294 -1.3645 -0.1667 -2.0260
   95MOL   H31530583   0.452   5.055   7.204 -1.5521  1.9131 -0.1073
   95MOL   H31630584   0.471   5.346   7.118  1.2008 -0.8162  0.6134
   95MOL   H31730585   0.357   5.259   7.208  1.1958  0.2285  0.9016
   95MOL   H31830586   0.373   5.227   7.037 -1.1934 -0.2071  0.7440
   95MOL   H31930587   0.604   5.125   6.956  4.1251  2.6703  0.0950
   95MOL   H32030588   0.639   4.981   7.053  1.1617  0.0157 -0.9753
   95MOL   H32130589   0.717   5.117   7.079  1.1136  0.6155 -2.0983
   95MOL   H32230590   0.632   4.971   7.337 -0.8615  0.3087  1.8724
   96MOL     C130591   5.522   4.574   1.112  0.1062  0.0703  0.7912
   96MOL     C230592   5.473   4.438   1.165 -0.0794  0.5916 -0.2942
   96MOL     O330593   5.358   4.476   1.240  0.4696  0.6483  0.5887
   96MOL     C430594   5.302   4.368   1.317 -0.6478  0.2567 -0.2800
   96MOL     C530595   5.187   4.427   1.389  0.3932  0.4369  0.3166
   96MOL     C630596   5.400   4.295   1.409 -0.3033  0.1085 -0.0335
   96MOL     H730597   5.607   4.562   1.045 -0.1569  0.4722  0.3801
   96MOL     H830598   5.448   4.624   1.050 -0.3142 -0.6786  0.6920
   96MOL     H930599   5.551   4.389   1.224 -0.8670  0.3350  0.5379
   96MOL    H1030600   5.254   4.300   1.247 -1.5515  1.2136 -0.6036
   96MOL    H1130601   5.124   4.496   1.334 -3.9826 -0.5838  3.7246
   96MOL    H1230602   5.123   4.347   1.427  0.5328  0.7579  1.2264
   96MOL    H1330603   5.228   4.473   1.479  1.6916  0.2074 -0.1506
   96MOL    H1430604   5.486   4.251   1.360 -0.2229  1.3273 -0.9987
   96MOL    H1530605   5.437   4.350   1.495 -0.3418  1.0569 -0.6242
   96MOL    H1630606   5.343   4.208   1.442 -1.1514  0.6453 -0.0638
   96MOL    H1730607   5.541   4.646   1.192  1.4958  1.4617 -0.7650
   96MOL    C1830608   5.451   4.339   1.041  0.9940 -0.3312 -0.1000
   96MOL    C1930609   5.583   4.282   0.984 -0.3197 -0.3744  0.2139
   96MOL    O2030610   5.571   4.253   0.847  0.4701  0.5874  0.3115
   96MOL    C2130611   5.604   4.359   0.761 -0.0296  0.6680 -0.2145
   96MOL    C2230612   5.507   4.337   0.639 -0.9641  0.6688 -0.4541
   96MOL    C2330613   5.751   4.343   0.706 -0.4477 -0.2643 -0.1965
   96MOL    H2430614   5.380   4.264   1.075 -1.0635  1.5412 -0.2103
   96MOL    H2530615   5.395   4.389   0.962  0.0391 -2.7529 -1.0111
   96MOL    H2630616   5.665   4.351   1.003 -0.5729 -0.4351  1.5957
   96MOL    H2730617   5.581   4.455   0.806 -0.4216 -0.3429  1.8036
   96MOL    H2830618   5.548   4.257   0.577  1.4506 -0.3074  2.2814
   96MOL    H2930619   5.409   4.313   0.680  0.7777 -1.2035  2.8079
   96MOL    H3030620   5.501   4.417   0.565 -3.7572  0.1138 -0.8974
   96MOL    H3130621   5.777   4.409   0.624  2.1038 -1.2608 -0.2316
   96MOL    H3230622   5.782   4.243   0.673  2.2712  0.6780 -0.6586
   96MOL    H3330623   5.813   4.369   0.792 -2.2176  3.5530 -0.0008
   96MOL    C3430624   5.627   4.156   1.067 -0.6016 -0.6650 -0.0626
   96MOL    C3530625   5.778   4.112   1.055  0.1283 -0.3558 -0.0085
   96MOL    O3630626   5.849   4.208   1.125  0.4637 -0.0373 -0.6919
   96MOL    C3730627   5.988   4.223   1.116  0.6458 -0.4483  0.5423
   96MOL    C3830628   6.020   4.365   1.068  0.0227  0.1409 -1.4733
   96MOL    C3930629   6.047   4.185   1.256  1.0886  0.2902  0.9878
   96MOL    H4030630   5.567   4.067   1.049  0.7476 -1.4581 -0.7417
   96MOL    H4130631   5.598   4.166   1.171  0.3602 -2.0823  0.3643
   96MOL    H4230632   5.807   4.110   0.950  1.8764 -0.4800  0.4759
   96MOL    H4330633   6.018   4.147   1.043  0.8425 -0.2944  0.4654
   96MOL    H4430634   6.127   4.375   1.047 -0.2345 -2.5511 -4.4901
   96MOL    H4530635   6.000   4.442   1.143  1.0447 -2.0764  1.1768
   96MOL    H4630636   5.961   4.387   0.979  0.3346 -1.5810 -2.1227
   96MOL    H4730637   6.151   4.211   1.276  0.4900  2.7080  1.0399
   96MOL    H4830638   5.995   4.224   1.343 -1.2370  0.7087 -0.5361
   96MOL    H4930639   6.043   4.076   1.263  2.8300  0.3053  2.4536
   96MOL    C5030640   5.813   3.972   1.108 -0.6479  0.0523 -0.6861
   96MOL    C5130641   5.757   3.860   1.020 -0.9127  0.0307  0.2722
   96MOL    O5230642   5.773   3.737   1.088 -1.1418  0.6011 -0.5942
   96MOL    C5330643   5.663   3.646   1.080  0.6474  0.1426 -0.6510
   96MOL    C5430644   5.559   3.682   1.185 -0.1091  0.1612 -0.0760
   96MOL    C5530645   5.714   3.495   1.106  0.3431 -0.3708  0.0380
   96MOL    H5630646   5.919   3.951   1.120 -0.8339 -0.7005 -0.3679
   96MOL    H5730647   5.782   3.969   1.213  0.3858 -0.7391 -0.4029
   96MOL    H5830648   5.650   3.877   1.008 -0.8124  1.1402  0.8957
   96MOL    H5930649   5.624   3.635   0.979 -0.5458  0.0934 -0.1937
   96MOL    H6030650   5.611   3.700   1.279  0.6501 -1.1764 -0.2375
   96MOL    H6130651   5.481   3.610   1.210  0.6061 -0.5134  0.2230
   96MOL    H6230652   5.510   3.777   1.161 -0.7689 -0.1702 -0.0435
   96MOL    H6330653   5.784   3.496   1.190  0.3464  0.2773  0.0298
   96MOL    H6430654   5.764   3.453   1.018 -0.2819  0.2942 -0.6458
   96MOL    H6530655   5.622   3.444   1.132  0.2820  1.3126  3.3124
   96MOL    C6630656   5.820   3.856   0.879 -0.1278  0.0736 -0.6580
   96MOL    C6730657   5.973   3.875   0.875 -0.3019 -0.2945 -0.1722
   96MOL    O6830658   6.024   3.896   0.743 -0.0634  0.0151  0.1886
   96MOL    C6930659   6.019   4.029   0.696  0.1581  0.1976 -0.2042
   96MOL    C7030660   6.138   4.120   0.743 -1.0737  0.6285  0.2884
   96MOL    C7130661   6.025   4.000   0.540  0.0373  0.2423 -0.0679
   96MOL    H7230662   5.801   3.755   0.842  0.1616 -0.5910  0.9802
   96MOL    H7330663   5.769   3.919   0.806 -2.7941 -2.3511 -0.9884
   96MOL    H7430664   6.009   3.960   0.934 -0.2931  1.2687 -2.3872
   96MOL    H7530665   5.921   4.073   0.713 -0.0756  0.5455 -2.2836
   96MOL    H7630666   6.229   4.062   0.730 -1.4733  0.6034 -2.6405
   96MOL    H7730667   6.137   4.206   0.675  0.5624 -0.2135 -0.8293
   96MOL    H7830668   6.115   4.151   0.845 -3.3164 -3.5491  1.1212
   96MOL    H7930669   5.935   3.951   0.503  0.6158 -0.9229  0.0577
   96MOL    H8030670   6.109   3.938   0.507  1.0042  1.3225  0.3168
   96MOL    H8130671   6.033   4.098   0.493  1.1178  1.3954  2.4174
   96MOL    C8230672   6.054   3.750   0.932  0.3390 -0.5716  0.8627
   96MOL    C8330673   6.208   3.767   0.934 -0.3040 -0.3365  0.0146
   96MOL    O8430674   6.258   3.746   1.062 -0.0753 -0.3883 -0.5113
   96MOL    C8530675   6.235   3.850   1.153  0.1740 -0.1888 -0.5789
   96MOL    C8630676   6.362   3.940   1.175  0.1076  0.1489  0.9671
   96MOL    C8730677   6.191   3.779   1.281 -0.2845 -0.4582 -0.0840
   96MOL    H8830678   5.999   3.718   1.021 -1.7514  0.8003  0.1055
   96MOL    H8930679   6.026   3.662   0.874 -2.2510 -1.9843  4.0851
   96MOL    H9030680   6.237   3.870   0.911  0.4311 -0.4718  0.3538
   96MOL    H9130681   6.159   3.915   1.109  0.5550 -0.7694 -2.1247
   96MOL    H9230682   6.342   3.995   1.267  1.3827  0.4339  1.0826
   96MOL    H9330683   6.447   3.875   1.192  0.4676  0.6463  1.0713
   96MOL    H9430684   6.377   4.007   1.091 -1.7727 -0.7384 -0.1199
   96MOL    H9530685   6.097   3.726   1.285 -0.4364 -0.0852  2.3063
   96MOL    H9630686   6.271   3.713   1.317 -1.9044 -2.2950  0.1910
   96MOL    H9730687   6.186   3.859   1.355  1.2455  0.1161 -0.5826
   96MOL    C9830688   6.283   3.656   0.847  0.1082  0.1240 -0.0476
   96MOL    C9930689   6.439   3.688   0.833  0.9694  0.2240  0.3205
   96MOL   O10030690   6.458   3.812   0.770 -0.4506 -0.2377 -0.6764
   96MOL   C10130691   6.590   3.861   0.775 -0.2638  0.0216 -0.3918
   96MOL   C10230692   6.597   3.971   0.883 -0.5441 -0.0016  0.8353
   96MOL   C10330693   6.632   3.910   0.638  0.8876  0.2166 -0.1835
   96MOL   H10430694   6.262   3.558   0.889 -0.8868 -0.5299 -2.0255
   96MOL   H10530695   6.241   3.658   0.746 -0.9562 -0.8984  0.3761
   96MOL   H10630696   6.480   3.703   0.933  1.7865  0.9296 -0.1080
   96MOL   H10730697   6.663   3.790   0.812  0.8926  2.3132  1.9267
   96MOL   H10830698   6.505   4.030   0.879 -0.3818  0.1471 -1.0045
   96MOL   H10930699   6.686   4.033   0.876 -0.2419 -0.4432  0.7261
   96MOL   H11030700   6.591   3.925   0.982  0.5165  0.3060  1.0447
   96MOL   H11130701   6.599   3.836   0.564  0.5155 -1.2097  1.3840
   96MOL   H11230702   6.738   3.936   0.641  0.4654  1.9202  0.0427
   96MOL   H11330703   6.583   3.998   0.597 -2.2619 -0.9035  1.0426
   96MOL   C11430704   6.503   3.577   0.755 -0.8179  0.3723  0.7046
   96MOL   C11530705   6.503   3.437   0.819  0.2584 -0.2323 -0.1702
   96MOL   O11630706   6.530   3.346   0.713  0.5488 -0.0171 -0.1206
   96MOL   C11730707   6.416   3.279   0.651 -0.4470 -0.0499  0.4804
   96MOL   C11830708   6.374   3.161   0.744 -0.7602  0.0636  0.2915
   96MOL   C11930709   6.461   3.217   0.520 -0.0967  0.6655  0.5062
   96MOL   H12030710   6.604   3.601   0.725 -0.4434 -1.2148  0.6366
   96MOL   H12130711   6.447   3.579   0.662 -0.4819 -0.8564  0.4662
   96MOL   H12230712   6.403   3.424   0.861 -0.6164  1.4292 -1.6796
   96MOL   H12330713   6.336   3.352   0.645 -0.5821 -0.1574  0.9557
   96MOL   H12430714   6.316   3.081   0.698 -0.1842 -0.0869 -0.1803
   96MOL   H12530715   6.327   3.201   0.834 -0.8395  1.8379 -0.5047
   96MOL   H12630716   6.458   3.098   0.770  2.1348  2.1601 -3.4107
   96MOL   H12730717   6.516   3.124   0.534 -1.9001 -0.6421 -0.8931
   96MOL   H12830718   6.525   3.283   0.460  1.8801  0.2086  2.0675
   96MOL   H12930719   6.371   3.186   0.468  1.1444 -0.1941 -1.1791
   96MOL   C13030720   6.606   3.420   0.939 -0.0700  0.4236 -0.1361
   96MOL   C13130721   6.551   3.426   1.080  0.1281  0.5143  0.3018
   96MOL   O13230722   6.663   3.441   1.172  0.3375 -0.0070  0.4834
   96MOL   C13330723   6.699   3.578   1.175  0.1811  0.6277  0.4866
   96MOL   C13430724   6.617   3.661   1.280  1.1869  0.0425 -0.5573
   96MOL   C13530725   6.845   3.574   1.222 -0.4747  0.3125 -0.1359
   96MOL   H13630726   6.681   3.498   0.922  1.3674 -1.0271 -0.5666
   96MOL   H13730727   6.665   3.329   0.926 -0.0376  0.5243 -0.7127
   96MOL   H13830728   6.480   3.508   1.089  0.1495  0.7603 -1.7410
   96MOL   H13930729   6.688   3.639   1.086  0.8251  1.0080  0.6656
   96MOL   H14030730   6.616   3.624   1.382  0.0997 -1.5155 -1.1225
   96MOL   H14130731   6.515   3.678   1.246  1.0109  0.9205  0.3756
   96MOL   H14230732   6.653   3.764   1.276  2.6049 -0.2270  3.4064
   96MOL   H14330733   6.914   3.514   1.161  0.3123 -0.2865  1.3204
   96MOL   H14430734   6.893   3.670   1.238  0.0966  0.8783 -4.4601
   96MOL   H14530735   6.842   3.539   1.325 -0.3873 -0.8612 -0.5194
   96MOL   C14630736   6.470   3.306   1.117  0.8885 -0.3201 -0.9881
   96MOL   C14730737   6.410   3.317   1.257 -0.4927 -0.1044  0.3653
   96MOL   O14830738   6.292   3.243   1.253  0.7020 -0.2152 -0.1300
   96MOL   C14930739   6.174   3.324   1.252  0.6989  0.4398 -0.2260
   96MOL   C15030740   6.118   3.343   1.392 -0.7825 -0.0604 -0.0381
   96MOL   C15130741   6.064   3.254   1.173 -0.0312  0.3054  0.0288
   96MOL   H15230742   6.538   3.221   1.123 -0.7235 -1.5642  0.3772
   96MOL   H15330743   6.393   3.290   1.041 -1.7665 -0.0114  1.5232
   96MOL   H15430744   6.397   3.421   1.285  0.1211  0.4391 -1.2862
   96MOL   H15530745   6.192   3.419   1.203 -0.6063 -0.1295 -1.8783
   96MOL   H15630746   6.185   3.398   1.459 -1.1400 -1.2741  1.3438
   96MOL   H15730747   6.099   3.245   1.434  0.6738 -0.1759  0.3835
   96MOL   H15830748   6.022   3.393   1.383 -0.5890  0.5220  1.0570
   96MOL   H15930749   6.061   3.157   1.222  0.6420 -0.5602 -1.5935
   96MOL   H16030750   6.099   3.229   1.073 -1.1041  1.4662 -0.6512
   96MOL   H16130751   5.970   3.309   1.176 -0.0458  0.2088  2.4200
   96MOL   C16230752   6.498   3.240   1.361 -0.1542 -0.0327 -0.0002
   96MOL   C16330753   6.495   3.265   1.509 -0.1928  0.2752 -0.8806
   96MOL   O16430754   6.580   3.164   1.576 -0.1866  0.3787  0.2000
   96MOL   C16530755   6.504   3.059   1.642 -0.3730 -0.6253 -0.1685
   96MOL   C16630756   6.570   3.048   1.777 -0.5651 -0.0372  0.0676
   96MOL   C16730757   6.500   2.933   1.562  0.2313 -0.3958  0.6960
   96MOL   H16830758   6.470   3.135   1.350  0.9049 -0.2253 -1.0095
   96MOL   H16930759   6.604   3.245   1.334  0.0073  0.2885  0.6906
   96MOL   H17030760   6.389   3.258   1.536 -0.6504  1.3664 -2.3085
   96MOL   H17130761   6.404   3.093   1.671  0.4804  0.9238  0.9862
   96MOL   H17230762   6.550   3.138   1.835 -0.8370 -0.7297  1.0636
   96MOL   H17330763   6.679   3.046   1.769 -0.5155 -1.5471  0.8660
   96MOL   H17430764   6.545   2.960   1.837  0.4130  0.0722  0.6427
   96MOL   H17530765   6.601   2.907   1.527  0.5234  0.6649  0.7555
   96MOL   H17630766   6.431   2.939   1.477  0.7992 -1.7662  0.1146
   96MOL   H17730767   6.476   2.843   1.619 -1.7923 -0.6463 -0.5174
   96MOL   C17830768   6.560   3.402   1.545 -0.0428  0.8555  0.8294
   96MOL   C17930769   6.553   3.432   1.697 -0.4205  0.2527 -0.6038
   96MOL   O18030770   6.632   3.544   1.722  0.1387 -0.2469  0.2283
   96MOL   C18130771   6.769   3.536   1.766 -0.9265  0.0954  0.9336
   96MOL   C18230772   6.783   3.584   1.915 -0.3751  0.0602  0.1784
   96MOL   C18330773   6.827   3.648   1.678 -0.4946  0.4230  0.0401
   96MOL   H18430774   6.499   3.480   1.498 -1.1097 -0.5900 -0.2222
   96MOL   H18530775   6.654   3.418   1.493  0.4159 -2.3952  0.5501
   96MOL   H18630776   6.599   3.353   1.756  0.1806  0.0722 -1.2941
   96MOL   H18730777   6.818   3.444   1.736  0.5863  1.1734 -0.0044
   96MOL   H18830778   6.745   3.504   1.980 -1.2586  0.3859  0.0766
   96MOL   H18930779   6.724   3.674   1.928  0.0519  0.4565 -0.6023
   96MOL   H19030780   6.886   3.603   1.944 -0.4859  1.0637 -0.0693
   96MOL   H19130781   6.766   3.736   1.696  1.9464  1.8880  1.4814
   96MOL   H19230782   6.822   3.623   1.572 -1.8888  1.2166 -0.0894
   96MOL   H19330783   6.935   3.661   1.690 -0.2133  0.0363 -1.8320
   96MOL   C19430784   6.410   3.472   1.737 -0.4385  0.0936  0.1249
   96MOL   C19530785   6.360   3.396   1.868  0.1946  0.1288  0.1970
   96MOL   O19630786   6.238   3.457   1.915  0.3890 -0.0613  0.3484
   96MOL   C19730787   6.109   3.409   1.866 -0.4557 -0.2982  0.5554
   96MOL   C19830788   6.024   3.405   1.993  0.5180 -1.1652 -0.0910
   96MOL   C19930789   6.061   3.523   1.778 -0.5604  0.0379 -0.1700
   96MOL   H20030790   6.403   3.578   1.761  0.4756  0.4105 -0.9898
   96MOL   H20130791   6.338   3.449   1.658 -0.5255 -1.3549  0.6137
   96MOL   H20230792   6.340   3.290   1.857 -1.2497  0.4649 -0.4964
   96MOL   H20330793   6.108   3.309   1.821 -0.8912 -0.2515  0.4612
   96MOL   H20430794   5.916   3.405   1.974  0.4865 -2.1691  0.0315
   96MOL   H20530795   6.049   3.315   2.049  0.4649 -1.3692 -0.3914
   96MOL   H20630796   6.048   3.482   2.066 -2.1998 -0.6538  0.3389
   96MOL   H20730797   6.092   3.615   1.827  3.6281 -0.3845 -1.7631
   96MOL   H20830798   6.109   3.516   1.680 -1.0291  0.4745 -0.4343
   96MOL   H20930799   5.953   3.515   1.763 -0.4831 -2.0775  0.2052
   96MOL   C21030800   6.452   3.422   1.983 -0.6204  0.6000  0.7314
   96MOL   C21130801   6.414   3.340   2.109 -0.0917  0.0632 -0.0229
   96MOL   O21230802   6.456   3.210   2.074  0.3739  0.1699  0.0323
   96MOL   C21330803   6.412   3.110   2.166  0.8956  0.3360 -0.2710
   96MOL   C21430804   6.275   3.051   2.097 -0.0251 -0.2265 -0.5767
   96MOL   C21530805   6.508   2.993   2.176  0.2549  0.2226 -0.0316
   96MOL   H21630806   6.469   3.527   2.006  1.6466  0.3277  0.4123
   96MOL   H21730807   6.556   3.395   1.962 -1.1141 -1.1656  0.4060
   96MOL   H21830808   6.306   3.337   2.124 -0.6269  2.2457 -2.8958
   96MOL   H21930809   6.381   3.143   2.265  3.1455 -0.4016  0.6876
   96MOL   H22030810   6.283   3.020   1.993 -1.0261  0.9059 -1.0057
   96MOL   H22130811   6.189   3.118   2.100 -1.0171 -1.4926  0.1521
   96MOL   H22230812   6.248   2.958   2.148  1.2517 -0.3661 -0.1503
   96MOL   H22330813   6.595   3.014   2.239  1.3394  0.4483 -1.6011
   96MOL   H22430814   6.540   2.946   2.083  1.3056 -1.0946  0.9659
   96MOL   H22530815   6.452   2.911   2.222  0.4794 -0.5556 -1.1447
   96MOL   C22630816   6.489   3.386   2.232  0.2495 -0.3296  0.1131
   96MOL   C22730817   6.449   3.529   2.279 -0.5031 -0.1097 -0.0709
   96MOL   O22830818   6.537   3.584   2.380 -0.5587  0.7238 -0.5696
   96MOL   C22930819   6.660   3.625   2.330 -0.2432 -0.4292 -0.0100
   96MOL   C23030820   6.770   3.559   2.405  0.2395  0.0984  0.2267
   96MOL   C23130821   6.673   3.778   2.321  0.9411 -0.1390  0.6225
   96MOL   H23230822   6.595   3.364   2.220 -0.4545 -2.4517 -2.5016
   96MOL   H23330823   6.474   3.322   2.319 -1.6223 -0.0072  0.0409
   96MOL   H23430824   6.473   3.589   2.191 -3.8744 -1.1447 -1.7844
   96MOL   H23530825   6.674   3.589   2.228  2.0132  1.4288 -0.3848
   96MOL   H23630826   6.753   3.452   2.409 -1.3989  0.3544  0.8014
   96MOL   H23730827   6.871   3.577   2.370  0.0780  1.1367  0.2752
   96MOL   H23830828   6.772   3.599   2.506  2.3694 -1.3159  0.7642
   96MOL   H23930829   6.671   3.829   2.417  2.3119  0.8866  0.1305
   96MOL   H24030830   6.588   3.808   2.261  1.0858 -0.5145  0.2237
   96MOL   H24130831   6.759   3.819   2.267  0.9600 -0.6351  0.2728
   96MOL   C24230832   6.302   3.540   2.327  0.1454 -0.0664 -0.0418
   96MOL   C24330833   6.250   3.691   2.348 -0.2461  0.1379  0.9399
   96MOL   O24430834   6.311   3.782   2.260 -0.9181  0.3493 -0.0262
   96MOL   C24530835   6.270   3.782   2.124 -0.0490  1.3347 -0.0948
   96MOL   C24630836   6.139   3.864   2.105  0.0412 -0.3532 -0.2910
   96MOL   C24730837   6.384   3.839   2.032  0.0730 -0.2329  0.0104
   96MOL   H24830838   6.228   3.491   2.263 -1.2703  1.2538  0.5682
   96MOL   H24930839   6.287   3.493   2.425  0.0746  2.6720  1.2990
   96MOL   H25030840   6.143   3.699   2.330  0.1018 -0.0810 -1.3574
   96MOL   H25130841   6.247   3.681   2.091  1.9521  0.7929  0.1349
   96MOL   H25230842   6.049   3.819   2.146  0.3000 -2.3389 -1.7834
   96MOL   H25330843   6.145   3.965   2.144  0.2359 -0.1709 -0.7884
   96MOL   H25430844   6.113   3.869   1.999 -1.4841  0.9220  0.1391
   96MOL   H25530845   6.487   3.818   2.060  0.4977 -2.1934 -2.8881
   96MOL   H25630846   6.359   3.833   1.926 -1.9394  1.2272  0.3646
   96MOL   H25730847   6.372   3.947   2.046 -1.7844 -0.5631  1.1005
   96MOL   C25830848   6.299   3.755   2.482  0.0785 -0.6619 -0.1256
   96MOL   C25930849   6.229   3.709   2.608  0.4331  0.1476 -0.6489
   96MOL   O26030850   6.103   3.783   2.629 -0.1740 -0.6721  0.4468
   96MOL   C26130851   5.985   3.720   2.589  0.2488  0.0778  0.0353
   96MOL   C26230852   5.941   3.631   2.701  0.0024 -0.0047  0.2552
   96MOL   C26330853   5.880   3.835   2.567  0.0290  0.0230  0.1613
   96MOL   H26430854   6.406   3.747   2.500  0.1362  1.6815  0.7796
   96MOL   H26530855   6.291   3.864   2.484 -0.7659 -0.7457  1.6357
   96MOL   H26630856   6.195   3.612   2.571  4.2044 -1.4654 -0.1168
   96MOL   H26730857   5.997   3.657   2.501  2.1264 -1.0488  1.0869
   96MOL   H26830858   5.839   3.595   2.687  0.2486 -0.7081  0.2427
   96MOL   H26930859   5.937   3.691   2.791 -1.1059  0.8449 -0.3580
   96MOL   H27030860   5.995   3.537   2.713 -0.3248 -0.5060 -1.9893
   96MOL   H27130861   5.879   3.896   2.658 -2.8947  0.9343 -0.4146
   96MOL   H27230862   5.918   3.890   2.481  0.8575  0.0800  0.5646
   96MOL   H27330863   5.785   3.790   2.538  0.8439 -0.8249 -1.2590
   96MOL   C27430864   6.299   3.709   2.746  0.5443 -0.2711 -0.2265
   96MOL   C27530865   6.420   3.617   2.777  0.4843  0.0944  0.1642
   96MOL   O27630866   6.468   3.625   2.913 -0.0873 -0.5412  0.1282
   96MOL   C27730867   6.590   3.693   2.930 -1.0051 -0.0038 -0.2488
   96MOL   C27830868   6.648   3.639   3.062  0.0970  0.3974  0.6039
   96MOL   C27930869   6.564   3.848   2.920 -0.0495 -0.6533  0.5336
   96MOL   H28030870   6.336   3.810   2.764  0.1455 -0.0454 -0.6680
   96MOL   H28130871   6.220   3.698   2.819 -0.5714  0.3611 -1.3137
   96MOL   H28230872   6.498   3.641   2.705  1.1414 -1.0855  0.4702
   96MOL   H28330873   6.665   3.659   2.860 -1.1442 -1.0546  0.1059
   96MOL   H28430874   6.664   3.534   3.041 -2.4455  0.4159 -1.6568
   96MOL   H28530875   6.735   3.702   3.081 -0.8959  1.7028  0.9789
   96MOL   H28630876   6.578   3.647   3.146  0.0772  0.0155  0.6214
   96MOL   H28730877   6.634   3.929   2.938 -1.5577  0.0911  3.2584
   96MOL   H28830878   6.473   3.870   2.975 -1.0420 -0.2537 -1.2347
   96MOL   H28930879   6.535   3.865   2.816 -0.2291 -0.6018  0.5919
   96MOL   C29030880   6.387   3.470   2.750 -0.3913  0.0187 -0.7528
   96MOL   C29130881   6.505   3.380   2.785  0.7346  0.5252  0.2086
   96MOL   O29230882   6.448   3.253   2.767  0.3957  0.2296 -0.3641
   96MOL   C29330883   6.372   3.202   2.876 -0.8499  0.4129  0.5168
   96MOL   C29430884   6.461   3.139   2.975  0.0883 -0.0742 -0.2412
   96MOL   C29530885   6.274   3.102   2.814 -0.1096  0.2484  0.1080
   96MOL   H29630886   6.366   3.455   2.644 -0.3726  0.9377 -0.8935
   96MOL   H29730887   6.297   3.439   2.804  1.0442 -2.0444  0.5471
   96MOL   H29830888   6.532   3.397   2.889 -3.4014  0.1529  1.4481
   96MOL   H29930889   6.304   3.276   2.919 -1.0450  0.7094 -0.2920
   96MOL   H30030890   6.421   3.126   3.076  1.8808  2.6209  0.8761
   96MOL   H30130891   6.502   3.047   2.933  0.0904 -0.3992  0.4573
   96MOL   H30230892   6.553   3.196   2.991  0.8520 -0.9199 -1.5315
   96MOL   H30330893   6.201   3.072   2.890  1.0258 -0.8192  0.7925
   96MOL   H30430894   6.223   3.144   2.727 -0.0798 -0.9908 -0.5078
   96MOL   H30530895   6.330   3.013   2.788 -0.9431 -0.0896 -0.5644
   96MOL   C30630896   6.631   3.383   2.689  0.1238 -0.5010  0.1809
   96MOL   C30730897   6.733   3.273   2.727 -0.2925 -0.1898 -0.0112
   96MOL   O30830898   6.852   3.312   2.671  0.1621  0.4794 -0.6877
   96MOL   C30930899   6.959   3.228   2.713  0.7519 -0.3757  0.8895
   96MOL   C31030900   7.061   3.250   2.600 -0.2491  0.3509  0.1396
   96MOL   C31130901   7.015   3.271   2.847 -0.3597  0.1816 -0.3387
   96MOL   H31230902   6.691   3.465   2.728 -1.8068  2.0220 -1.9597
   96MOL   H31330903   6.621   3.390   2.581  1.5719 -0.9627  0.0197
   96MOL   H31430904   6.739   3.269   2.836 -0.5102  1.2706  0.0598
   96MOL   H31530905   6.928   3.124   2.715  2.2120 -0.8291  0.4938
   96MOL   H31630906   7.155   3.195   2.608 -2.6235 -4.0385 -0.6244
   96MOL   H31730907   7.087   3.355   2.585  2.2802 -0.3076 -0.3058
   96MOL   H31830908   7.019   3.224   2.503  1.5686  1.0247 -0.8600
   96MOL   H31930909   7.100   3.206   2.867 -0.4427 -0.1197 -0.9438
   96MOL   H32030910   6.931   3.260   2.916 -1.8050  0.7969 -1.9589
   96MOL   H32130911   7.035   3.378   2.856  2.1049 -0.3787  1.4325
   96MOL   H32230912   6.707   3.176   2.685  1.0075 -0.4924 -0.1211
   97MOL     C130913   5.881   3.222   2.873 -0.4767  0.1031 -0.2955
   97MOL     C230914   5.862   3.187   2.725 -0.0924 -0.8866  0.3395
   97MOL     O330915   5.983   3.235   2.663 -0.0280 -0.2818  0.2864
   97MOL     C430916   5.977   3.244   2.518  0.2539 -0.2638  0.3438
   97MOL     C530917   6.090   3.174   2.460  0.2607  0.0296  0.4226
   97MOL     C630918   5.983   3.388   2.474  0.0707 -0.6551  0.6299
   97MOL     H730919   5.977   3.181   2.904 -0.2427 -1.3238 -2.7560
   97MOL     H830920   5.893   3.328   2.894 -3.3515 -0.3354  4.3066
   97MOL     H930921   5.777   3.239   2.680  0.3444 -0.6509 -0.2228
   97MOL    H1030922   5.885   3.200   2.480 -1.2005  1.6001  1.6013
   97MOL    H1130923   6.114   3.203   2.358  0.3608  0.8310  0.6700
   97MOL    H1230924   6.177   3.207   2.516  0.5864  0.3514 -0.2742
   97MOL    H1330925   6.086   3.066   2.472  0.8265 -0.1589 -1.0432
   97MOL    H1430926   6.079   3.435   2.491 -0.8252  0.5907  2.4382
   97MOL    H1530927   5.962   3.393   2.367  2.1351  0.4439  0.2654
   97MOL    H1630928   5.907   3.448   2.523  1.2282 -0.2997  1.9926
   97MOL    H1730929   5.801   3.186   2.937  0.8209  1.3749  2.1314
   97MOL    C1830930   5.857   3.035   2.697  0.3872  0.5228  0.4250
   97MOL    C1930931   5.743   2.957   2.774  0.3506 -0.1869  0.3249
   97MOL    O2030932   5.737   2.819   2.745  0.2308  0.1098  0.1997
   97MOL    C2130933   5.823   2.742   2.824  0.0045  1.1935 -0.1499
   97MOL    C2230934   5.884   2.616   2.761  0.7467  0.0315  0.3026
   97MOL    C2330935   5.758   2.708   2.960 -0.5355  0.5161  0.4587
   97MOL    H2430936   5.850   3.014   2.590  0.3767  1.2814  0.2764
   97MOL    H2530937   5.951   2.999   2.738  0.4100 -1.1265 -1.0325
   97MOL    H2630938   5.740   2.971   2.882 -0.1609 -1.7745  0.5243
   97MOL    H2730939   5.907   2.806   2.852  1.2331 -0.2338 -0.5361
   97MOL    H2830940   5.969   2.574   2.814 -0.3640 -0.7028  1.5552
   97MOL    H2930941   5.819   2.530   2.744  0.8567  0.0052  0.0230
   97MOL    H3030942   5.921   2.639   2.661  1.9747  0.6867  0.8906
   97MOL    H3130943   5.832   2.669   3.030  1.4192  1.8903 -0.7939
   97MOL    H3230944   5.685   2.628   2.951 -1.6057  1.6628 -1.3149
   97MOL    H3330945   5.707   2.788   3.015  0.4828  1.1383  0.5145
   97MOL    C3430946   5.607   3.006   2.718 -0.6421  0.0433 -0.1035
   97MOL    C3530947   5.478   2.970   2.801 -0.0374 -0.5388  0.4283
   97MOL    O3630948   5.458   2.829   2.831 -0.5395  0.7290  0.0293
   97MOL    C3730949   5.413   2.753   2.725 -0.0573  0.1996 -0.2553
   97MOL    C3830950   5.458   2.609   2.742  0.7962 -1.0737 -0.0562
   97MOL    C3930951   5.256   2.747   2.715  0.2936  0.6242  0.1637
   97MOL    H4030952   5.596   2.955   2.622  1.7442 -2.2090  0.7870
   97MOL    H4130953   5.598   3.110   2.684  2.5410  0.7605  1.0728
   97MOL    H4230954   5.386   3.009   2.757 -0.0052  1.0026  1.6560
   97MOL    H4330955   5.449   2.792   2.630  1.4371  1.4931  0.8329
   97MOL    H4430956   5.425   2.562   2.834  0.4293  0.0956  0.4173
   97MOL    H4530957   5.567   2.608   2.734  0.9112  1.2654  0.9144
   97MOL    H4630958   5.422   2.544   2.662  0.6498  0.2618 -1.0966
   97MOL    H4730959   5.211   2.734   2.814  0.8062  2.3692  0.6331
   97MOL    H4830960   5.227   2.848   2.686 -1.0747 -0.1813 -1.3585
   97MOL    H4930961   5.211   2.676   2.646  1.0301  0.0943  0.2254
   97MOL    C5030962   5.474   3.050   2.931 -0.6898  0.3022 -0.5064
   97MOL    C5130963   5.334   3.073   2.997  0.5958  0.2544 -0.4897
   97MOL    O5230964   5.259   3.180   2.936  0.2689  0.1547  0.2768
   97MOL    C5330965   5.119   3.160   2.944 -0.7846 -0.2854 -0.7187
   97MOL    C5430966   5.064   3.141   2.804  0.0653 -0.3287 -0.0894
   97MOL    C5530967   5.054   3.270   3.021 -0.4366 -0.6553  1.3127
   97MOL    H5630968   5.556   3.012   2.992 -1.0456 -2.1855 -1.5111
   97MOL    H5730969   5.518   3.147   2.907 -1.2050  0.7952  0.5345
   97MOL    H5830970   5.273   2.983   2.985 -1.9890  1.7863  0.6949
   97MOL    H5930971   5.089   3.071   3.000  0.6227 -1.3423 -1.5871
   97MOL    H6030972   4.956   3.146   2.789  0.0404  0.1474  0.2449
   97MOL    H6130973   5.084   3.040   2.769  0.6048 -0.6602  1.1489
   97MOL    H6230974   5.105   3.206   2.726 -1.4127 -0.5514 -1.0715
   97MOL    H6330975   5.106   3.301   3.111 -0.4199  0.5353  0.9108
   97MOL    H6430976   4.954   3.236   3.048  0.3330 -1.5367  3.0780
   97MOL    H6530977   5.034   3.365   2.970  0.5165 -0.5579  1.1023
   97MOL    C6630978   5.348   3.098   3.144 -0.1308 -0.5163  0.3897
   97MOL    C6730979   5.421   3.000   3.239 -0.2169 -0.2761  0.2748
   97MOL    O6830980   5.365   2.876   3.231 -0.0139 -0.3279 -0.3815
   97MOL    C6930981   5.436   2.772   3.170 -0.4807  0.4482  0.2365
   97MOL    C7030982   5.524   2.697   3.268 -1.1001 -0.0860 -0.3913
   97MOL    C7130983   5.336   2.670   3.114  0.2958  0.0340 -0.4014
   97MOL    H7230984   5.413   3.185   3.152  0.4018 -0.7398 -1.3541
   97MOL    H7330985   5.258   3.127   3.197 -1.2038 -1.0708 -1.0974
   97MOL    H7430986   5.527   2.987   3.217 -0.5958 -1.1586 -1.1517
   97MOL    H7530987   5.498   2.813   3.090  1.0339  1.8428  2.0845
   97MOL    H7630988   5.567   2.601   3.238  0.4447 -0.0321  1.4800
   97MOL    H7730989   5.614   2.758   3.282 -0.7868 -0.6387  0.0360
   97MOL    H7830990   5.480   2.693   3.367  0.1103  0.4994  0.1913
   97MOL    H7930991   5.295   2.705   3.019 -1.4284 -1.3252 -0.1693
   97MOL    H8030992   5.264   2.646   3.192  2.1623  2.5695  2.2219
   97MOL    H8130993   5.383   2.572   3.109 -1.0792 -0.6882  0.4881
   97MOL    C8230994   5.397   3.048   3.378  0.0908  0.1688  0.1154
   97MOL    C8330995   5.459   2.971   3.494  0.1323  0.1665 -0.0270
   97MOL    O8430996   5.505   3.073   3.587 -0.4755  0.2861  0.6762
   97MOL    C8530997   5.646   3.078   3.613  0.0866  0.0941  0.1536
   97MOL    C8630998   5.683   3.150   3.744 -0.2159  0.0360  0.0597
   97MOL    C8730999   5.713   3.137   3.492  0.2057  0.2863  0.6686
   97MOL    H8831000   5.424   3.153   3.394  0.3833  0.0136  0.6467
   97MOL    H8931001   5.289   3.048   3.393  0.0575 -2.3754  0.0456
   97MOL    H9031002   5.537   2.901   3.464  0.2392 -0.1104  0.8750
   97MOL    H9131003   5.676   2.973   3.607  0.7016  0.3572 -1.8834
   97MOL    H9231004   5.677   3.257   3.727 -0.8230  0.3359  2.0609
   97MOL    H9331005   5.615   3.129   3.826 -1.4159  2.8707 -0.1641
   97MOL    H9431006   5.778   3.122   3.790 -1.3065 -2.1614  1.0189
   97MOL    H9531007   5.821   3.141   3.503  0.2856 -1.3597  0.5964
   97MOL    H9631008   5.689   3.082   3.401 -1.1961 -1.6665  2.1738
   97MOL    H9731009   5.670   3.236   3.475  1.0046  0.4632 -0.3579
   97MOL    C9831010   5.358   2.880   3.573  0.1969  0.2080 -0.5656
   97MOL    C9931011   5.421   2.796   3.687  0.1297 -0.3413 -0.0299
   97MOL   O10031012   5.527   2.707   3.636  0.1161  0.2699  0.6378
   97MOL   C10131013   5.632   2.666   3.726  0.1241 -0.0940  0.0539
   97MOL   C10231014   5.775   2.708   3.675 -0.6620  0.7415  0.1160
   97MOL   C10331015   5.623   2.514   3.744  0.2170  0.7468 -0.3612
   97MOL   H10431016   5.276   2.943   3.605  0.7898  1.0756 -0.7534
   97MOL   H10531017   5.304   2.808   3.512  2.0746 -1.3812 -0.4293
   97MOL   H10631018   5.457   2.879   3.748  2.1602 -1.1785 -0.0777
   97MOL   H10731019   5.619   2.730   3.813  0.3525  0.3157 -0.2114
   97MOL   H10831020   5.846   2.633   3.710 -2.0275 -1.7300 -2.1945
   97MOL   H10931021   5.796   2.808   3.712  1.5767 -0.5015  2.3277
   97MOL   H11031022   5.783   2.703   3.566  0.4532  0.0486  0.2204
   97MOL   H11131023   5.682   2.469   3.664  0.3748 -2.0828  1.3057
   97MOL   H11231024   5.521   2.479   3.756 -0.8206  3.9259  0.5677
   97MOL   H11331025   5.666   2.485   3.840 -3.5519 -0.4199  1.0703
   97MOL   C11431026   5.318   2.730   3.783  0.2841 -0.2163  0.1268
   97MOL   C11531027   5.255   2.819   3.888  0.5187 -0.0581  0.6603
   97MOL   O11631028   5.161   2.909   3.821 -0.8446 -0.0563  0.2577
   97MOL   C11731029   5.125   3.036   3.880 -0.5758  0.2018 -0.7492
   97MOL   C11831030   4.999   3.078   3.800 -0.4221  0.6879  0.0553
   97MOL   C11931031   5.235   3.140   3.857 -0.3912 -0.3775 -0.2887
   97MOL   H12031032   5.380   2.652   3.828  0.1837  0.3485  1.2477
   97MOL   H12131033   5.248   2.668   3.728  0.4425 -0.1763 -0.1201
   97MOL   H12231034   5.328   2.886   3.933 -1.1510  2.4501 -0.2634
   97MOL   H12331035   5.089   3.021   3.983  2.5859 -0.0306  0.3616
   97MOL   H12431036   5.009   3.063   3.692  1.7754  0.5381  0.2429
   97MOL   H12531037   4.964   3.180   3.814 -1.3228  0.6356 -1.6878
   97MOL   H12631038   4.909   3.020   3.815  0.0815 -0.1638 -0.1672
   97MOL   H12731039   5.288   3.134   3.952 -0.9791 -1.1974 -0.0161
   97MOL   H12831040   5.209   3.245   3.844 -1.6660 -0.7205 -0.5859
   97MOL   H12931041   5.304   3.117   3.776  0.8213  1.4738  0.1897
   97MOL   C13031042   5.178   2.740   3.995 -0.6605 -0.5142 -0.1825
   97MOL   C13131043   5.227   2.769   4.130 -0.3692  0.6065  0.6524
   97MOL   O13231044   5.349   2.693   4.137 -0.0316 -0.0174 -0.3608
   97MOL   C13331045   5.448   2.760   4.217 -0.4062 -0.6217 -0.0938
   97MOL   C13431046   5.539   2.645   4.278  0.3483 -0.6384  0.6135
   97MOL   C13531047   5.511   2.879   4.136  0.0351  0.1195  0.2007
   97MOL   H13631048   5.183   2.632   3.981  0.2204 -0.4765 -0.1752
   97MOL   H13731049   5.073   2.766   3.981 -0.2553 -0.0582 -2.5396
   97MOL   H13831050   5.244   2.876   4.143  0.2891  0.4104  1.4504
   97MOL   H13931051   5.415   2.797   4.314  3.7575  1.3781  0.6731
   97MOL   H14031052   5.613   2.669   4.354 -0.7681 -0.7356  1.7385
   97MOL   H14131053   5.608   2.606   4.203  1.2942 -0.1830  1.2418
   97MOL   H14231054   5.475   2.569   4.321 -0.7883  0.2954  0.6124
   97MOL   H14331055   5.441   2.960   4.112 -1.5573 -1.1304  0.5036
   97MOL   H14431056   5.603   2.911   4.185  0.1152  1.4145 -0.7664
   97MOL   H14531057   5.545   2.850   4.037  0.7555  2.0687 -0.1521
   97MOL   C14631058   5.137   2.714   4.248  0.2319  0.5151  0.4759
   97MOL   C14731059   5.000   2.789   4.252  0.0109  0.2030 -0.5610
   97MOL   O14831060   4.921   2.714   4.350 -0.2161 -0.0171  0.5400
   97MOL   C14931061   4.812   2.633   4.302 -0.2165 -0.0363  0.3451
   97MOL   C15031062   4.728   2.597   4.430  0.6175 -0.0770 -0.6820
   97MOL   C15131063   4.854   2.507   4.227  0.3526  0.3060  0.3719
   97MOL   H15231064   5.171   2.727   4.351 -1.7451 -2.5217  1.5761
   97MOL   H15331065   5.125   2.606   4.237 -1.2546  0.5992  1.1190
   97MOL   H15431066   4.965   2.789   4.149 -1.3867  1.5116 -0.1076
   97MOL   H15531067   4.747   2.684   4.230 -0.8144 -0.1241  0.8168
   97MOL   H15631068   4.694   2.686   4.482 -0.1683 -1.7594  1.8017
   97MOL   H15731069   4.792   2.549   4.504  2.3160  1.8948 -0.8334
   97MOL   H15831070   4.647   2.531   4.400  1.7222  0.0024 -4.0891
   97MOL   H15931071   4.919   2.446   4.290  0.6585  1.6919  1.4279
   97MOL   H16031072   4.906   2.523   4.133 -0.3172  3.2665  0.4571
   97MOL   H16131073   4.767   2.443   4.212  1.2717 -0.7392 -0.5858
   97MOL   C16231074   5.006   2.932   4.305  0.1354 -0.4119 -0.6459
   97MOL   C16331075   4.870   3.010   4.295 -0.3517 -0.1728 -0.7891
   97MOL   O16431076   4.863   3.117   4.390 -0.2375 -0.3755 -0.2965
   97MOL   C16531077   4.777   3.088   4.502  0.2281  0.0350  0.3073
   97MOL   C16631078   4.720   3.223   4.549  0.4376 -0.1186  0.4267
   97MOL   C16731079   4.854   3.012   4.607  0.2941 -0.4850  0.6987
   97MOL   H16831080   5.044   2.927   4.407 -0.1066  1.7147 -0.4305
   97MOL   H16931081   5.084   2.993   4.258 -0.2642  0.8250  0.2588
   97MOL   H17031082   4.793   2.934   4.309 -0.3528  0.2818  2.1097
   97MOL   H17131083   4.691   3.025   4.483 -0.1440  0.5491  0.2773
   97MOL   H17231084   4.696   3.275   4.456  2.7012  0.9093  0.3941
   97MOL   H17331085   4.795   3.286   4.597  0.9785  0.5661 -1.2790
   97MOL   H17431086   4.630   3.213   4.609 -1.0444 -3.0198 -2.1209
   97MOL   H17531087   4.890   2.911   4.588 -0.4916 -1.0234  1.9683
   97MOL   H17631088   4.791   3.002   4.696  0.4562  0.1508  0.8863
   97MOL   H17731089   4.936   3.077   4.638 -0.3108 -0.2728  1.8921
   97MOL   C17831090   4.857   3.074   4.154  0.1665  0.1080  0.2447
   97MOL   C17931091   4.723   3.144   4.122  1.1580  0.0063 -0.1730
   97MOL   O18031092   4.737   3.214   3.997  0.1068  0.9073  0.4320
   97MOL   C18131093   4.718   3.357   3.990  0.9648  0.4468  0.3313
   97MOL   C18231094   4.693   3.408   3.847 -0.2703  0.0085 -0.3114
   97MOL   C18331095   4.839   3.433   4.045 -0.4085 -0.8222  0.0417
   97MOL   H18431096   4.879   3.003   4.074  1.3519 -1.1369  1.6500
   97MOL   H18531097   4.931   3.153   4.141 -1.1497  1.2914 -0.2625
   97MOL   H18631098   4.699   3.210   4.206  1.6137 -0.1972  0.1129
   97MOL   H18731099   4.626   3.380   4.045 -0.9104 -1.6279 -1.8070
   97MOL   H18831100   4.783   3.396   3.787  0.6248  1.6945  0.6336
   97MOL   H18931101   4.655   3.510   3.848 -0.8729 -0.1874 -1.9348
   97MOL   H19031102   4.620   3.334   3.814  0.3138 -0.5585 -0.3470
   97MOL   H19131103   4.927   3.422   3.981 -0.3260  0.2826 -0.0512
   97MOL   H19231104   4.869   3.402   4.146  0.3930 -0.5306 -0.0977
   97MOL   H19331105   4.813   3.538   4.060  0.6251 -0.5310 -0.1500
   97MOL   C19431106   4.610   3.034   4.113  0.4907 -0.4592 -0.6396
   97MOL   C19531107   4.464   3.084   4.103 -0.0868  0.3262  0.6891
   97MOL   O19631108   4.382   3.000   4.182  0.0489 -0.0236 -0.4136
   97MOL   C19731109   4.361   3.022   4.318 -0.2603 -0.1946  0.1020
   97MOL   C19831110   4.222   3.081   4.344 -0.3096  0.2868  0.0210
   97MOL   C19931111   4.377   2.878   4.380 -0.0078 -0.1617  0.1714
   97MOL   H20031112   4.633   2.960   4.035  2.0805  1.8840 -2.4805
   97MOL   H20131113   4.609   2.969   4.200 -2.2018 -1.7347 -1.5723
   97MOL   H20231114   4.453   3.178   4.157  1.2419  0.3496  0.9260
   97MOL   H20331115   4.425   3.098   4.365 -0.4567  0.1009 -0.1042
   97MOL   H20431116   4.206   3.159   4.269  2.6855  0.2085 -0.7711
   97MOL   H20531117   4.153   3.004   4.309  1.3248 -0.6553 -1.2031
   97MOL   H20631118   4.219   3.120   4.446  3.3106 -1.1639  0.7797
   97MOL   H20731119   4.371   2.877   4.489 -0.4694 -0.2318  0.1489
   97MOL   H20831120   4.304   2.809   4.337 -0.7546  0.3172  0.6652
   97MOL   H20931121   4.475   2.834   4.363 -0.7878 -1.6908 -0.4739
   97MOL   C21031122   4.415   3.082   3.958  0.2264  0.0150 -0.1454
   97MOL   C21131123   4.303   3.184   3.936  0.3147 -0.0627 -0.1129
   97MOL   O21231124   4.352   3.306   3.979 -0.4213  0.0372  0.2648
   97MOL   C21331125   4.251   3.408   3.984 -0.7594  0.3596  0.6324
   97MOL   C21431126   4.177   3.422   4.122  0.5185 -0.5110 -0.1632
   97MOL   C21531127   4.303   3.535   3.935  0.5688 -0.5243  0.0042
   97MOL   H21631128   4.385   2.986   3.914  2.4600 -0.4664 -0.6759
   97MOL   H21731129   4.498   3.117   3.897  1.4975 -1.3789  0.7439
   97MOL   H21831130   4.220   3.154   4.000  0.3385  0.8429  0.3452
   97MOL   H21931131   4.170   3.379   3.916 -0.7945  0.3208  0.6911
   97MOL   H22031132   4.115   3.512   4.114  0.6249 -0.4884 -0.7586
   97MOL   H22131133   4.243   3.440   4.207  1.0802 -3.1078 -0.0373
   97MOL   H22231134   4.115   3.340   4.158 -0.8301  0.6748  0.3230
   97MOL   H22331135   4.292   3.539   3.827 -1.6343 -0.1525  0.2253
   97MOL   H22431136   4.407   3.559   3.955  1.1296 -1.5994 -1.5045
   97MOL   H22531137   4.243   3.620   3.967  0.5458 -1.3674  2.2879
   97MOL   C22631138   4.261   3.183   3.791  0.4350 -0.1368  0.0901
   97MOL   C22731139   4.133   3.118   3.743  0.3852  0.5272 -0.5689
   97MOL   O22831140   4.028   3.161   3.826 -0.0244  0.0993  0.2229
   97MOL   C22931141   3.941   3.263   3.775  0.1753 -0.5392  0.5501
   97MOL   C23031142   3.872   3.326   3.897 -0.0490  0.3089 -0.2210
   97MOL   C23131143   3.836   3.199   3.695  0.0283  0.0361  0.0136
   97MOL   H23231144   4.342   3.151   3.725  0.5999 -0.4114  0.4283
   97MOL   H23331145   4.244   3.285   3.757 -1.3226 -0.1276  0.9495
   97MOL   H23431146   4.122   3.144   3.638  1.4667 -2.4275 -1.4752
   97MOL   H23531147   3.989   3.339   3.714 -1.9060 -0.3484 -0.8690
   97MOL   H23631148   3.946   3.385   3.953 -0.7446  2.7193 -1.7429
   97MOL   H23731149   3.785   3.387   3.875 -0.4492 -0.3833 -0.5552
   97MOL   H23831150   3.836   3.239   3.951  0.7575 -0.5525 -1.0574
   97MOL   H23931151   3.886   3.151   3.611 -3.2119 -1.3256 -1.2350
   97MOL   H24031152   3.763   3.269   3.656  0.6037  1.2673  1.1097
   97MOL   H24131153   3.777   3.125   3.749 -0.6712  0.6092  0.0387
   97MOL   C24231154   4.140   2.958   3.742  0.3085  0.1175  0.3350
   97MOL   C24331155   4.245   2.897   3.649 -0.3167 -1.0485  0.1380
   97MOL   O24431156   4.188   2.911   3.520 -0.5385 -0.2180 -0.5133
   97MOL   C24531157   4.284   2.936   3.415 -0.7312  0.5039  0.5338
   97MOL   C24631158   4.209   2.893   3.291 -0.2020 -0.5728  0.2053
   97MOL   C24731159   4.330   3.082   3.413 -0.0395  0.0501  0.2562
   97MOL   H24831160   4.159   2.928   3.845  0.2188  2.5038  1.0970
   97MOL   H24931161   4.040   2.924   3.716  0.3108  0.0740  0.3819
   97MOL   H25031162   4.340   2.951   3.655  0.0434 -1.6345 -0.2160
   97MOL   H25131163   4.370   2.870   3.421 -0.5590  0.6595 -0.1443
   97MOL   H25231164   4.178   2.789   3.292 -0.6841 -0.4713 -1.9961
   97MOL   H25331165   4.119   2.954   3.292 -0.2130 -0.5873 -0.0031
   97MOL   H25431166   4.259   2.928   3.201 -1.5341  2.4201  0.5607
   97MOL   H25531167   4.257   3.157   3.383 -0.0618 -0.6918 -1.6110
   97MOL   H25631168   4.361   3.118   3.511  1.3457  2.0775 -0.8940
   97MOL   H25731169   4.415   3.089   3.345 -1.5909 -0.3991 -1.7710
   97MOL   C25831170   4.280   2.746   3.673  0.1983 -0.2317 -0.0434
   97MOL   C25931171   4.412   2.706   3.741 -0.2674 -0.5156  0.6310
   97MOL   O26031172   4.422   2.735   3.874  0.5236 -0.6144 -0.0881
   97MOL   C26131173   4.371   2.639   3.969  0.2670 -0.1154  0.2972
   97MOL   C26231174   4.456   2.655   4.096  0.0199  0.3636 -0.8275
   97MOL   C26331175   4.223   2.632   4.017 -0.2574  0.7361  0.5933
   97MOL   H26431176   4.196   2.698   3.722 -0.5233  0.5527 -0.5050
   97MOL   H26531177   4.278   2.704   3.573  1.3810  1.1126 -0.6520
   97MOL   H26631178   4.415   2.599   3.723 -2.9484 -0.6336  0.6969
   97MOL   H26731179   4.398   2.542   3.927  1.0486  0.5084 -0.6518
   97MOL   H26831180   4.438   2.758   4.126  1.7021 -0.1328  2.0518
   97MOL   H26931181   4.561   2.661   4.066  0.1595  1.9833 -0.0442
   97MOL   H27031182   4.432   2.590   4.180  1.7313  2.5274  1.3985
   97MOL   H27131183   4.210   2.577   4.110  2.4938 -1.3054 -0.1437
   97MOL   H27231184   4.186   2.734   4.009 -1.2861  0.3095 -0.2531
   97MOL   H27331185   4.162   2.591   3.937  0.3552  0.7672  0.1021
   97MOL   C27431186   4.531   2.776   3.675  0.0000  0.4968 -0.5282
   97MOL   C27531187   4.663   2.706   3.693 -0.1499  0.1613  0.3180
   97MOL   O27631188   4.666   2.570   3.649  0.8065 -0.2664 -0.4010
   97MOL   C27731189   4.721   2.473   3.738  0.0502  0.8781  0.5527
   97MOL   C27831190   4.880   2.481   3.735  0.3396  1.0077  0.3919
   97MOL   C27931191   4.676   2.339   3.679  0.0822  0.4377  0.4165
   97MOL   H28031192   4.513   2.772   3.568  0.2327 -3.0672 -0.4971
   97MOL   H28131193   4.533   2.876   3.718 -3.9061  1.2615 -1.9772
   97MOL   H28231194   4.670   2.701   3.802 -1.1794  1.1487  0.4390
   97MOL   H28331195   4.682   2.486   3.838  0.3293  1.1212  0.6327
   97MOL   H28431196   4.912   2.496   3.632  0.0284 -1.4750 -0.0968
   97MOL   H28531197   4.915   2.565   3.795  1.5985  0.6515  0.1683
   97MOL   H28631198   4.926   2.390   3.772 -2.8942 -0.1955  1.6145
   97MOL   H28731199   4.731   2.313   3.589 -0.5714 -1.0401  0.4352
   97MOL   H28831200   4.572   2.337   3.645 -0.3393 -0.4859  1.7415
   97MOL   H28931201   4.691   2.252   3.742 -0.6061 -0.9760 -1.3150
   97MOL   C29031202   4.784   2.786   3.643 -0.7661  0.4445  0.5423
   97MOL   C29131203   4.803   2.806   3.493 -0.1604  0.1071  0.2263
   97MOL   O29231204   4.868   2.932   3.475  0.7576 -0.6124  0.3631
   97MOL   C29331205   4.789   3.024   3.396 -0.6586  0.6145 -0.5309
   97MOL   C29431206   4.886   3.129   3.334 -0.1321  0.0734  0.5348
   97MOL   C29531207   4.707   3.096   3.500 -0.0499  0.3313  0.3206
   97MOL   H29631208   4.885   2.767   3.678 -0.3987  0.0684 -0.7118
   97MOL   H29731209   4.763   2.884   3.686  0.7060 -0.5430  3.6683
   97MOL   H29831210   4.704   2.799   3.448 -0.4619 -1.1053  1.0482
   97MOL   H29931211   4.726   2.979   3.319 -2.0397 -1.2858  1.6390
   97MOL   H30031212   4.944   3.075   3.259 -1.0459 -1.6904  1.0782
   97MOL   H30131213   4.832   3.209   3.282  0.8232  0.7917  0.6333
   97MOL   H30231214   4.964   3.162   3.403 -2.6417  1.3460  2.8139
   97MOL   H30331215   4.624   3.051   3.555 -1.6105  1.8902 -0.7430
   97MOL   H30431216   4.768   3.148   3.574  2.0074 -3.2277  1.2331
   97MOL   H30531217   4.647   3.177   3.459 -2.2677 -0.6286  1.5443
   97MOL   C30631218   4.888   2.700   3.428 -0.8816 -0.3652  0.0373
   97MOL   C30731219   4.912   2.708   3.279  0.1036 -0.0993 -0.5268
   97MOL   O30831220   5.017   2.620   3.241 -0.1541  0.0794  0.0485
   97MOL   C30931221   4.967   2.495   3.205 -0.2907  0.1405 -0.2919
   97MOL   C31031222   5.012   2.465   3.068 -0.1711 -0.2010  0.5629
   97MOL   C31131223   5.029   2.391   3.295 -0.2547 -0.5646 -0.6461
   97MOL   H31231224   4.836   2.605   3.441  0.2994 -1.0545 -0.2429
   97MOL   H31331225   4.983   2.696   3.482 -1.6580  1.1642  1.5651
   97MOL   H31431226   4.819   2.683   3.229 -0.3251  0.8784 -0.2123
   97MOL   H31531227   4.861   2.477   3.189  0.1419 -0.8354 -2.2251
   97MOL   H31631228   4.989   2.362   3.038 -0.6596  0.1691 -0.3351
   97MOL   H31731229   5.119   2.487   3.061 -0.3011  1.2354  2.7742
   97MOL   H31831230   4.957   2.526   2.996  1.0449 -0.2422 -0.4245
   97MOL   H31931231   5.137   2.390   3.311 -0.2507  0.9338 -0.4620
   97MOL   H32031232   5.009   2.294   3.251  1.3800 -1.4058  0.4433
   97MOL   H32131233   4.977   2.393   3.391  0.3181  2.4435 -0.3496
   97MOL   H32231234   4.947   2.805   3.245  0.5353 -0.1628 -0.2682
   98MOL     C131235   4.141   1.909   0.569 -0.2818 -0.1467 -0.3406
   98MOL     C231236   4.283   1.901   0.509  0.3242 -0.1284  0.6086
   98MOL     O331237   4.383   1.893   0.604  0.2644 -0.1180 -0.7974
   98MOL     C431238   4.425   2.008   0.688  1.0108  0.6023  0.3564
   98MOL     C531239   4.546   2.080   0.634  0.0239 -0.5998  0.5941
   98MOL     C631240   4.467   1.948   0.822 -0.0658  0.2988  0.8687
   98MOL     H731241   4.130   2.009   0.609  1.4317  0.1330 -0.5664
   98MOL     H831242   4.061   1.899   0.495 -0.6934 -0.0087  0.0863
   98MOL     H931243   4.297   1.990   0.448 -2.0550  1.0011  1.6783
   98MOL    H1031244   4.342   2.073   0.716  1.0248  1.5656 -1.7480
   98MOL    H1131245   4.580   2.157   0.704  1.4714 -1.5119  0.9054
   98MOL    H1231246   4.629   2.018   0.602  0.2899  1.3428 -2.5957
   98MOL    H1331247   4.516   2.125   0.540 -0.0517  2.8567  2.1780
   98MOL    H1431248   4.538   1.869   0.799 -1.0466 -0.0202 -1.1804
   98MOL    H1531249   4.505   2.028   0.886 -0.2506  1.7410 -0.8014
   98MOL    H1631250   4.386   1.903   0.881 -0.1236  1.3743  1.6250
   98MOL    H1731251   4.123   1.835   0.647 -0.5307  0.7017  0.4129
   98MOL    C1831252   4.307   1.786   0.408 -0.4032 -0.8940 -0.6913
   98MOL    C1931253   4.421   1.810   0.311  0.0833 -0.7190  0.3709
   98MOL    O2031254   4.383   1.901   0.216 -0.0318  0.0007  0.4076
   98MOL    C2131255   4.488   1.983   0.163 -0.4358  0.5472 -1.0802
   98MOL    C2231256   4.487   2.125   0.221  0.3680  0.0355 -0.1208
   98MOL    C2331257   4.476   1.975   0.011 -0.3006 -0.1189 -0.5191
   98MOL    H2431258   4.344   1.699   0.463  2.9544  0.1905 -1.1616
   98MOL    H2531259   4.218   1.752   0.355 -0.9437  1.8670 -1.6268
   98MOL    H2631260   4.503   1.851   0.370  0.6237 -0.2761 -0.6778
   98MOL    H2731261   4.583   1.939   0.194  0.1491  1.4388 -1.6035
   98MOL    H2831262   4.570   2.181   0.178 -0.4831  1.4555  0.0319
   98MOL    H2931263   4.396   2.170   0.179 -1.0159 -1.0595  1.6369
   98MOL    H3031264   4.495   2.135   0.329  0.7266  0.7225 -0.2042
   98MOL    H3131265   4.376   2.006   7.803  0.5151  1.0883 -2.1531
   98MOL    H3231266   4.495   1.873   7.795 -1.7808 -0.2950 -0.8189
   98MOL    H3331267   4.544   2.039   7.776 -2.4516  2.6862  0.0018
   98MOL    C3431268   4.467   1.686   0.233 -0.3560  0.2266 -0.0917
   98MOL    C3531269   4.520   1.563   0.311 -0.1897  0.0433 -0.0176
   98MOL    O3631270   4.547   1.464   0.209  0.4799  0.0172  0.0858
   98MOL    C3731271   4.456   1.365   0.175  0.1620  0.6673  0.5950
   98MOL    C3831272   4.494   1.294   0.041  0.1164 -0.0259 -0.3417
   98MOL    C3931273   4.458   1.266   0.292 -0.0699  0.3233 -0.0048
   98MOL    H4031274   4.537   1.723   0.157  0.4061  2.0536  1.4632
   98MOL    H4131275   4.380   1.657   0.174  0.5161 -2.5507 -0.1189
   98MOL    H4231276   4.447   1.528   0.384 -3.5939  1.7342 -2.5092
   98MOL    H4331277   4.364   1.421   0.161  1.8621  3.4505  0.1012
   98MOL    H4431278   4.582   1.230   0.051  0.1344 -0.0835 -0.8547
   98MOL    H4531279   4.499   1.371   7.785  0.5513  0.4734  0.1862
   98MOL    H4631280   4.411   1.227   0.018  1.0759 -1.2880 -0.2172
   98MOL    H4731281   4.449   1.317   0.388  0.0191 -0.4247  0.4078
   98MOL    H4831282   4.373   1.199   0.285  1.0520 -1.1430  0.1233
   98MOL    H4931283   4.545   1.201   0.289  0.3356  0.8790 -0.5862
   98MOL    C5031284   4.657   1.587   0.382  0.7217 -0.3402 -0.3228
   98MOL    C5131285   4.713   1.467   0.456 -0.0872  0.2423 -0.5564
   98MOL    O5231286   4.646   1.474   0.583  0.1363  0.2236  0.0803
   98MOL    C5331287   4.660   1.353   0.652 -0.6777 -0.4865 -1.1729
   98MOL    C5431288   4.522   1.286   0.649  0.0443  0.8526  0.0821
   98MOL    C5531289   4.697   1.385   0.799  0.0299  0.0499  0.2039
   98MOL    H5631290   4.732   1.615   0.309  3.4623 -0.5946  2.2864
   98MOL    H5731291   4.652   1.662   0.461 -1.4355 -1.4469  0.6620
   98MOL    H5831292   4.683   1.379   0.401 -0.3147 -2.1315  3.2066
   98MOL    H5931293   4.732   1.280   0.615 -1.2664 -2.0961  0.7784
   98MOL    H6031294   4.515   1.218   0.734 -1.4760  1.5911  0.5660
   98MOL    H6131295   4.497   1.225   0.562  0.2031  2.2087 -0.9305
   98MOL    H6231296   4.444   1.362   0.658 -0.5407  0.4816 -1.5739
   98MOL    H6331297   4.674   1.303   0.868 -2.0320 -0.1519 -0.7018
   98MOL    H6431298   4.641   1.475   0.823 -1.9423 -0.8819 -0.8370
   98MOL    H6531299   4.804   1.405   0.806  0.5604 -1.5712 -2.3621
   98MOL    C6631300   4.864   1.480   0.485  0.0855 -0.0439  0.0164
   98MOL    C6731301   4.952   1.464   0.358 -0.0393 -0.0768 -0.5517
   98MOL    O6831302   4.946   1.333   0.302  0.1000  0.3844 -0.1566
   98MOL    C6931303   4.878   1.320   0.179  0.4533 -0.2789 -0.1038
   98MOL    C7031304   4.971   1.357   0.061 -0.2703 -0.5198 -0.3516
   98MOL    C7131305   4.838   1.176   0.176  0.3655  0.1871  0.0706
   98MOL    H7231306   4.873   1.579   0.530  0.3335 -0.6263  1.2656
   98MOL    H7331307   4.908   1.420   0.564 -0.3243 -1.9578 -1.1937
   98MOL    H7431308   4.922   1.533   0.280 -1.2354 -0.2497 -0.2523
   98MOL    H7531309   4.791   1.385   0.187 -0.7542 -1.7964 -0.8749
   98MOL    H7631310   4.909   1.332   7.796 -1.2093 -0.0483  0.1841
   98MOL    H7731311   4.982   1.465   0.054 -0.4580 -0.4838 -0.1207
   98MOL    H7831312   5.065   1.302   0.059 -0.4803 -0.8376 -2.1946
   98MOL    H7931313   4.772   1.169   0.263  0.5800 -0.5301  0.1788
   98MOL    H8031314   4.928   1.121   0.203  0.6123  1.1628  1.2794
   98MOL    H8131315   4.801   1.146   0.078  1.3933  0.5386 -0.4319
   98MOL    C8231316   5.103   1.495   0.394 -0.0148 -0.3385 -0.3855
   98MOL    C8331317   5.135   1.626   0.461  0.5975  0.1125  0.2360
   98MOL    O8431318   5.282   1.647   0.462  0.4174  0.3613  0.2280
   98MOL    C8531319   5.357   1.596   0.573  0.1030 -0.5513 -0.0971
   98MOL    C8631320   5.351   1.698   0.694  0.6864 -0.3559  0.0651
   98MOL    C8731321   5.500   1.587   0.522  0.3615 -0.1835 -0.0670
   98MOL    H8831322   5.139   1.410   0.451 -2.1675 -1.7493 -1.0360
   98MOL    H8931323   5.164   1.493   0.304 -0.8249  0.0487 -0.9553
   98MOL    H9031324   5.103   1.634   0.565 -0.5886 -0.8883 -0.0527
   98MOL    H9131325   5.331   1.495   0.602 -0.6474 -0.7854 -1.5692
   98MOL    H9231326   5.393   1.795   0.667  1.7289 -0.9926 -0.6241
   98MOL    H9331327   5.253   1.707   0.742  1.0121  0.8943  0.5196
   98MOL    H9431328   5.414   1.655   0.772  0.5677 -0.9240 -0.1479
   98MOL    H9531329   5.570   1.540   0.591  0.9638 -0.2990 -0.7591
   98MOL    H9631330   5.510   1.522   0.435  0.7584 -0.6890  0.3540
   98MOL    H9731331   5.524   1.689   0.492  0.3122 -0.0663  0.2831
   98MOL    C9831332   5.085   1.751   0.384  0.2649 -0.4143 -0.2639
   98MOL    C9931333   5.116   1.893   0.420  0.5186 -1.4135  0.1356
   98MOL   O10031334   5.029   1.975   0.348  0.1967  0.3078 -0.2750
   98MOL   C10131335   4.908   2.019   0.412 -0.1028  0.5881  0.0623
   98MOL   C10231336   4.802   1.903   0.402 -0.0592 -0.4634  0.1595
   98MOL   C10331337   4.874   2.148   0.334 -0.2509  0.8949 -1.0201
   98MOL   H10431338   5.112   1.744   0.278  0.9994 -0.6043 -0.0719
   98MOL   H10531339   4.978   1.733   0.391 -0.0391  1.5221  0.3366
   98MOL   H10631340   5.097   1.906   0.527  1.1454  1.0014 -0.0245
   98MOL   H10731341   4.925   2.038   0.518  2.7420  0.7069 -0.3967
   98MOL   H10831342   4.820   1.830   0.481  3.2156 -0.9374 -0.9559
   98MOL   H10931343   4.783   1.869   0.300 -0.4878  4.0507 -1.3784
   98MOL   H11031344   4.708   1.948   0.435 -1.2161 -1.2389 -1.9922
   98MOL   H11131345   4.780   2.182   0.378 -0.2343 -0.6511  0.2658
   98MOL   H11231346   4.861   2.124   0.228 -2.7589 -0.7394 -0.3881
   98MOL   H11331347   4.946   2.229   0.339  1.1930 -0.4601  0.8582
   98MOL   C11431348   5.261   1.942   0.384  0.4413  0.2407 -0.3778
   98MOL   C11531349   5.284   2.087   0.408 -0.1538 -0.0858 -0.4400
   98MOL   O11631350   5.296   2.111   0.553  0.9265  0.4261 -0.3893
   98MOL   C11731351   5.243   2.231   0.596 -0.0237  0.1469  0.2035
   98MOL   C11831352   5.365   2.316   0.642  0.3917 -0.2880  0.6631
   98MOL   C11931353   5.143   2.190   0.701  0.3192  0.2180 -0.1344
   98MOL   H12031354   5.278   1.920   0.278  0.8468  1.3440 -0.5436
   98MOL   H12131355   5.333   1.882   0.440  0.6828  1.0978  0.2280
   98MOL   H12231356   5.206   2.153   0.368  1.7129  2.2216 -0.4336
   98MOL   H12331357   5.192   2.284   0.516  0.0668 -1.1210 -0.7152
   98MOL   H12431358   5.407   2.273   0.733 -2.2088 -2.0729  1.0725
   98MOL   H12531359   5.318   2.407   0.679 -0.4969 -0.0309 -1.0500
   98MOL   H12631360   5.442   2.332   0.567 -0.8409  0.5267 -0.4411
   98MOL   H12731361   5.122   2.273   0.769  0.8412  0.2141  0.0292
   98MOL   H12831362   5.175   2.103   0.758  1.1513 -0.6592 -1.9180
   98MOL   H12931363   5.052   2.157   0.650  0.1417  0.1775  0.2031
   98MOL   C13031364   5.416   2.137   0.346 -0.4653  0.3410  0.1210
   98MOL   C13131365   5.439   2.117   0.198  0.4506 -0.1766 -0.4394
   98MOL   O13231366   5.562   2.181   0.171  0.1585  0.4761 -0.0630
   98MOL   C13331367   5.669   2.093   0.136  0.4347  0.5760 -0.0268
   98MOL   C13431368   5.773   2.161   0.040 -0.4596  0.0472  0.3389
   98MOL   C13531369   5.746   2.053   0.269 -0.2823 -0.8520 -0.3547
   98MOL   H13631370   5.493   2.077   0.395 -1.0985 -0.7059 -0.1393
   98MOL   H13731371   5.436   2.239   0.376 -0.6034 -0.0718  1.6460
   98MOL   H13831372   5.441   2.011   0.173 -0.0080 -0.2329 -0.2586
   98MOL   H13931373   5.624   2.010   0.082 -0.3520  1.4082 -0.6732
   98MOL   H14031374   5.828   2.237   0.096  0.2333  1.0701 -1.6563
   98MOL   H14131375   5.718   2.211   7.780 -2.1180  0.2359  1.5804
   98MOL   H14231376   5.845   2.090   7.819  3.8974  2.3083  3.5268
   98MOL   H14331377   5.767   2.140   0.331 -0.4067 -0.1055 -1.3456
   98MOL   H14431378   5.697   1.971   0.322 -0.7912 -0.9963 -1.0384
   98MOL   H14531379   5.844   2.015   0.240  0.7988  0.1152  1.9649
   98MOL   C14631380   5.339   2.207   0.118  0.6146 -0.1759  0.5805
   98MOL   C14731381   5.347   2.193   7.789 -0.2581 -0.0870 -0.6117
   98MOL   O14831382   5.263   2.093   7.735 -0.5538  1.0085 -0.7107
   98MOL   C14931383   5.318   1.962   7.711  0.5555  0.6265 -0.5473
   98MOL   C15031384   5.293   1.930   7.555  0.2699 -0.3028 -0.4004
   98MOL   C15131385   5.227   1.862   7.796  0.0871  0.0864  1.2602
   98MOL   H15231386   5.359   2.311   0.142  1.7961  0.2221 -1.9773
   98MOL   H15331387   5.234   2.197   0.146 -0.1762  2.8638 -1.0988
   98MOL   H15431388   5.451   2.177   7.762  0.1677  0.2394  0.7805
   98MOL   H15531389   5.422   1.951   7.742  0.9717 -1.9468 -2.6451
   98MOL   H15631390   5.193   1.955   7.519 -0.0359 -0.6418  0.1935
   98MOL   H15731391   5.300   1.823   7.539 -2.4144 -0.7002  0.7956
   98MOL   H15831392   5.359   1.986   7.488 -2.1494  2.6437 -0.4325
   98MOL   H15931393   5.235   1.873   0.084 -1.3994  0.0882  1.3842
   98MOL   H16031394   5.242   1.760   7.759 -0.1486  1.0364 -1.5354
   98MOL   H16131395   5.119   1.876   7.789 -0.0393 -0.9790  0.9506
   98MOL   C16231396   5.311   2.325   7.717 -0.2494 -0.5987  0.1371
   98MOL   C16331397   5.171   2.389   7.750  0.1194  0.1917 -0.4048
   98MOL   O16431398   5.199   2.494   0.025  0.2572  0.3271  0.2826
   98MOL   C16531399   5.096   2.545   0.099 -0.4360 -0.5128 -0.3491
   98MOL   C16631400   5.109   2.701   0.105 -0.1108  0.8497  0.2129
   98MOL   C16731401   5.107   2.490   0.246 -0.8509 -0.2870 -0.0054
   98MOL   H16831402   5.391   2.398   7.721 -1.0760  0.2760  1.1581
   98MOL   H16931403   5.302   2.298   7.612  1.1561  2.3143 -0.7830
   98MOL   H17031404   5.116   2.305   7.792  0.2303  0.1466 -0.3490
   98MOL   H17131405   4.999   2.518   0.057 -1.1146  2.0053 -0.4967
   98MOL   H17231406   5.117   2.725   7.819 -0.5881 -1.4735 -0.3798
   98MOL   H17331407   5.197   2.737   0.158  0.8056  0.7790 -1.2367
   98MOL   H17431408   5.020   2.742   0.152  0.0333  2.8205 -1.1590
   98MOL   H17531409   5.111   2.381   0.254  0.5388 -0.2138  0.3814
   98MOL   H17631410   5.017   2.510   0.305 -1.5987  0.1109 -1.2521
   98MOL   H17731411   5.195   2.526   0.298 -1.6148 -0.2913  1.3229
   98MOL   C17831412   5.100   2.452   7.628 -0.0603 -1.1098 -0.2919
   98MOL   C17931413   5.015   2.358   7.542  0.6730  0.2973  0.0309
   98MOL   O18031414   4.883   2.364   7.592 -0.2715  0.3697 -0.4727
   98MOL   C18131415   4.840   2.307   7.713  0.1117 -0.3583  0.6298
   98MOL   C18231416   4.862   2.157   7.709  0.0758 -0.2049 -0.2749
   98MOL   C18331417   4.695   2.342   7.747  0.4652 -0.2299  0.0059
   98MOL   H18431418   5.180   2.499   7.570  0.1438 -1.1420 -0.0390
   98MOL   H18531419   5.030   2.530   7.660  1.0376 -1.1857  2.4585
   98MOL   H18631420   5.054   2.256   7.545  0.0689 -0.0077 -1.8220
   98MOL   H18731421   4.897   2.343   7.798  3.5208 -0.4786 -1.5031
   98MOL   H18831422   4.967   2.128   7.701  0.0985  0.0106 -0.7698
   98MOL   H18931423   4.801   2.116   7.628 -1.7522 -1.3903  1.6618
   98MOL   H19031424   4.830   2.115   7.804  0.2791 -1.0356 -0.5594
   98MOL   H19131425   4.683   2.298   0.025 -1.0881  0.1479 -0.0009
   98MOL   H19231426   4.622   2.298   7.678 -0.4068  0.2625  0.6015
   98MOL   H19331427   4.687   2.449   7.762  2.1180 -0.1421  0.2859
   98MOL   C19431428   5.001   2.395   7.396 -0.3706  0.7682 -0.7881
   98MOL   C19531429   5.134   2.381   7.316 -0.7860  0.8533 -0.1757
   98MOL   O19631430   5.130   2.476   7.208 -0.2565  0.2272  0.7640
   98MOL   C19731431   5.144   2.621   7.235  0.6198 -0.1794  0.0819
   98MOL   C19831432   5.270   2.676   7.173  0.1353 -0.3524 -0.1152
   98MOL   C19931433   5.018   2.683   7.174 -0.3943  0.3881 -0.5657
   98MOL   H20031434   4.924   2.332   7.350 -0.2284 -0.8958  1.1724
   98MOL   H20131435   4.965   2.498   7.397 -1.7829  0.2888 -0.6515
   98MOL   H20231436   5.217   2.405   7.383 -0.5096  2.2599 -1.0077
   98MOL   H20331437   5.147   2.634   7.343 -0.8548  0.1693  0.0947
   98MOL   H20431438   5.276   2.666   7.065  2.5159  0.7293 -0.1286
   98MOL   H20531439   5.290   2.782   7.189 -1.1228 -0.5510  3.2472
   98MOL   H20631440   5.358   2.631   7.220  1.7654  1.6032 -1.1730
   98MOL   H20731441   4.937   2.689   7.246 -1.9018 -1.6085 -2.0494
   98MOL   H20831442   5.047   2.784   7.144  1.3141 -0.8173 -3.1327
   98MOL   H20931443   4.991   2.621   7.088 -2.9117 -2.0285  1.8762
   98MOL   C21031444   5.155   2.240   7.255  0.7107  0.5466  1.0983
   98MOL   C21131445   5.303   2.220   7.214 -0.2877  0.1944  0.3234
   98MOL   O21231446   5.386   2.200   7.331  0.2092 -0.4216 -0.4363
   98MOL   C21331447   5.518   2.264   7.334 -0.7171 -0.5052 -0.2256
   98MOL   C21431448   5.509   2.400   7.389 -0.4127  0.0304  0.2488
   98MOL   C21531449   5.601   2.178   7.428 -0.0553  0.0880 -0.0692
   98MOL   H21631450   5.100   2.238   7.161  1.3923  1.6626  0.6634
   98MOL   H21731451   5.125   2.154   7.315  1.8276 -1.4286 -1.0740
   98MOL   H21831452   5.329   2.311   7.160 -0.5278 -0.2339 -0.5145
   98MOL   H21931453   5.550   2.257   7.231 -1.7604  0.6683 -0.6415
   98MOL   H22031454   5.610   2.439   7.398  0.0790 -0.4567 -2.6809
   98MOL   H22131455   5.450   2.396   7.481 -0.1683 -0.5070  0.3839
   98MOL   H22231456   5.451   2.473   7.333  0.6559  0.5921 -0.1303
   98MOL   H22331457   5.702   2.220   7.432  0.1771 -0.5486  0.7636
   98MOL   H22431458   5.605   2.076   7.390 -0.4242 -0.6109  1.7002
   98MOL   H22531459   5.568   2.185   7.531  2.9106  2.0383  0.8093
   98MOL   C22631460   5.333   2.089   7.133 -1.1064 -0.4109  0.4123
   98MOL   C22731461   5.261   2.070   6.993 -0.4706  0.7807 -0.2245
   98MOL   O22831462   5.309   1.943   6.955 -0.7191 -0.9082 -0.7838
   98MOL   C22931463   5.228   1.876   6.859  0.9185 -0.4609 -0.2662
   98MOL   C23031464   5.205   1.730   6.899  0.0351  0.3410 -0.0963
   98MOL   C23131465   5.306   1.887   6.725 -0.2788  0.5708  0.2918
   98MOL   H23231466   5.322   2.004   7.200 -0.1044 -0.3913  0.5982
   98MOL   H23331467   5.436   2.093   7.099 -1.8632  0.8299 -1.8864
   98MOL   H23431468   5.155   2.060   7.018 -0.1524 -1.2159  0.3929
   98MOL   H23531469   5.126   1.914   6.851  0.2607 -2.4845 -1.7749
   98MOL   H23631470   5.134   1.687   6.829  0.1883 -0.6082  0.3258
   98MOL   H23731471   5.297   1.671   6.900  0.6723  1.3254  0.9217
   98MOL   H23831472   5.180   1.708   7.003 -0.0135  1.7441  0.2050
   98MOL   H23931473   5.251   1.869   6.632 -0.1922  1.4398  0.0754
   98MOL   H24031474   5.398   1.830   6.718 -0.2205  0.8270 -1.3628
   98MOL   H24131475   5.336   1.990   6.711  1.3828  0.0074 -0.4360
   98MOL   C24231476   5.283   2.187   6.895  0.8651  0.4592  0.3715
   98MOL   C24331477   5.420   2.250   6.877 -0.0855 -0.8921  0.4610
   98MOL   O24431478   5.394   2.362   6.793 -0.2696  0.7056 -0.2190
   98MOL   C24531479   5.382   2.485   6.867 -0.3593 -0.2559 -0.8053
   98MOL   C24631480   5.502   2.537   6.943  0.2974  0.1056 -0.3575
   98MOL   C24731481   5.348   2.609   6.774  0.0935 -0.2870  0.0512
   98MOL   H24831482   5.229   2.160   6.804  0.4021  1.1845  0.4187
   98MOL   H24931483   5.212   2.265   6.926 -2.2529 -1.0865 -2.5466
   98MOL   H25031484   5.459   2.281   6.974 -1.6613 -0.7917  1.0837
   98MOL   H25131485   5.311   2.475   6.949 -1.1104  0.2496 -1.3873
   98MOL   H25231486   5.585   2.549   6.873  1.0127  1.2931  0.6599
   98MOL   H25331487   5.483   2.635   6.989  0.0126 -0.4312  0.6913
   98MOL   H25431488   5.551   2.477   7.020  2.1156  0.8464 -0.9034
   98MOL   H25531489   5.429   2.631   6.705 -1.6190  2.4305 -1.1455
   98MOL   H25631490   5.265   2.584   6.708  1.8434 -0.8925 -1.9819
   98MOL   H25731491   5.329   2.693   6.841  1.4595 -1.7272  2.3368
   98MOL   C25831492   5.522   2.161   6.800  0.2908  0.5112  0.0989
   98MOL   C25931493   5.668   2.194   6.829  0.6641 -0.4744  0.3512
   98MOL   O26031494   5.740   2.151   6.714 -0.7110 -0.1021  0.1804
   98MOL   C26131495   5.723   2.222   6.596  0.1753 -0.1269  0.5077
   98MOL   C26231496   5.854   2.300   6.583  0.6621  0.5712 -0.0347
   98MOL   C26331497   5.708   2.116   6.481  0.3370 -0.6279  0.0280
   98MOL   H26431498   5.514   2.055   6.823  3.5611  0.2057  0.0932
   98MOL   H26531499   5.500   2.164   6.693  2.3550 -1.2487 -0.4119
   98MOL   H26631500   5.691   2.300   6.838 -0.1656  0.0015 -2.6390
   98MOL   H26731501   5.642   2.295   6.595  0.6174  0.3531 -0.0387
   98MOL   H26831502   5.880   2.369   6.663  2.4153 -0.6582  0.4761
   98MOL   H26931503   5.851   2.362   6.493 -2.1723 -0.9646 -1.0730
   98MOL   H27031504   5.942   2.237   6.568  1.2399  1.5518 -0.8463
   98MOL   H27131505   5.649   2.033   6.519  1.3498 -1.2448  0.2659
   98MOL   H27231506   5.663   2.149   6.388 -2.0492  0.4655  1.5310
   98MOL   H27331507   5.807   2.077   6.456  1.8959  2.2254  1.4581
   98MOL   C27431508   5.725   2.116   6.945 -0.0775 -0.7907 -0.3580
   98MOL   C27531509   5.843   2.193   7.017 -0.2146  0.2452  0.8341
   98MOL   O27631510   5.803   2.320   7.055 -0.2051  0.2083  0.0805
   98MOL   C27731511   5.900   2.414   7.073  0.7019  0.0428  0.1591
   98MOL   C27831512   5.877   2.475   7.209  0.7611 -0.7438 -0.2007
   98MOL   C27931513   5.892   2.519   6.952  0.0185 -0.5470 -0.5177
   98MOL   H28031514   5.641   2.086   7.007 -1.6498  1.2062 -1.4675
   98MOL   H28131515   5.773   2.021   6.920  1.1220 -0.7283  1.5753
   98MOL   H28231516   5.928   2.209   6.951  0.5610  0.0299  1.7762
   98MOL   H28331517   6.004   2.381   7.072  0.8605  0.4702 -2.8498
   98MOL   H28431518   5.949   2.556   7.218  0.9505 -1.0741  1.3633
   98MOL   H28531519   5.776   2.516   7.220  1.0932 -0.0412  0.2449
   98MOL   H28631520   5.899   2.400   7.284  0.1674 -2.2634 -1.5119
   98MOL   H28731521   5.966   2.598   6.968 -0.4926 -0.0237 -0.7541
   98MOL   H28831522   5.791   2.560   6.947 -0.6458 -2.3391 -2.7414
   98MOL   H28931523   5.911   2.473   6.855 -2.1195 -1.0556 -0.7086
   98MOL   C29031524   5.896   2.120   7.138  0.1744  0.7682  0.4937
   98MOL   C29131525   5.952   1.972   7.112  0.6280 -0.7068  0.4556
   98MOL   O29231526   6.070   1.975   7.033 -0.1701  0.2126  0.0017
   98MOL   C29331527   6.076   1.862   6.950  0.1584 -0.3301  0.1687
   98MOL   C29431528   6.220   1.817   6.986 -0.5455 -0.3591 -0.0821
   98MOL   C29531529   6.070   1.918   6.808 -0.1229 -0.3235 -0.0234
   98MOL   H29631530   5.819   2.108   7.214 -1.2186  2.0841 -0.6850
   98MOL   H29731531   5.977   2.180   7.180  0.9432 -0.7285  1.1756
   98MOL   H29831532   5.874   1.915   7.064 -1.0914  1.1413  0.9755
   98MOL   H29931533   6.010   1.780   6.978  0.3711 -0.6345 -0.2071
   98MOL   H30031534   6.292   1.896   6.963  0.7831 -2.3823 -3.2486
   98MOL   H30131535   6.234   1.793   7.092  2.3823  3.0229  0.3991
   98MOL   H30231536   6.266   1.733   6.933 -0.7355 -0.5443  0.0471
   98MOL   H30331537   6.138   2.001   6.792 -0.7064 -0.0703 -1.2708
   98MOL   H30431538   6.091   1.840   6.734  0.3282 -0.6352  0.4331
   98MOL   H30531539   5.975   1.965   6.782 -0.5454 -0.4883  1.1993
   98MOL   C30631540   5.983   1.898   7.246 -0.1244 -0.0275  0.7776
   98MOL   C30731541   6.101   1.944   7.332 -1.0178  0.4050  0.8971
   98MOL   O30831542   6.062   2.056   7.405 -0.3267  0.5639 -0.0687
   98MOL   C30931543   6.159   2.128   7.482  0.9086 -0.4690 -0.2245
   98MOL   C31031544   6.105   2.271   7.469 -0.5019  0.7777 -0.4267
   98MOL   C31131545   6.154   2.087   7.633 -0.9784  0.0270 -0.3870
   98MOL   H31231546   6.015   1.799   7.212 -0.9772  0.3790 -1.2639
   98MOL   H31331547   5.897   1.882   7.310 -0.5396 -0.1133  0.2048
   98MOL   H31431548   6.124   1.872   7.411  0.2495  1.8886  1.9284
   98MOL   H31531549   6.264   2.133   7.453  0.6908  4.0405 -0.6998
   98MOL   H31631550   6.100   2.306   7.365 -0.8670  0.6801 -0.4447
   98MOL   H31731551   6.160   2.341   7.531  0.4527 -0.8627  0.5907
   98MOL   H31831552   6.000   2.280   7.497 -0.4364  2.3205 -0.6262
   98MOL   H31931553   6.176   2.180   7.686  0.2666  0.4472 -1.6010
   98MOL   H32031554   6.216   2.002   7.659 -1.5957 -1.2936 -3.0374
   98MOL   H32131555   6.052   2.063   7.663 -0.6621 -0.2517  0.4666
   98MOL   H32231556   6.188   1.962   7.268 -1.2116  0.4533  0.6457
   99MOL     C131557   6.552   2.156   6.608 -0.0541  0.3455  0.0958
   99MOL     C231558   6.521   2.240   6.736 -0.4438  0.0653  0.4675
   99MOL     O331559   6.388   2.212   6.774  0.0067  0.1313  0.4459
   99MOL     C431560   6.292   2.319   6.759 -0.6679  0.0842 -0.0171
   99MOL     C531561   6.216   2.328   6.894  0.6329 -0.4823 -0.0449
   99MOL     C631562   6.206   2.292   6.634 -1.0259  0.3195  0.0739
   99MOL     H731563   6.536   2.049   6.620 -2.4818  0.5992 -0.6699
   99MOL     H831564   6.499   2.189   6.519 -0.6682 -1.8703 -0.3835
   99MOL     H931565   6.545   2.344   6.712 -0.6677  0.2578  1.0781
   99MOL    H1031566   6.341   2.416   6.744  4.2540 -1.7642  2.7265
   99MOL    H1131567   6.155   2.418   6.895  1.3972  0.0563 -0.7285
   99MOL    H1231568   6.145   2.247   6.908 -1.2078  1.2590  0.9104
   99MOL    H1331569   6.282   2.334   6.981 -0.1443 -0.9716  0.5867
   99MOL    H1431570   6.144   2.380   6.622  0.6235  1.5224  0.2268
   99MOL    H1531571   6.257   2.267   6.540  0.2553  1.6110  0.4085
   99MOL    H1631572   6.133   2.212   6.647 -0.7230 -0.5033 -2.8567
   99MOL    H1731573   6.659   2.157   6.587  0.1828  1.4059  1.3042
   99MOL    C1831574   6.604   2.218   6.863 -0.0098  0.7910  0.1181
   99MOL    C1931575   6.754   2.250   6.855  0.3588 -0.0789 -0.4192
   99MOL    O2031576   6.829   2.181   6.949  0.4662 -0.1996  0.6459
   99MOL    C2131577   6.911   2.077   6.896 -0.8244 -0.0582 -0.4374
   99MOL    C2231578   6.843   1.944   6.900 -0.2196 -0.8051 -1.1352
   99MOL    C2331579   7.037   2.070   6.987 -0.1768  0.0368 -0.4561
   99MOL    H2431580   6.550   2.255   6.951  0.3085  1.0542  0.2051
   99MOL    H2531581   6.599   2.110   6.880  0.6625  0.8415  0.6740
   99MOL    H2631582   6.788   2.232   6.753 -0.4068  1.6184 -0.9958
   99MOL    H2731583   6.945   2.100   6.795 -0.9582 -0.1786 -0.5114
   99MOL    H2831584   6.906   1.856   6.886  0.4568 -0.4156 -0.5826
   99MOL    H2931585   6.795   1.940   6.997  0.4882  0.2939 -0.7311
   99MOL    H3031586   6.763   1.943   6.827 -1.7734 -0.4420  0.5356
   99MOL    H3131587   7.016   2.024   7.083  1.6633  0.9806  0.4168
   99MOL    H3231588   7.069   2.174   6.994  0.2835 -0.0917 -0.5925
   99MOL    H3331589   7.110   2.016   6.927 -0.4753  1.5838 -2.2914
   99MOL    C3431590   6.790   2.395   6.883 -0.1202  0.5052  0.3816
   99MOL    C3531591   6.813   2.483   6.759  1.7452  0.4158 -0.1820
   99MOL    O3631592   6.828   2.620   6.794  0.2209  0.1146 -0.3596
   99MOL    C3731593   6.712   2.692   6.820  0.1848  0.3486 -0.1346
   99MOL    C3831594   6.763   2.814   6.899 -0.3787 -0.2547 -0.0539
   99MOL    C3931595   6.653   2.739   6.683 -0.3110 -0.2974 -0.0316
   99MOL    H4031596   6.891   2.401   6.923  0.9245 -2.0889 -1.6994
   99MOL    H4131597   6.719   2.444   6.950  0.2536  1.1371  0.3178
   99MOL    H4231598   6.730   2.464   6.692 -0.0942 -2.4550  2.7514
   99MOL    H4331599   6.639   2.636   6.878  0.3523 -0.8863 -1.1095
   99MOL    H4431600   6.808   2.794   6.996 -1.5094 -0.6332  0.4021
   99MOL    H4531601   6.678   2.883   6.902  1.2321  1.9069 -2.1107
   99MOL    H4631602   6.841   2.865   6.844 -1.2145 -0.4920 -1.4880
   99MOL    H4731603   6.727   2.798   6.629  2.4189 -1.9329  1.7630
   99MOL    H4831604   6.635   2.649   6.624 -0.8569  0.5269 -1.1305
   99MOL    H4931605   6.560   2.794   6.687  0.5049  1.0556  0.8528
   99MOL    C5031606   6.942   2.448   6.676  0.7851  0.2082 -0.1121
   99MOL    C5131607   6.950   2.509   6.538  0.0744 -0.0250  0.2500
   99MOL    O5231608   7.030   2.421   6.452  0.0866  0.4955  0.2719
   99MOL    C5331609   6.958   2.346   6.353 -0.2090  0.6945 -0.2040
   99MOL    C5431610   6.865   2.250   6.426  0.1608  0.6344  0.2601
   99MOL    C5531611   7.061   2.268   6.269 -0.3916 -0.2784  0.1345
   99MOL    H5631612   7.032   2.476   6.732  1.6527 -0.8595 -0.9458
   99MOL    H5731613   6.947   2.340   6.658 -2.3968 -0.2623  1.4467
   99MOL    H5831614   6.851   2.522   6.493  0.4602  1.4648 -0.2056
   99MOL    H5931615   6.903   2.417   6.291 -3.0494 -0.9715  0.3124
   99MOL    H6031616   6.914   2.186   6.500  0.3282  0.4286 -0.0278
   99MOL    H6131617   6.815   2.183   6.355 -0.0777  3.0557 -1.9374
   99MOL    H6231618   6.790   2.309   6.479  0.0960  1.2780 -0.5385
   99MOL    H6331619   7.116   2.202   6.336  0.3151 -0.2790 -0.4424
   99MOL    H6431620   7.133   2.339   6.227  1.3551 -0.2614  3.0269
   99MOL    H6531621   7.002   2.209   6.198 -1.0693 -0.1304  0.5712
   99MOL    C6631622   7.024   2.648   6.529 -0.0073 -0.1739 -0.2874
   99MOL    C6731623   7.030   2.709   6.388  0.0622  0.3314 -0.5274
   99MOL    O6831624   7.117   2.823   6.387  0.3276  0.2991 -0.1239
   99MOL    C6931625   7.257   2.795   6.379  0.1241 -0.1126 -0.4060
   99MOL    C7031626   7.302   2.799   6.233  0.3843  0.5283 -0.0828
   99MOL    C7131627   7.325   2.896   6.459 -0.0972  0.7203  0.6980
   99MOL    H7231628   6.975   2.722   6.592  1.8908  1.5601 -0.8099
   99MOL    H7331629   7.120   2.653   6.580  0.6894 -1.8708 -1.4116
   99MOL    H7431630   7.073   2.640   6.316  2.1268 -0.1358  1.1255
   99MOL    H7531631   7.272   2.697   6.426  1.3203  1.4503  2.6337
   99MOL    H7631632   7.409   2.812   6.221  0.0027  1.6000 -2.7202
   99MOL    H7731633   7.275   2.703   6.187  1.2044  0.2198  0.0656
   99MOL    H7831634   7.253   2.876   6.174 -2.2252  0.2150  1.6066
   99MOL    H7931635   7.273   2.940   6.544  0.0973  1.0321  0.6555
   99MOL    H8031636   7.353   2.988   6.408 -1.4343  1.8053  1.8701
   99MOL    H8131637   7.417   2.846   6.490 -0.7386  0.2755  1.9120
   99MOL    C8231638   6.883   2.758   6.347 -0.4848  0.2505  0.7479
   99MOL    C8331639   6.862   2.768   6.198  0.4682 -0.2091  0.3172
   99MOL    O8431640   6.876   2.639   6.142  0.3250 -0.0413 -0.5749
   99MOL    C8531641   6.863   2.616   5.999 -0.2277  0.1866 -0.5187
   99MOL    C8631642   6.918   2.475   5.975 -0.2789  0.5613  0.0697
   99MOL    C8731643   6.951   2.715   5.913  0.2818 -0.0041 -1.8176
   99MOL    H8831644   6.807   2.695   6.393 -0.9414  0.2330 -0.0254
   99MOL    H8931645   6.859   2.854   6.393 -2.2373  0.1976 -0.0095
   99MOL    H9031646   6.934   2.838   6.156  3.0544 -2.3459  1.0609
   99MOL    H9131647   6.757   2.627   5.975 -0.2367 -0.7112 -0.8936
   99MOL    H9231648   6.938   2.447   5.871  0.5189 -0.7982  0.5866
   99MOL    H9331649   7.018   2.456   6.012  0.6433 -3.3176 -3.9896
   99MOL    H9431650   6.867   2.396   6.030 -1.9374  0.8655 -0.9828
   99MOL    H9531651   7.055   2.708   5.943 -0.0880 -3.4154 -1.0264
   99MOL    H9631652   6.930   2.697   5.807 -0.2248 -0.3634 -1.6597
   99MOL    H9731653   6.915   2.817   5.921 -4.5148 -1.5346 -1.9355
   99MOL    C9831654   6.717   2.818   6.166 -0.5129 -0.3300 -0.1822
   99MOL    C9931655   6.687   2.962   6.205  0.3441  0.0258 -0.2068
   99MOL   O10031656   6.552   2.966   6.158 -0.1202 -0.1769 -0.0713
   99MOL   C10131657   6.465   3.049   6.235  0.6583  0.1476 -0.0665
   99MOL   C10231658   6.407   2.976   6.360  0.0012 -0.4648 -0.6567
   99MOL   C10331659   6.344   3.085   6.151 -0.1091 -0.4280 -0.0597
   99MOL   H10431660   6.694   2.801   6.060  2.0470  0.2759 -0.8790
   99MOL   H10531661   6.648   2.752   6.218  0.9254 -0.7140  1.2546
   99MOL   H10631662   6.689   2.968   6.314  0.3370 -0.3521 -0.1864
   99MOL   H10731663   6.495   3.152   6.255  0.8682  0.2839 -1.0428
   99MOL   H10831664   6.477   2.999   6.440 -0.4750 -1.1375 -0.0396
   99MOL   H10931665   6.388   2.869   6.346 -2.4662 -0.1385  0.0490
   99MOL   H11031666   6.321   3.036   6.388  0.1248 -0.7485  0.3321
   99MOL   H11131667   6.375   3.149   6.068  0.6370 -0.0865  0.4838
   99MOL   H11231668   6.268   3.143   6.203 -0.5102  0.5627 -1.7187
   99MOL   H11331669   6.296   2.994   6.113 -0.8135 -1.1183  2.4093
   99MOL   C11431670   6.757   3.077   6.129 -0.1782  0.2374 -0.0286
   99MOL   C11531671   6.865   3.146   6.215 -0.6271  0.1087 -0.0576
   99MOL   O11631672   6.962   3.225   6.139 -0.3867 -1.0752 -0.6028
   99MOL   C11731673   7.078   3.157   6.092  0.8582 -0.3155  0.3015
   99MOL   C11831674   7.188   3.180   6.195  0.3416 -0.3026  0.7739
   99MOL   C11931675   7.112   3.240   5.963  0.7065  0.3530 -0.4253
   99MOL   H12031676   6.682   3.154   6.112 -0.9399 -0.6389 -0.7547
   99MOL   H12131677   6.780   3.041   6.028  1.2628 -1.9515  1.0544
   99MOL   H12231678   6.917   3.065   6.268  0.8819  1.9821  1.4110
   99MOL   H12331679   7.057   3.051   6.078 -0.9263  0.2945 -1.9891
   99MOL   H12431680   7.187   3.277   6.244 -2.1414  1.5592 -2.7500
   99MOL   H12531681   7.280   3.177   6.136  0.5904 -0.3948  1.1655
   99MOL   H12631682   7.193   3.102   6.270 -3.2613  0.1178  1.5403
   99MOL   H12731683   7.138   3.342   5.991 -2.9100  1.0604  0.7378
   99MOL   H12831684   7.018   3.242   5.909 -0.3973 -1.2096  1.3670
   99MOL   H12931685   7.183   3.184   5.904  0.4228 -1.6253  1.0419
   99MOL   C13031686   6.803   3.240   6.323 -0.0469  0.1755 -0.4039
   99MOL   C13131687   6.906   3.298   6.422 -0.2289  0.2257  0.3135
   99MOL   O13231688   6.903   3.204   6.535 -0.0837 -0.3362 -0.6365
   99MOL   C13331689   7.022   3.131   6.560  0.1025 -0.2884  0.0090
   99MOL   C13431690   7.139   3.220   6.594 -0.3160  0.1613 -0.3224
   99MOL   C13531691   6.988   3.043   6.678 -0.1016  0.2710  0.1915
   99MOL   H13631692   6.729   3.183   6.381  0.9451 -1.3669 -0.6387
   99MOL   H13731693   6.745   3.315   6.269 -0.3017 -0.2390 -0.7108
   99MOL   H13831694   7.005   3.308   6.377 -1.3387  0.1313 -2.2578
   99MOL   H13931695   7.039   3.068   6.473  0.3754  0.4961 -0.5146
   99MOL   H14031696   7.172   3.278   6.508  1.7371 -0.1537  0.2056
   99MOL   H14131697   7.221   3.156   6.629  0.6639  2.1452  1.1320
   99MOL   H14231698   7.113   3.290   6.673  0.1381  0.0297 -0.0514
   99MOL   H14331699   7.074   3.005   6.733 -0.4202  0.2294  0.6615
   99MOL   H14431700   6.928   3.097   6.750 -3.4012  0.1704 -2.3669
   99MOL   H14531701   6.923   2.964   6.640  1.3823 -1.0199  0.2944
   99MOL   C14631702   6.866   3.435   6.472 -0.1266  0.0377 -0.2226
   99MOL   C14731703   6.862   3.560   6.380 -0.1289 -0.2964  0.1586
   99MOL   O14831704   6.848   3.685   6.448  0.6057  0.3410 -0.3400
   99MOL   C14931705   6.720   3.713   6.493 -0.3930 -0.1315  0.0088
   99MOL   C15031706   6.701   3.864   6.480  0.2215 -0.6868  0.4618
   99MOL   C15131707   6.711   3.678   6.642  0.2790 -0.3494  0.1831
   99MOL   H15231708   6.932   3.469   6.551 -0.8771  2.2441 -0.5246
   99MOL   H15331709   6.761   3.416   6.498 -0.0751  2.5381  1.9604
   99MOL   H15431710   6.779   3.543   6.311  0.1305  0.3478 -0.3132
   99MOL   H15531711   6.641   3.672   6.430  0.8038  0.0863 -1.6911
   99MOL   H15631712   6.605   3.894   6.523 -0.5305  1.9225 -2.7809
   99MOL   H15731713   6.696   3.901   6.377 -0.7126  1.4987  1.2453
   99MOL   H15831714   6.784   3.916   6.530 -1.4068  3.4783 -0.9131
   99MOL   H15931715   6.616   3.716   6.680  0.8211  2.3446 -1.0139
   99MOL   H16031716   6.794   3.723   6.696  0.7446 -0.7213 -0.2221
   99MOL   H16131717   6.722   3.570   6.651 -1.4483 -0.4883  0.8088
   99MOL   C16231718   6.996   3.588   6.305 -0.0867 -0.6940 -0.1433
   99MOL   C16331719   6.996   3.705   6.195 -0.1482 -0.1234 -0.1802
   99MOL   O16431720   7.138   3.720   6.170  0.0824 -0.5293  0.3906
   99MOL   C16531721   7.184   3.850   6.126  0.3136 -0.8532  0.1325
   99MOL   C16631722   7.322   3.837   6.058 -0.2728  0.3904  0.3747
   99MOL   C16731723   7.183   3.940   6.251 -0.5989  0.0903 -0.2925
   99MOL   H16831724   7.073   3.601   6.381  0.3681 -1.2680 -0.5000
   99MOL   H16931725   7.029   3.501   6.246 -2.0727 -1.5689  0.0105
   99MOL   H17031726   6.945   3.786   6.246  2.1975  0.3635  1.4977
   99MOL   H17131727   7.114   3.894   6.054  0.8222  0.1819  0.2667
   99MOL   H17231728   7.389   3.763   6.102  0.0705 -0.0589 -0.8800
   99MOL   H17331729   7.373   3.933   6.053  0.6791 -0.0436  1.4272
   99MOL   H17431730   7.314   3.799   5.956  0.9279  1.5008 -0.1505
   99MOL   H17531731   7.232   4.034   6.227  1.2530 -1.0703 -1.1496
   99MOL   H17631732   7.226   3.884   6.334 -1.6863 -2.5344 -1.4695
   99MOL   H17731733   7.078   3.951   6.278 -0.3224  0.4928  0.6357
   99MOL   C17831734   6.921   3.688   6.063  0.1988  0.4218  0.6099
   99MOL   C17931735   6.764   3.685   6.068  1.0649 -0.7126  0.3622
   99MOL   O18031736   6.705   3.790   5.985  0.3379  0.1669 -0.0119
   99MOL   C18131737   6.733   3.916   6.040 -0.7761 -0.4434  0.3183
   99MOL   C18231738   6.607   3.974   6.097 -0.3945  0.5716 -0.2384
   99MOL   C18331739   6.789   3.997   5.924 -0.1540  0.0661 -0.9545
   99MOL   H18431740   6.959   3.599   6.013  0.8068  1.6212 -1.0912
   99MOL   H18531741   6.948   3.766   5.992 -1.6784  0.0156 -0.5699
   99MOL   H18631742   6.717   3.708   6.164 -2.6501 -1.0200 -1.3016
   99MOL   H18731743   6.811   3.912   6.116 -0.9893 -0.1293  0.5546
   99MOL   H18831744   6.603   4.081   6.114  2.1637  0.9670 -1.8967
   99MOL   H18931745   6.591   3.914   6.186  0.2068  0.5374 -0.1521
   99MOL   H19031746   6.526   3.946   6.029 -0.6194  1.3442 -0.2973
   99MOL   H19131747   6.839   4.086   5.962  1.3140 -1.4165  0.6677
   99MOL   H19231748   6.706   4.024   5.858 -1.4055  1.9628  1.3543
   99MOL   H19331749   6.864   3.935   5.875  0.2805 -0.0940 -0.0969
   99MOL   C19431750   6.708   3.554   6.008 -0.7677 -0.3351  0.2432
   99MOL   C19531751   6.560   3.537   6.013  0.5360 -0.5622  0.2590
   99MOL   O19631752   6.529   3.522   6.147 -0.0745 -0.3065  0.1665
   99MOL   C19731753   6.398   3.554   6.180 -0.9206  0.3399 -0.6900
   99MOL   C19831754   6.359   3.458   6.294 -0.6571 -0.3701 -0.1186
   99MOL   C19931755   6.375   3.697   6.208  0.0292  0.1178 -0.8830
   99MOL   H20031756   6.739   3.562   5.904 -1.3980  2.4845  0.2266
   99MOL   H20131757   6.768   3.479   6.059  1.6504  1.4223  0.0876
   99MOL   H20231758   6.511   3.622   5.967  0.5296 -1.0940 -0.7497
   99MOL   H20331759   6.325   3.533   6.102  1.0873 -2.5514 -1.8565
   99MOL   H20431760   6.369   3.355   6.259 -3.6005 -0.5997 -0.3767
   99MOL   H20531761   6.426   3.476   6.378  1.6790  1.1173 -2.2383
   99MOL   H20631762   6.259   3.480   6.330  0.1034  1.4750  0.9387
   99MOL   H20731763   6.390   3.769   6.127 -2.3900  1.6787 -0.0180
   99MOL   H20831764   6.277   3.720   6.251  0.8762  1.2199  0.5116
   99MOL   H20931765   6.440   3.727   6.291  0.0167  1.2056 -1.2535
   99MOL   C21031766   6.503   3.402   5.943 -0.5695 -0.7376  0.0472
   99MOL   C21131767   6.543   3.369   5.799  0.3138 -0.4196 -0.2564
   99MOL   O21231768   6.489   3.246   5.753 -0.0274  0.0224  0.1581
   99MOL   C21331769   6.553   3.127   5.798 -0.5871 -0.7063  0.1668
   99MOL   C21431770   6.451   3.012   5.772  0.2231 -0.5305  0.2215
   99MOL   C21531771   6.697   3.109   5.739  0.9828  0.5942 -1.0169
   99MOL   H21631772   6.395   3.417   5.948 -1.1017 -3.9194 -0.6576
   99MOL   H21731773   6.523   3.324   6.016  1.4608  0.1693  0.4874
   99MOL   H21831774   6.652   3.369   5.787  0.3804 -0.5629  0.3201
   99MOL   H21931775   6.568   3.129   5.906 -0.0853 -3.0427  0.1790
   99MOL   H22031776   6.427   3.001   5.666  0.5617  2.2523 -0.2006
   99MOL   H22131777   6.359   3.041   5.823  0.5444 -0.3829  0.7224
   99MOL   H22231778   6.484   2.912   5.796  1.5435  0.1578  1.3493
   99MOL   H22331779   6.687   3.103   5.630  0.7892  1.9036 -1.0747
   99MOL   H22431780   6.738   3.015   5.777 -0.4660 -0.2133 -1.4000
   99MOL   H22531781   6.764   3.192   5.760  0.7333  0.3711  0.7492
   99MOL   C22631782   6.497   3.481   5.705  0.0524  0.0750  0.0899
   99MOL   C22731783   6.546   3.479   5.560  0.5149  0.1716 -0.6671
   99MOL   O22831784   6.679   3.528   5.549 -0.2061 -0.1218  0.7389
   99MOL   C22931785   6.782   3.435   5.549  0.0794 -0.1013  0.5273
   99MOL   C23031786   6.904   3.501   5.623 -0.4902 -0.3225 -0.4058
   99MOL   C23131787   6.829   3.406   5.407 -0.0493 -0.3703 -0.5250
   99MOL   H23231788   6.519   3.581   5.742 -1.3580  0.1951  0.6426
   99MOL   H23331789   6.388   3.473   5.703  0.1443 -1.8574  1.8760
   99MOL   H23431790   6.536   3.377   5.522  0.8410  0.3324 -1.1917
   99MOL   H23531791   6.753   3.338   5.589  0.6162 -1.2463 -1.7563
   99MOL   H23631792   6.985   3.429   5.622  0.3662  0.5210  2.4122
   99MOL   H23731793   6.940   3.590   5.572 -1.1902 -0.0575 -0.4569
   99MOL   H23831794   6.883   3.521   5.728 -1.1548  0.0007 -0.5945
   99MOL   H23931795   6.889   3.490   5.372 -1.6875  0.9711 -0.1631
   99MOL   H24031796   6.755   3.375   5.335  0.1175 -0.0437 -0.8393
   99MOL   H24131797   6.907   3.330   5.411  0.3918  0.1386  1.8121
   99MOL   C24231798   6.461   3.566   5.466  0.7546  0.7437  0.0695
   99MOL   C24331799   6.360   3.481   5.396 -0.6462 -0.3942  0.1638
   99MOL   O24431800   6.440   3.395   5.311 -0.4051  0.0251 -0.4603
   99MOL   C24531801   6.376   3.272   5.273  0.3475 -0.3063 -0.4221
   99MOL   C24631802   6.343   3.277   5.120  0.4913  0.2808  0.0795
   99MOL   C24731803   6.475   3.165   5.311  0.5832 -0.6399  0.0139
   99MOL   H24831804   6.413   3.632   5.538  0.7894 -1.4582  2.2021
   99MOL   H24931805   6.521   3.616   5.391  1.2497 -2.2832 -1.6546
   99MOL   H25031806   6.320   3.417   5.474  0.6693 -0.7845  0.5233
   99MOL   H25131807   6.288   3.259   5.336 -1.2817 -0.1761 -2.6060
   99MOL   H25231808   6.276   3.194   5.097  1.4926 -0.5596  0.1535
   99MOL   H25331809   6.294   3.368   5.086  0.7446  0.1740 -0.5775
   99MOL   H25431810   6.431   3.268   5.057  0.1531  1.6319 -0.5987
   99MOL   H25531811   6.470   3.145   5.418 -0.8548  1.6833  0.4208
   99MOL   H25631812   6.437   3.074   5.265 -4.2248  1.3036 -0.1856
   99MOL   H25731813   6.578   3.182   5.282  0.3785 -2.5901 -1.9599
   99MOL   C25831814   6.246   3.556   5.315  0.5231  0.2773 -0.1430
   99MOL   C25931815   6.099   3.507   5.356  0.3271  0.4634  0.0564
   99MOL   O26031816   6.012   3.535   5.242 -0.1078  0.3926 -0.0559
   99MOL   C26131817   6.013   3.436   5.136 -0.2596  0.3740  0.3190
   99MOL   C26231818   5.890   3.347   5.140  0.6099 -0.0573  0.1462
   99MOL   C26331819   6.026   3.515   5.006  1.2270 -0.4254  0.4162
   99MOL   H26431820   6.258   3.662   5.336 -1.7098  1.0916 -2.7091
   99MOL   H26531821   6.261   3.536   5.209 -0.8638 -2.5098  0.1311
   99MOL   H26631822   6.103   3.399   5.370  2.6154  0.5889  0.5712
   99MOL   H26731823   6.093   3.365   5.154  0.0140  0.9596  1.4119
   99MOL   H26831824   5.875   3.300   5.237 -2.3799 -1.6546 -1.0265
   99MOL   H26931825   5.917   3.264   5.075 -0.3261 -1.1670  1.1539
   99MOL   H27031826   5.799   3.394   5.101 -1.1681 -3.5011 -0.0325
   99MOL   H27131827   5.961   3.602   5.005 -0.3637 -1.5917 -0.7541
   99MOL   H27231828   6.129   3.547   4.993  1.1997 -0.4872  0.0228
   99MOL   H27331829   6.004   3.451   4.920 -0.6622  0.5206  0.1578
   99MOL   C27431830   6.039   3.573   5.484 -0.2503 -0.2019 -0.6230
   99MOL   C27531831   6.110   3.539   5.620  0.1433 -0.4405 -0.6218
   99MOL   O27631832   6.029   3.613   5.715  0.0983  0.4296 -0.0554
   99MOL   C27731833   6.097   3.727   5.768 -0.3356  0.4048 -0.3388
   99MOL   C27831834   6.228   3.701   5.841  0.4951 -0.1938 -0.4429
   99MOL   C27931835   6.000   3.797   5.864 -0.1610  0.1021 -0.2201
   99MOL   H28031836   6.030   3.682   5.484 -0.3125 -0.2070 -0.3895
   99MOL   H28131837   5.937   3.535   5.488  0.5265 -2.2107  0.4068
   99MOL   H28231838   6.210   3.582   5.614 -0.1931  0.2921 -1.0347
   99MOL   H28331839   6.117   3.806   5.695 -2.3009 -0.0516 -1.3908
   99MOL   H28431840   6.267   3.787   5.896 -0.7097  0.6243 -0.8487
   99MOL   H28531841   6.213   3.629   5.922 -0.8756 -0.4370 -0.9088
   99MOL   H28631842   6.316   3.684   5.778 -1.5170 -0.8081 -3.1812
   99MOL   H28731843   5.910   3.819   5.806  0.4975 -0.3370 -1.4257
   99MOL   H28831844   6.043   3.894   5.891 -0.2561  0.4736 -1.3370
   99MOL   H28931845   5.957   3.732   5.939 -1.0470  0.4104 -0.4585
   99MOL   C29031846   6.106   3.400   5.668  0.9897  0.2213  0.2004
   99MOL   C29131847   5.968   3.339   5.711 -0.0195 -0.4018  0.1018
   99MOL   O29231848   5.887   3.301   5.599 -0.8945  0.3370 -0.2052
   99MOL   C29331849   5.752   3.345   5.604 -0.1260  0.4698 -0.3763
   99MOL   C29431850   5.669   3.267   5.704  0.9150 -0.1007  0.0536
   99MOL   C29531851   5.700   3.338   5.459  0.0269  0.2512  0.2569
   99MOL   H29631852   6.177   3.404   5.750  1.4053 -1.1262 -0.0806
   99MOL   H29731853   6.149   3.325   5.601 -0.1290 -1.2390  1.0877
   99MOL   H29831854   5.903   3.410   5.763  1.2790  0.1408  1.0074
   99MOL   H29931855   5.743   3.450   5.634 -1.0723  0.3910 -0.3809
   99MOL   H30031856   5.569   3.309   5.720  0.3103 -1.5404  0.1037
   99MOL   H30131857   5.637   3.172   5.662  0.5015  0.1306 -0.1643
   99MOL   H30231858   5.709   3.233   5.799  1.7960 -1.6241 -0.8349
   99MOL   H30331859   5.736   3.240   5.426 -0.5720 -0.0701  0.5311
   99MOL   H30431860   5.593   3.346   5.441  0.1017  1.1427  0.2222
   99MOL   H30531861   5.760   3.400   5.393 -0.9675  1.9942  0.9516
   99MOL   C30631862   5.992   3.214   5.789 -0.0552 -0.7174  0.1772
   99MOL   C30731863   6.049   3.092   5.715 -0.6390 -0.2619 -0.5940
   99MOL   O30831864   6.070   2.983   5.809 -0.1515  0.0717 -0.7888
   99MOL   C30931865   6.063   2.861   5.737 -0.2872 -0.3574 -0.6734
   99MOL   C31031866   6.202   2.827   5.684 -0.4628  0.1223 -0.4386
   99MOL   C31131867   6.027   2.768   5.852  0.6000  0.1225  0.7201
   99MOL   H31231868   5.903   3.175   5.838  1.5567 -1.4570  2.6247
   99MOL   H31331869   6.062   3.228   5.872  1.5822 -0.3729 -1.2457
   99MOL   H31431870   5.983   3.067   5.632  1.5948  1.4935 -2.9688
   99MOL   H31531871   5.988   2.856   5.657 -1.2811  0.3046  0.2026
   99MOL   H31631872   6.244   2.887   5.604 -0.8659  0.7491 -0.1918
   99MOL   H31731873   6.195   2.725   5.647 -0.3972 -0.1119  0.1729
   99MOL   H31831874   6.274   2.813   5.765 -0.9462 -1.7150 -0.2979
   99MOL   H31931875   6.075   2.803   5.944 -1.8645  0.5493  1.8925
   99MOL   H32031876   6.069   2.670   5.829 -0.0502 -0.2976  1.2885
   99MOL   H32131877   5.919   2.762   5.866  0.2299 -2.4891 -2.6807
   99MOL   H32231878   6.150   3.097   5.673 -0.6456  3.4893 -0.2487
  100MOL     C131879   1.194   3.071   7.051  0.4731 -0.0710  0.2447
  100MOL     C231880   1.308   2.973   7.062 -0.0942  0.0582 -0.8221
  100MOL     O331881   1.411   2.999   6.967 -0.2299 -0.1737 -0.2921
  100MOL     C431882   1.398   2.957   6.833 -0.5688  0.4006  0.0232
  100MOL     C531883   1.470   2.828   6.811  0.1858  0.3914 -0.5192
  100MOL     C631884   1.461   3.055   6.738 -0.5940 -1.2753 -0.2192
  100MOL     H731885   1.171   3.074   6.945  1.9196  1.1644 -0.0484
  100MOL     H831886   1.112   3.043   7.117  1.0847  0.1059  1.0911
  100MOL     H931887   1.261   2.878   7.037 -0.0481 -0.1485 -0.1283
  100MOL    H1031888   1.295   2.942   6.803 -0.0681 -0.6105 -1.2296
  100MOL    H1131889   1.570   2.827   6.854 -0.5164 -2.3107  1.1453
  100MOL    H1231890   1.424   2.750   6.872  1.0784  2.1348  2.5223
  100MOL    H1331891   1.474   2.805   6.705 -0.1453 -1.2757 -0.1814
  100MOL    H1431892   1.462   3.154   6.783  0.7328 -0.8767 -1.0878
  100MOL    H1531893   1.566   3.024   6.737 -0.0419  0.5387  0.0230
  100MOL    H1631894   1.439   3.042   6.632  0.5034  1.1181 -0.7693
  100MOL    H1731895   1.227   3.171   7.081  0.0093  0.5254 -1.2377
  100MOL    C1831896   1.376   2.975   7.199  0.3539  0.0577  0.2057
  100MOL    C1931897   1.430   2.835   7.252  0.3058 -0.5507 -0.1016
  100MOL    O2031898   1.315   2.767   7.310 -0.3494 -0.0604  0.1047
  100MOL    C2131899   1.304   2.637   7.269  0.5545 -0.2704 -0.1748
  100MOL    C2231900   1.231   2.645   7.142 -0.3365 -0.4545  0.1282
  100MOL    C2331901   1.217   2.566   7.379  0.9033 -0.2459  0.0665
  100MOL    H2431902   1.465   3.036   7.182  0.7290 -0.4662  0.2792
  100MOL    H2531903   1.320   3.021   7.280 -1.5938 -1.3915 -0.2925
  100MOL    H2631904   1.469   2.783   7.165 -2.2575  2.0047 -2.8891
  100MOL    H2731905   1.397   2.582   7.259  1.9534  1.9539  0.3612
  100MOL    H2831906   1.296   2.665   7.057 -1.4366  0.5615 -0.4798
  100MOL    H2931907   1.202   2.541   7.126 -1.7590  0.0216 -0.4277
  100MOL    H3031908   1.139   2.702   7.140 -1.0000 -1.5486 -1.4463
  100MOL    H3131909   1.206   2.463   7.346  0.1862 -0.5701  1.2848
  100MOL    H3231910   1.118   2.607   7.398  1.7094  0.9424  1.7499
  100MOL    H3331911   1.274   2.559   7.471 -1.3113 -2.8045  1.3178
  100MOL    C3431912   1.530   2.868   7.358  0.1762 -0.2580 -0.3716
  100MOL    C3531913   1.607   2.760   7.429  0.0416 -0.3075  0.7745
  100MOL    O3631914   1.511   2.694   7.510  0.4093  0.1366 -0.0983
  100MOL    C3731915   1.559   2.625   7.626 -0.1063 -1.1801 -0.4753
  100MOL    C3831916   1.583   2.724   7.741 -0.0542 -0.0844  0.2139
  100MOL    C3931917   1.453   2.518   7.665 -0.4721 -0.2838  0.0107
  100MOL    H4031918   1.486   2.941   7.425  1.1038  0.1571 -0.2082
  100MOL    H4131919   1.604   2.940   7.322 -1.2730  0.7994 -1.3312
  100MOL    H4231920   1.677   2.807   7.499  2.3089 -1.3281 -0.7510
  100MOL    H4331921   1.648   2.565   7.603  1.9645  1.0268  1.5054
  100MOL    H4431922   1.676   2.779   7.723  1.1268 -2.0097  0.3571
  100MOL    H4531923   1.579   2.681   0.021 -0.0943 -1.8480 -0.5234
  100MOL    H4631924   1.509   2.804   7.742  0.1240  0.1117  3.6196
  100MOL    H4731925   1.479   2.463   7.756 -1.0750 -0.5240  0.0385
  100MOL    H4831926   1.363   2.576   7.685 -0.7823 -0.3160 -1.2604
  100MOL    H4931927   1.424   2.449   7.586  0.0924 -2.2534  1.4560
  100MOL    C5031928   1.694   2.660   7.348 -0.0963 -0.3399  0.7461
  100MOL    C5131929   1.822   2.726   7.295 -0.7363 -0.4090  0.6441
  100MOL    O5231930   1.777   2.813   7.192 -0.2793 -0.0305 -0.1652
  100MOL    C5331931   1.847   2.929   7.158  0.2419  0.2258 -0.3196
  100MOL    C5431932   1.862   3.024   7.280 -0.3246 -0.2315  0.2022
  100MOL    C5531933   1.793   3.020   7.055  0.0817 -0.4530 -0.6163
  100MOL    H5631934   1.728   2.578   7.411 -0.2202 -1.1788 -0.2734
  100MOL    H5731935   1.642   2.623   7.259  0.2833  1.5092 -0.2685
  100MOL    H5831936   1.870   2.777   7.378  0.2729 -0.3383  0.0355
  100MOL    H5931937   1.949   2.902   7.131  0.0741 -1.1105  0.3223
  100MOL    H6031938   1.773   3.084   7.295 -2.1913 -2.0594 -2.9129
  100MOL    H6131939   1.932   3.104   7.257  0.6334 -1.8550 -2.8082
  100MOL    H6231940   1.895   2.972   7.370  1.2395 -0.7016 -0.6295
  100MOL    H6331941   1.786   2.973   6.957 -1.6625  1.0229 -1.2307
  100MOL    H6431942   1.859   3.107   7.046 -0.7648  0.2475 -0.0598
  100MOL    H6531943   1.698   3.062   7.087  0.9018  0.7590  0.3082
  100MOL    C6631944   1.921   2.632   7.220 -0.2984 -0.3400  0.2968
  100MOL    C6731945   2.008   2.551   7.319 -0.4077  0.1337 -0.8684
  100MOL    O6831946   2.130   2.629   7.331  0.5115 -0.4126 -0.2465
  100MOL    C6931947   2.139   2.707   7.452  0.2208  0.0944 -0.1351
  100MOL    C7031948   2.161   2.612   7.579  0.0776  0.1140 -0.3492
  100MOL    C7131949   2.253   2.813   7.445  0.5555  0.5698  0.3614
  100MOL    H7231950   1.865   2.564   7.155  0.7288  0.7262 -1.7476
  100MOL    H7331951   1.994   2.687   7.161  0.0065 -0.9232  0.1286
  100MOL    H7431952   1.976   2.543   7.423  0.1677  0.9924 -0.6189
  100MOL    H7531953   2.043   2.750   7.479  0.0277 -0.5597  0.2247
  100MOL    H7631954   2.089   2.532   7.592 -0.9734  0.9395 -0.9608
  100MOL    H7731955   2.260   2.570   7.564  0.9813  2.5361 -1.3774
  100MOL    H7831956   2.163   2.670   7.672  0.1601  2.8331 -1.9790
  100MOL    H7931957   2.352   2.768   7.436  1.4275  1.9069  2.9154
  100MOL    H8031958   2.249   2.875   7.534 -4.5787  0.8821  0.0632
  100MOL    H8131959   2.228   2.874   7.358 -0.1205  1.6593  1.3114
  100MOL    C8231960   2.047   2.417   7.267 -0.0814 -0.5220  0.0700
  100MOL    C8331961   1.945   2.310   7.271  1.0599 -0.0581  0.1109
  100MOL    O8431962   1.995   2.187   7.217  0.1709  0.3058 -0.1346
  100MOL    C8531963   2.016   2.178   7.073  0.2440  0.0765  0.1782
  100MOL    C8631964   1.909   2.200   6.966  0.4060  0.1797  0.0123
  100MOL    C8731965   2.078   2.038   7.052 -0.1019 -0.9895 -0.1576
  100MOL    H8831966   2.077   2.434   7.163  1.1195  1.2394  0.6807
  100MOL    H8931967   2.138   2.382   7.316  0.9679  1.4825 -0.3789
  100MOL    H9031968   1.864   2.349   7.209  1.6373  2.2383  0.7404
  100MOL    H9131969   2.086   2.256   7.046  0.1433 -0.7905 -2.7435
  100MOL    H9231970   1.952   2.216   6.867 -0.3904  0.3951 -0.3090
  100MOL    H9331971   1.840   2.116   6.957  0.2813  0.2434  0.3800
  100MOL    H9431972   1.857   2.296   6.973  0.9675  0.5286 -0.4933
  100MOL    H9531973   2.105   2.040   6.946  3.6673  0.4922  0.7529
  100MOL    H9631974   2.164   2.022   7.117 -0.4516  0.6705  0.7219
  100MOL    H9731975   2.009   1.954   7.066  1.0740 -1.8431  0.6123
  100MOL    C9831976   1.905   2.277   7.416  0.6397  1.3250 -0.5821
  100MOL    C9931977   1.776   2.188   7.418 -0.0512  0.1020  0.1258
  100MOL   O10031978   1.669   2.266   7.361 -0.8790 -0.5525 -0.3386
  100MOL   C10131979   1.565   2.194   7.294 -0.4934  0.4921  0.0254
  100MOL   C10231980   1.540   2.288   7.173  0.2577  0.5487 -0.0901
  100MOL   C10331981   1.446   2.184   7.381 -0.1341  0.4499 -0.2753
  100MOL   H10431982   1.990   2.227   7.460 -0.3094  0.2559  0.0422
  100MOL   H10531983   1.883   2.363   7.480 -0.8526  0.8649 -0.4603
  100MOL   H10631984   1.782   2.104   7.348  0.0844  1.3466 -1.3887
  100MOL   H10731985   1.593   2.092   7.267  0.6603  0.8887 -0.3353
  100MOL   H10831986   1.512   2.389   7.203 -3.4418  0.1845 -1.9475
  100MOL   H10931987   1.473   2.246   7.098  0.8681  1.6067 -1.2343
  100MOL   H11031988   1.633   2.297   7.118  1.0477 -1.0773  0.9350
  100MOL   H11131989   1.353   2.152   7.335  0.6249 -0.4585 -1.1973
  100MOL   H11231990   1.425   2.282   7.425  1.7913  2.0435 -2.7620
  100MOL   H11331991   1.453   2.121   7.470 -0.9014  0.7125 -0.0174
  100MOL   C11431992   1.732   2.148   7.564 -0.0267 -0.1391  0.3456
  100MOL   C11531993   1.842   2.104   7.660 -0.1585 -0.1954 -0.3312
  100MOL   O11631994   1.791   2.069   7.791  0.1325  0.2714  0.4885
  100MOL   C11731995   1.741   2.180   0.053 -0.0852  0.1236 -0.7201
  100MOL   C11831996   1.822   2.168   0.186 -0.0417 -0.3570 -0.6166
  100MOL   C11931997   1.587   2.157   0.054 -0.1782 -0.6269 -0.7778
  100MOL   H12031998   1.662   2.065   7.567 -0.1892  0.0207  1.0007
  100MOL   H12131999   1.679   2.230   7.614  0.5635  0.6073 -0.2384
  100MOL   H12232000   1.922   2.178   7.667 -1.6542  1.4131  0.1984
  100MOL   H12332001   1.754   2.275   0.001  1.0421  1.3177  1.6485
  100MOL   H12432002   1.782   2.087   0.248  3.3493 -1.4044  0.2869
  100MOL   H12532003   1.828   2.266   0.233  1.6068 -0.2669 -1.0035
  100MOL   H12632004   1.928   2.154   0.166  0.3714  0.2847  1.0534
  100MOL   H12732005   1.546   2.173   7.775 -1.3810  2.3232  0.1373
  100MOL   H12832006   1.532   2.209   0.132 -0.7347 -1.1422 -0.8215
  100MOL   H12932007   1.570   2.049   0.063  0.2960 -0.6811 -0.5117
  100MOL   C13032008   1.918   1.980   7.612  0.2428  0.0046 -0.7796
  100MOL   C13132009   2.051   1.962   7.684 -0.1516 -0.2799 -0.5390
  100MOL   O13232010   2.151   2.030   7.603  0.4443 -0.8577 -0.1499
  100MOL   C13332011   2.258   2.100   7.667  0.0243 -0.5596 -0.5190
  100MOL   C13432012   2.384   2.022   7.634  0.2406  0.0137  0.5458
  100MOL   C13532013   2.254   2.247   7.628  0.2265 -0.2333  0.0430
  100MOL   H13632014   1.929   1.977   7.504  0.1569  1.2947 -0.8266
  100MOL   H13732015   1.857   1.894   7.640  1.6034 -0.0972  2.1130
  100MOL   H13832016   2.034   2.011   7.780  0.3067  2.6255 -1.8803
  100MOL   H13932017   2.246   2.105   7.776  1.1772  0.3397 -0.4188
  100MOL   H14032018   2.395   2.024   7.526  0.2655  0.0832  0.5498
  100MOL   H14132019   2.358   1.918   7.654  0.4707  0.0266  0.9185
  100MOL   H14232020   2.466   2.074   7.683  0.7196 -0.1495 -0.0963
  100MOL   H14332021   2.320   2.319   7.676 -0.4681  0.3709  0.0981
  100MOL   H14432022   2.267   2.267   7.522  0.9317  1.0838  0.3741
  100MOL   H14532023   2.154   2.281   7.654 -0.2532  0.3825 -2.5507
  100MOL   C14632024   2.113   1.824   7.716 -0.1634 -0.1191  0.4488
  100MOL   C14732025   2.020   1.722   7.765  0.2932  0.7700 -0.1131
  100MOL   O14832026   2.098   1.610   7.778  0.0137 -0.0190 -0.0337
  100MOL   C14932027   2.057   1.503   7.698 -0.2655 -0.1882  0.7887
  100MOL   C15032028   1.923   1.439   7.726 -0.0271 -0.1486 -0.5472
  100MOL   C15132029   2.179   1.411   7.690  0.6034 -0.0463 -0.1754
  100MOL   H15232030   2.200   1.837   7.780 -0.6794 -1.9305  1.5607
  100MOL   H15332031   2.160   1.780   7.628  0.6447  0.0721  0.7810
  100MOL   H15432032   1.939   1.713   7.693 -1.7218 -1.2989  2.2987
  100MOL   H15532033   2.050   1.539   7.595  0.9294  1.6048  1.3152
  100MOL   H15632034   1.895   1.378   7.640 -0.0730  0.4680 -0.9722
  100MOL   H15732035   1.844   1.513   7.737 -0.2920 -0.6679  1.1090
  100MOL   H15832036   1.918   1.378   7.816 -1.4294 -0.1215 -0.6016
  100MOL   H15932037   2.155   1.322   7.631 -0.9795  0.7797 -0.8216
  100MOL   H16032038   2.201   1.377   7.791  0.3026  1.1331  0.2861
  100MOL   H16132039   2.268   1.457   7.647  0.8645 -2.0771 -1.9072
  100MOL   C16232040   1.945   1.759   0.077  0.0977  0.0723  0.0864
  100MOL   C16332041   2.022   1.757   0.206  0.3100 -0.1155  0.0449
  100MOL   O16432042   2.057   1.895   0.219 -0.6810  0.6155 -0.2899
  100MOL   C16532043   2.176   1.919   0.295 -0.4881  0.0379  0.2538
  100MOL   C16632044   2.168   2.062   0.341  0.2682 -0.1801 -0.1661
  100MOL   C16732045   2.310   1.895   0.227  0.8921  0.5605  0.3954
  100MOL   H16832046   1.899   1.856   0.063  0.1521  0.1443  0.4190
  100MOL   H16932047   1.859   1.692   0.087  0.8471 -0.8198  0.7002
  100MOL   H17032048   2.104   1.686   0.200  2.0518  1.9632 -1.7162
  100MOL   H17132049   2.171   1.856   0.383  0.2491 -0.6725 -0.2047
  100MOL   H17232050   2.260   2.091   0.392 -0.1160 -2.2203  1.7344
  100MOL   H17332051   2.080   2.068   0.406  0.6934 -0.0454  0.3985
  100MOL   H17432052   2.155   2.135   0.261 -0.0090 -0.0559 -0.0113
  100MOL   H17532053   2.325   1.975   0.155  2.3896  0.4290  0.5454
  100MOL   H17632054   2.320   1.801   0.172  0.7187 -0.1360  1.5465
  100MOL   H17732055   2.393   1.903   0.297  0.0244 -0.8952  1.6174
  100MOL   C17832056   1.927   1.725   0.323  0.0348 -0.3838  0.0875
  100MOL   C17932057   1.919   1.575   0.335 -0.0921  0.1113  0.3687
  100MOL   O18032058   2.041   1.540   0.402 -0.0611  0.1386  0.0017
  100MOL   C18132059   2.120   1.433   0.348  0.4387  0.0048  0.1228
  100MOL   C18232060   2.040   1.301   0.373  1.0561 -0.3489  0.3361
  100MOL   C18332061   2.262   1.430   0.420  0.5693 -0.0449  0.4994
  100MOL   H18432062   1.824   1.756   0.309  0.2829  1.0851  1.4867
  100MOL   H18532063   1.974   1.767   0.412 -3.4773  3.2168  0.3849
  100MOL   H18632064   1.909   1.528   0.238  0.0682  0.9983 -0.0842
  100MOL   H18732065   2.144   1.445   0.242 -2.6380  0.8669 -0.5114
  100MOL   H18832066   2.016   1.298   0.480 -0.0541 -2.7510  0.0385
  100MOL   H18932067   2.104   1.218   0.345  0.9168 -0.0514 -0.8939
  100MOL   H19032068   1.946   1.308   0.318  3.0819  2.8023 -2.9364
  100MOL   H19132069   2.330   1.513   0.403  0.9177  0.1688  2.7547
  100MOL   H19232070   2.317   1.339   0.397 -0.5039 -0.3879 -0.7854
  100MOL   H19332071   2.244   1.438   0.527 -0.6654 -1.1335  0.3804
  100MOL   C19432072   1.810   1.531   0.439  0.0055 -0.1980 -0.4644
  100MOL   C19532073   1.675   1.511   0.370 -0.3164  0.0434 -0.1405
  100MOL   O19632074   1.631   1.627   0.283 -0.1520 -0.3247 -0.1522
  100MOL   C19732075   1.526   1.631   0.181 -0.0170  0.4710  0.0453
  100MOL   C19832076   1.508   1.774   0.121  0.2766 -0.4919  0.3616
  100MOL   C19932077   1.536   1.522   0.075  0.4095  0.3582 -0.0085
  100MOL   H20032078   1.843   1.438   0.485 -0.0976  0.0532  0.1224
  100MOL   H20132079   1.800   1.606   0.517  1.5351  0.7574 -1.1712
  100MOL   H20232080   1.685   1.436   0.292  1.3794  0.8812 -0.7572
  100MOL   H20332081   1.433   1.612   0.234 -0.3465  2.0509  0.0584
  100MOL   H20432082   1.469   1.833   0.203 -0.0876  2.2605 -1.7018
  100MOL   H20532083   1.601   1.815   0.082 -1.6796  0.6373 -3.3581
  100MOL   H20632084   1.437   1.777   0.039  1.9705 -1.7766 -1.1965
  100MOL   H20732085   1.545   1.423   0.119  0.2389  1.1415  1.8172
  100MOL   H20832086   1.444   1.506   0.020  0.4400 -1.3586  0.4284
  100MOL   H20932087   1.627   1.538   0.017  0.7857 -1.9983 -0.0958
  100MOL   C21032088   1.569   1.471   0.474  0.4607  0.4711  0.3629
  100MOL   C21132089   1.610   1.364   0.579 -0.2758 -0.2115  0.6330
  100MOL   O21232090   1.508   1.334   0.675 -0.0008  0.5735  0.6925
  100MOL   C21332091   1.507   1.406   0.798  0.0803 -1.2007 -0.1006
  100MOL   C21432092   1.411   1.528   0.795  0.4022  0.2253  0.6133
  100MOL   C21532093   1.472   1.300   0.898 -0.6540  0.1096 -0.0374
  100MOL   H21632094   1.479   1.441   0.422  0.3146  0.5033  0.5955
  100MOL   H21732095   1.531   1.564   0.517  0.4608 -0.0305  1.4790
  100MOL   H21832096   1.692   1.402   0.640 -0.4745 -2.0548  2.0914
  100MOL   H21932097   1.610   1.435   0.817 -0.2376  1.5637 -2.2780
  100MOL   H22032098   1.321   1.474   0.764  0.1140  0.0021  1.7995
  100MOL   H22132099   1.430   1.611   0.727 -2.2137  0.3344 -0.0275
  100MOL   H22232100   1.372   1.572   0.887 -1.5673  1.5697 -0.8317
  100MOL   H22332101   1.364   1.285   0.906 -0.6988  0.5202  0.1360
  100MOL   H22432102   1.507   1.331   0.997 -0.1492 -0.6082  0.0122
  100MOL   H22532103   1.518   1.203   0.878 -0.1512  0.7746 -2.1553
  100MOL   C22632104   1.640   1.226   0.512 -0.0391  0.9701  0.3187
  100MOL   C22732105   1.707   1.120   0.606 -0.7746 -0.4534  0.3191
  100MOL   O22832106   1.834   1.172   0.643  0.5675 -0.0857  0.4656
  100MOL   C22932107   1.851   1.186   0.783 -0.3140  0.2489  0.4011
  100MOL   C23032108   1.977   1.269   0.809  0.4117 -0.1052  0.4538
  100MOL   C23132109   1.850   1.053   0.858 -0.1188 -0.2346 -0.9124
  100MOL   H23232110   1.691   1.236   0.416  0.7339 -1.9164  0.3581
  100MOL   H23332111   1.543   1.189   0.477  0.1962 -1.1968  1.8600
  100MOL   H23432112   1.646   1.102   0.695 -1.8709  1.3363 -0.0387
  100MOL   H23532113   1.766   1.240   0.827 -1.6661 -0.6055 -1.1238
  100MOL   H23632114   2.065   1.223   0.764 -0.2174 -0.0663 -0.8174
  100MOL   H23732115   1.962   1.365   0.760 -1.9421 -0.3773  0.5947
  100MOL   H23832116   2.008   1.284   0.913 -0.6508  2.4157  0.4510
  100MOL   H23932117   1.863   1.074   0.964 -3.0914  0.3025 -0.6094
  100MOL   H24032118   1.937   0.996   0.826 -1.4151 -1.4684 -2.3240
  100MOL   H24132119   1.767   0.988   0.832 -1.0332  0.2527  0.7452
  100MOL   C24232120   1.736   0.985   0.530  0.2058 -0.3319  0.8622
  100MOL   C24332121   1.619   0.928   0.449 -0.2572  0.2959 -0.2302
  100MOL   O24432122   1.609   0.779   0.447 -0.7528 -0.2478 -0.2400
  100MOL   C24532123   1.529   0.720   0.548 -0.2429  0.1274  0.1939
  100MOL   C24632124   1.381   0.727   0.494  0.4260  0.1581 -0.1081
  100MOL   C24732125   1.578   0.580   0.562  0.6008  0.5000 -0.0046
  100MOL   H24832126   1.808   1.014   0.453 -0.6384 -0.6952 -0.0844
  100MOL   H24932127   1.769   0.920   0.611 -2.0060 -0.7291  1.4532
  100MOL   H25032128   1.527   0.974   0.483 -1.2580 -0.4054 -1.9400
  100MOL   H25132129   1.546   0.783   0.635 -0.3719 -2.1401  1.9235
  100MOL   H25232130   1.362   0.657   0.413 -1.6484 -1.6246  1.8490
  100MOL   H25332131   1.307   0.718   0.574 -1.3243 -1.3564 -1.8337
  100MOL   H25432132   1.359   0.820   0.440  0.4743 -1.7192 -3.5069
  100MOL   H25532133   1.540   0.552   0.661 -0.2257 -2.4608 -1.1157
  100MOL   H25632134   1.544   0.518   0.479  0.2868  2.5224 -1.4103
  100MOL   H25732135   1.687   0.572   0.571  0.5668  0.2799  0.2073
  100MOL   C25832136   1.639   0.964   0.298  0.2264  0.0131  0.9671
  100MOL   C25932137   1.516   0.923   0.208 -0.1120  0.5577  0.1224
  100MOL   O26032138   1.564   0.919   0.077  0.3228 -0.3495  0.3680
  100MOL   C26132139   1.583   0.793   0.021  0.2846 -0.2482 -0.2628
  100MOL   C26232140   1.609   0.805   7.691 -0.2840 -0.1894  0.3430
  100MOL   C26332141   1.698   0.711   0.084 -0.2697  0.0066  0.4541
  100MOL   H26432142   1.665   1.068   0.280  0.5623  0.2333  2.6362
  100MOL   H26532143   1.732   0.915   0.267 -1.5724 -3.1175  0.3555
  100MOL   H26632144   1.476   0.827   0.239 -1.1679  0.7326 -0.6420
  100MOL   H26732145   1.497   0.730   0.044 -0.4400  0.6804 -0.3990
  100MOL   H26832146   1.695   0.870   7.670 -0.8601  0.1416 -1.0376
  100MOL   H26932147   1.532   0.862   7.640  0.1677  0.5662  0.4928
  100MOL   H27032148   1.624   0.711   7.638 -0.0280  0.3972 -0.6529
  100MOL   H27132149   1.667   0.681   0.184 -2.5878 -0.2286 -0.3247
  100MOL   H27232150   1.726   0.629   0.018 -2.1095  0.8844 -1.4790
  100MOL   H27332151   1.789   0.768   0.104 -0.1323  0.0116 -0.1892
  100MOL   C27432152   1.407   1.036   0.209 -0.0086 -0.4856  0.6134
  100MOL   C27532153   1.267   0.986   0.144 -0.0194 -0.8874 -0.2093
  100MOL   O27632154   1.211   0.909   0.246 -0.2094  0.5511 -0.2908
  100MOL   C27732155   1.115   0.818   0.209  0.3106 -0.4145 -0.4097
  100MOL   C27832156   1.028   0.770   0.330  0.0392 -0.2010 -0.1135
  100MOL   C27932157   1.178   0.701   0.130 -0.4002 -0.2400  0.6093
  100MOL   H28032158   1.391   1.066   0.312  0.0078  1.5923  0.0286
  100MOL   H28132159   1.455   1.120   0.159 -1.2654  0.4382  0.9381
  100MOL   H28232160   1.303   0.926   0.060  0.0878 -0.7132 -0.2893
  100MOL   H28332161   1.042   0.875   0.151  0.4562 -0.0388 -0.2277
  100MOL   H28432162   0.944   0.711   0.292  0.5957  0.1576 -1.9460
  100MOL   H28532163   1.087   0.700   0.389  1.5559  0.3058 -1.0090
  100MOL   H28632164   1.008   0.854   0.396  0.7519 -0.0180 -0.1292
  100MOL   H28732165   1.103   0.633   0.089 -0.1030  0.2377 -0.7453
  100MOL   H28832166   1.241   0.640   0.194  0.6895 -1.7546 -1.8455
  100MOL   H28932167   1.232   0.734   0.041 -1.6600  0.1967  0.0051
  100MOL   C29032168   1.172   1.109   0.120  0.4822 -0.3052 -0.7114
  100MOL   C29132169   1.227   1.230   0.039 -0.4885 -0.5499 -0.4734
  100MOL   O29232170   1.253   1.177   7.727 -0.1731  0.1296  0.3701
  100MOL   C29332171   1.366   1.232   7.651 -0.1969 -0.4744 -0.3187
  100MOL   C29432172   1.356   1.198   7.501  0.0859  0.0585  0.6160
  100MOL   C29532173   1.484   1.164   7.707 -0.2265  0.2775 -0.1865
  100MOL   H29632174   1.138   1.144   0.218 -0.8367  0.6204 -1.4831
  100MOL   H29732175   1.085   1.062   0.075 -1.1194 -0.7648  2.6976
  100MOL   H29832176   1.313   1.268   0.094 -1.1235  0.2826 -0.0455
  100MOL   H29932177   1.387   1.337   7.671 -1.9233 -0.7184  3.3459
  100MOL   H30032178   1.430   1.254   7.443 -0.8250 -0.1580 -0.8072
  100MOL   H30132179   1.365   1.091   7.482 -0.8737 -0.0845  0.9582
  100MOL   H30232180   1.257   1.219   7.460  0.7497 -2.4003 -2.4518
  100MOL   H30332181   1.511   1.209   7.803  0.1765 -0.2280 -0.0647
  100MOL   H30432182   1.463   1.058   7.722 -1.8048  0.6983  0.7403
  100MOL   H30532183   1.571   1.176   7.642  0.2604  0.4384  0.4878
  100MOL   C30632184   1.118   1.345   0.022 -0.3216  0.1372 -0.4227
  100MOL   C30732185   0.972   1.308   7.809 -0.1895 -0.6707  0.2980
  100MOL   O30832186   0.879   1.412   0.011 -1.0053  0.8257  0.4645
  100MOL   C30932187   0.752   1.406   7.779  0.3118 -0.2951  0.5301
  100MOL   C31032188   0.663   1.307   0.025  0.1858  0.3833 -0.0935
  100MOL   C31132189   0.701   1.549   7.778 -0.1541  0.0549 -0.0683
  100MOL   H31232190   1.157   1.415   7.768 -0.5475  1.8335  1.0046
  100MOL   H31332191   1.123   1.396   0.119  1.2559 -0.9696  0.0897
  100MOL   H31432192   0.974   1.293   7.701 -0.8492 -0.8227  0.3065
  100MOL   H31532193   0.761   1.382   7.673  1.5070  0.2585  0.5016
  100MOL   H31632194   0.687   1.212   7.798  1.3818  0.8202 -0.3638
  100MOL   H31732195   0.557   1.329   0.011  0.6495  2.5453 -0.4187
  100MOL   H31832196   0.679   1.306   0.133 -0.4367  1.4658  0.0217
  100MOL   H31932197   0.608   1.550   7.721 -0.6965 -2.7429  0.7108
  100MOL   H32032198   0.781   1.614   7.742  0.3635  0.1040  1.1442
  100MOL   H32132199   0.677   1.586   0.057 -2.5207 -1.6544  0.0412
  100MOL   H32232200   0.932   1.220   0.041  0.0097 -0.1553  1.3256
  101MOL     C132201   2.430   7.270   2.725 -0.2299  0.1941  0.1905
  101MOL     C232202   2.288   7.297   2.679  0.4457 -0.9036 -0.6486
  101MOL     O332203   2.274   7.430   2.622 -0.9288  0.1950 -0.2297
  101MOL     C432204   2.324   7.543   2.687  0.7685  0.3537  0.2676
  101MOL     C532205   2.250   7.570   2.822 -0.2027 -0.4106  0.0565
  101MOL     C632206   2.298   7.667   2.610  0.9836 -0.2042 -0.4120
  101MOL     H732207   2.498   7.308   2.649  0.2944 -0.6758  0.2134
  101MOL     H832208   2.454   7.298   2.827  1.3698 -2.4957  0.6055
  101MOL     H932209   2.234   7.294   2.774 -0.0106  3.1173 -0.6965
  101MOL    H1032210   2.431   7.532   2.702  0.6156 -0.3097  0.9097
  101MOL    H1132211   2.247   7.483   2.888 -1.6343 -0.3781  0.0647
  101MOL    H1232212   2.298   7.644   2.885 -0.0761 -0.3006 -0.1699
  101MOL    H1332213   2.150   7.611   2.806 -0.2272 -0.0108  1.1701
  101MOL    H1432214   2.341   7.756   2.657 -0.1137 -0.7093  1.5610
  101MOL    H1532215   2.346   7.663   2.512 -0.7725 -2.4988 -1.2185
  101MOL    H1632216   2.190   7.678   2.602  0.8662 -0.7090  0.4530
  101MOL    H1732217   2.452   7.164   2.711 -2.3004  0.0286 -2.2023
  101MOL    C1832218   2.245   7.190   2.574  0.2014 -0.5796 -0.0064
  101MOL    C1932219   2.097   7.205   2.528  1.0397  0.1693  0.2612
  101MOL    O2032220   2.052   7.072   2.503  0.7987 -0.2433  0.1313
  101MOL    C2132221   1.929   7.042   2.565 -0.6546  0.2434 -0.5838
  101MOL    C2232222   1.962   7.005   2.709  1.1586 -0.1739 -0.1886
  101MOL    C2332223   1.882   6.919   2.494 -0.5473 -0.1469 -0.0348
  101MOL    H2432224   2.306   7.165   2.488 -2.0189 -1.5892 -1.3278
  101MOL    H2532225   2.249   7.091   2.620  0.3939 -0.4068  0.3523
  101MOL    H2632226   2.049   7.266   2.605  1.1063 -0.6738  0.9838
  101MOL    H2732227   1.852   7.119   2.557 -1.0713 -0.0890  0.1453
  101MOL    H2832228   2.057   6.955   2.729  1.7728  0.7483 -0.7838
  101MOL    H2932229   1.970   7.097   2.767 -1.5805  0.0384 -0.0835
  101MOL    H3032230   1.888   6.940   2.756  1.4813 -1.1308 -0.9864
  101MOL    H3132231   1.790   6.897   2.549  0.3396 -1.0604  1.0954
  101MOL    H3232232   1.948   6.833   2.495 -2.0738 -1.3598  3.6895
  101MOL    H3332233   1.857   6.931   2.388 -0.6499  1.3753  0.1553
  101MOL    C3432234   2.088   7.277   2.391 -0.4501  0.1229  0.0389
  101MOL    C3532235   1.946   7.314   2.332  0.5938 -0.7787  0.6385
  101MOL    O3632236   1.955   7.410   2.231  0.2046 -0.2672 -0.1179
  101MOL    C3732237   1.903   7.540   2.264 -0.0470  0.2274 -0.6221
  101MOL    C3832238   1.992   7.615   2.364 -0.5309 -0.4870  0.5057
  101MOL    C3932239   1.894   7.614   2.133  0.2795 -0.5522  0.3499
  101MOL    H4032240   2.146   7.230   2.312 -1.1343 -0.9823  0.1840
  101MOL    H4132241   2.142   7.370   2.406  1.7345 -1.1080 -0.0884
  101MOL    H4232242   1.873   7.346   2.406  0.5911 -0.7640  0.6294
  101MOL    H4332243   1.801   7.541   2.302  0.3386  0.5983  0.4094
  101MOL    H4432244   1.962   7.719   2.374 -1.1719 -0.6026 -0.1515
  101MOL    H4532245   2.094   7.621   2.328 -0.8566  0.3244 -0.3062
  101MOL    H4632246   1.993   7.565   2.461 -2.9188 -0.7371  0.4324
  101MOL    H4732247   1.841   7.708   2.150 -0.2599 -0.4974 -1.4841
  101MOL    H4832248   1.987   7.647   2.085 -0.3792  2.3120  0.9624
  101MOL    H4932249   1.831   7.562   2.061 -0.3294  0.1571  0.3557
  101MOL    C5032250   1.882   7.196   2.258 -0.7190  0.4857 -0.1110
  101MOL    C5132251   1.728   7.192   2.257  0.3850 -0.0859  0.5363
  101MOL    O5232252   1.676   7.157   2.381  0.0651  0.3472  0.1345
  101MOL    C5332253   1.544   7.194   2.402  0.4029 -0.1069  0.8497
  101MOL    C5432254   1.542   7.328   2.462  0.2981  0.0157 -0.4142
  101MOL    C5532255   1.465   7.099   2.495  0.2362 -0.1771 -0.2480
  101MOL    H5632256   1.928   7.197   2.159  0.1656 -0.5548  0.2739
  101MOL    H5732257   1.910   7.096   2.290  2.7609  1.2243 -0.6273
  101MOL    H5832258   1.711   7.295   2.228 -0.8863 -0.8839 -1.7128
  101MOL    H5932259   1.493   7.206   2.307  0.0056  1.9052  1.2801
  101MOL    H6032260   1.607   7.330   2.550  1.4300  0.4077 -1.2447
  101MOL    H6132261   1.442   7.363   2.486  0.3681 -1.1209  1.7278
  101MOL    H6232262   1.587   7.403   2.398 -1.4585  0.3377 -1.2913
  101MOL    H6332263   1.470   7.001   2.446  2.3358  0.6125 -1.7057
  101MOL    H6432264   1.362   7.135   2.501  0.4483  0.2169  1.0568
  101MOL    H6532265   1.504   7.092   2.596 -1.4830 -0.2106  0.4333
  101MOL    C6632266   1.689   7.093   2.138 -0.0232  0.1123 -0.3969
  101MOL    C6732267   1.599   7.159   2.032 -0.0667  0.3159 -0.0291
  101MOL    O6832268   1.553   7.059   1.941  0.0046  0.1216 -0.0029
  101MOL    C6932269   1.449   6.979   1.985  0.0906  0.2911 -0.6690
  101MOL    C7032270   1.316   7.026   1.927 -0.1134  0.1702 -0.1516
  101MOL    C7132271   1.477   6.847   1.921 -0.6149 -0.3282  0.2760
  101MOL    H7232272   1.777   7.047   2.094 -0.4744  0.1060 -1.3107
  101MOL    H7332273   1.641   7.011   2.190 -0.5829  0.4270 -0.4098
  101MOL    H7432274   1.509   7.207   2.070 -0.7138  2.3956 -3.8903
  101MOL    H7532275   1.441   6.967   2.093 -0.1680 -2.2744 -0.9394
  101MOL    H7632276   1.224   6.967   1.933  1.5077 -2.2072  2.2817
  101MOL    H7732277   1.292   7.119   1.977 -0.8567  1.1084 -2.1718
  101MOL    H7832278   1.346   7.049   1.824 -1.4567 -1.3469 -0.9040
  101MOL    H7932279   1.403   6.769   1.932  0.7908 -1.7693 -0.3329
  101MOL    H8032280   1.573   6.802   1.947  0.3255 -0.2261 -2.7465
  101MOL    H8132281   1.478   6.854   1.812  0.2640 -1.9264  0.1637
  101MOL    C8232282   1.679   7.261   1.945  0.3000 -0.3963  0.2991
  101MOL    C8332283   1.595   7.370   1.884  0.8348 -0.1521  0.6631
  101MOL    O8432284   1.553   7.458   1.983 -0.1278  0.2803  0.0426
  101MOL    C8532285   1.445   7.540   1.960  0.4008  0.8663 -0.2917
  101MOL    C8632286   1.486   7.662   2.028 -0.4715  0.3229  0.5787
  101MOL    C8732287   1.317   7.478   2.014 -0.2116  0.3559 -0.0675
  101MOL    H8832288   1.746   7.320   2.008 -1.2668  1.0283  0.6591
  101MOL    H8932289   1.734   7.209   1.867 -0.4398  0.3461 -0.7334
  101MOL    H9032290   1.516   7.332   1.820  2.2345 -1.4767 -0.3191
  101MOL    H9132291   1.427   7.556   1.853 -1.8324 -0.2961 -0.1216
  101MOL    H9232292   1.489   7.673   2.136 -3.1043 -2.5317  1.0123
  101MOL    H9332293   1.584   7.692   1.991 -0.2909 -0.1033  0.7126
  101MOL    H9432294   1.413   7.738   1.996 -1.8511 -0.4025  1.9365
  101MOL    H9532295   1.300   7.388   1.955 -1.1208  1.5549 -1.6794
  101MOL    H9632296   1.323   7.456   2.120  0.6081 -0.2492 -0.2362
  101MOL    H9732297   1.232   7.546   2.004 -2.1320 -1.9845 -0.0847
  101MOL    C9832298   1.685   7.455   1.789  0.3712 -0.2776  0.2044
  101MOL    C9932299   1.716   7.392   1.650 -0.1192  0.3213  0.0401
  101MOL   O10032300   1.813   7.292   1.662 -0.2202  0.1514  0.1635
  101MOL   C10132301   1.790   7.180   1.574 -0.1767 -0.6395  0.0165
  101MOL   C10232302   1.668   7.095   1.620  0.1441  0.3456  0.2055
  101MOL   C10332303   1.915   7.102   1.551  0.7068 -0.1563  0.9550
  101MOL   H10432304   1.630   7.546   1.768 -0.7434 -1.0561 -0.2808
  101MOL   H10532305   1.780   7.480   1.836  0.5604  0.3640 -0.5150
  101MOL   H10632306   1.626   7.346   1.609 -1.3821  3.3138 -0.7545
  101MOL   H10732307   1.779   7.214   1.471 -0.8244  1.3689  0.7315
  101MOL   H10832308   1.641   7.029   1.539 -1.4348  0.1551  0.8620
  101MOL   H10932309   1.573   7.145   1.638  0.1433  0.5536 -0.3638
  101MOL   H11032310   1.696   7.030   1.703  0.1762  1.0919  0.7914
  101MOL   H11132311   1.995   7.145   1.491  0.4108 -2.6818 -1.3567
  101MOL   H11232312   1.889   7.017   1.488  0.6234  0.5584  0.0163
  101MOL   H11332313   1.959   7.059   1.642  0.0049 -0.2794  1.2410
  101MOL   C11432314   1.769   7.500   1.547 -0.2194  0.2323  0.2603
  101MOL   C11532315   1.669   7.589   1.480  0.3930 -0.3897  0.1708
  101MOL   O11632316   1.718   7.718   1.455  0.1935  0.0692  0.4360
  101MOL   C11732317   1.708   7.801   1.575  0.9642  0.1566  0.2530
  101MOL   C11832318   1.720   0.121   1.525  0.0188 -0.0322  0.1000
  101MOL   C11932319   1.809   7.783   1.675 -0.2823  0.1338  0.6354
  101MOL   H12032320   1.823   7.453   1.466  0.4016  0.2518  0.6610
  101MOL   H12132321   1.857   7.549   1.587  0.3584 -0.2459 -0.4246
  101MOL   H12232322   1.578   7.590   1.541 -0.4752 -1.6697 -1.0691
  101MOL   H12332323   1.608   7.790   1.616  0.9304 -1.6128 -0.2810
  101MOL   H12432324   1.815   0.128   1.472  0.6914 -0.5562  1.2116
  101MOL   H12532325   1.716   0.198   1.602  0.7354 -1.9136  2.0923
  101MOL   H12632326   1.635   0.133   1.458  1.1410 -0.3657 -1.4211
  101MOL   H12732327   1.797   7.691   1.733 -0.9632 -0.0959  0.1327
  101MOL   H12832328   1.799   0.041   1.750  0.3843  0.5713  0.2680
  101MOL   H12932329   1.909   7.777   1.633 -0.5324 -0.4752  0.1172
  101MOL   C13032330   1.608   7.522   1.363  0.1909  0.0379  0.0359
  101MOL   C13132331   1.497   7.601   1.300 -0.3858  0.2495 -0.0721
  101MOL   O13232332   1.371   7.570   1.356  0.1494 -0.1470  0.0181
  101MOL   C13332333   1.267   7.671   1.342 -0.0704  0.2539  0.6788
  101MOL   C13432334   1.141   7.588   1.341  0.0005 -0.0454  0.3041
  101MOL   C13532335   1.274   7.764   1.464  0.4099 -0.8246  0.0357
  101MOL   H13632336   1.577   7.418   1.376  1.5147 -0.4719 -0.7788
  101MOL   H13732337   1.697   7.517   1.300  0.7229  0.2811  0.7574
  101MOL   H13832338   1.513   7.707   1.317 -0.8983 -0.0101  2.1467
  101MOL   H13932339   1.283   7.727   1.250  1.6335 -1.1387  0.0999
  101MOL   H14032340   1.154   7.501   1.277 -0.3047 -0.8322  1.3007
  101MOL   H14132341   1.061   7.644   1.292 -0.2479  1.1571  2.0327
  101MOL   H14232342   1.088   7.567   1.434 -2.5939  2.4119 -0.5580
  101MOL   H14332343   1.336   0.032   1.445 -0.6157  0.0225  0.5642
  101MOL   H14432344   1.184   7.813   1.501  0.3698 -2.1870  1.8491
  101MOL   H14532345   1.304   7.706   1.551 -3.6778 -2.5591  0.3818
  101MOL   C14632346   1.487   7.575   1.152 -0.0141 -0.3965 -0.0569
  101MOL   C14732347   1.587   7.653   1.064  0.3068  0.7709  0.6198
  101MOL   O14832348   1.599   7.577   0.931 -0.0370 -0.1331  0.1188
  101MOL   C14932349   1.715   7.489   0.908  0.3075  0.2325  0.0166
  101MOL   C15032350   1.826   7.569   0.829 -0.3126 -0.4502  0.5943
  101MOL   C15132351   1.667   7.361   0.837 -0.1807  0.4843 -0.0293
  101MOL   H15232352   1.392   7.589   1.101  0.4661  0.8146 -0.6532
  101MOL   H15332353   1.509   7.470   1.134 -0.0165 -0.0566 -2.1296
  101MOL   H15432354   1.689   7.652   1.102  1.1214  0.3946 -1.5397
  101MOL   H15532355   1.753   7.463   1.007 -0.2735 -0.5480  0.0388
  101MOL   H15632356   1.856   7.655   0.888  0.6158 -0.4305  0.1037
  101MOL   H15732357   1.796   7.591   0.727  1.9822  0.7361  0.1530
  101MOL   H15832358   1.913   7.504   0.816  0.1087  0.7072 -2.8888
  101MOL   H15932359   1.583   7.317   0.890  0.3828  2.3515  2.5165
  101MOL   H16032360   1.753   7.294   0.836  0.4526  1.2633  0.8784
  101MOL   H16132361   1.627   7.389   0.739 -0.4032  1.5833  0.3616
  101MOL   C16232362   1.540   7.799   1.031 -0.3124 -0.2584 -0.2291
  101MOL   C16332363   1.663   0.062   1.008 -0.4012  0.2370 -0.4508
  101MOL   O16432364   1.632   0.177   0.925 -0.1958  0.0630 -0.2889
  101MOL   C16532365   1.616   0.153   0.787 -0.2003 -0.4194 -0.2213
  101MOL   C16632366   1.754   0.161   0.716  0.1006 -0.1496  0.5241
  101MOL   C16732367   1.522   0.271   0.743  0.0616  0.1472  0.0748
  101MOL   H16832368   1.475   7.793   0.944 -2.5937 -0.2473  1.4264
  101MOL   H16932369   1.489   0.019   1.119 -2.4047 -2.7452 -0.2240
  101MOL   H17032370   1.743   0.010   0.955 -0.6657 -1.5517  0.8770
  101MOL   H17132371   1.568   0.057   0.766 -1.2702 -0.1833  1.0811
  101MOL   H17232372   1.821   0.081   0.746  1.4265 -0.2699 -2.5234
  101MOL   H17332373   1.803   0.256   0.737 -1.1013  0.4961  0.4361
  101MOL   H17432374   1.736   0.156   0.608 -0.6545 -0.7969  0.6741
  101MOL   H17532375   1.418   0.249   0.765  0.8220 -2.9463  0.7238
  101MOL   H17632376   1.532   0.283   0.635  0.3738 -0.7318  0.0032
  101MOL   H17732377   1.541   0.368   0.789 -1.5871  0.4717  0.0966
  101MOL   C17832378   1.719   0.122   1.140  0.1591  0.3036 -0.1544
  101MOL   C17932379   1.871   0.152   1.145  0.1566 -0.0761 -0.5330
  101MOL   O18032380   1.952   0.054   1.078 -0.0544 -0.3120  0.8012
  101MOL   C18132381   2.065   0.006   1.153 -0.1499 -0.4212  0.0767
  101MOL   C18232382   2.171   7.776   1.058 -0.4471 -0.0467 -0.1703
  101MOL   C18332383   2.006   7.723   1.251  0.3045  0.6561 -0.3275
  101MOL   H18432384   1.713   0.036   1.207 -0.7801  0.0496 -0.5549
  101MOL   H18532385   1.659   0.203   1.180 -0.4623  0.2572 -0.9668
  101MOL   H18632386   1.894   0.155   1.251 -3.6999 -0.6685  0.4073
  101MOL   H18732387   2.102   0.087   1.216 -1.5199 -0.0283  0.4036
  101MOL   H18832388   2.120   7.720   0.980 -0.4316 -2.9989  1.8493
  101MOL   H18932389   2.225   7.705   1.120 -1.4615 -0.8469 -0.1953
  101MOL   H19032390   2.235   0.037   1.022  0.2622  0.3901  1.9882
  101MOL   H19132391   1.958   7.646   1.190 -0.4460  1.8467 -1.2528
  101MOL   H19232392   1.933   7.770   1.316 -0.8449  0.3895 -1.3966
  101MOL   H19332393   2.076   7.671   1.317 -1.3138 -0.8348  0.2456
  101MOL   C19432394   1.905   0.287   1.077  0.5181  0.1624 -0.2577
  101MOL   C19532395   1.828   0.407   1.130 -0.1979 -0.4099  0.7130
  101MOL   O19632396   1.875   0.526   1.068  0.0454 -0.0130 -0.0009
  101MOL   C19732397   1.817   0.545   0.942  0.3518 -0.6596 -0.1055
  101MOL   C19832398   1.666   0.593   0.962  0.8887 -0.5078 -0.6469
  101MOL   C19932399   1.898   0.661   0.888 -1.2255  0.1973  0.5017
  101MOL   H20032400   2.011   0.310   1.089  0.2060  1.4611  0.0425
  101MOL   H20132401   1.893   0.267   0.970  2.2764  0.2380 -0.4797
  101MOL   H20232402   1.723   0.387   1.108 -0.2923 -0.7301  1.4456
  101MOL   H20332403   1.813   0.455   0.881 -1.1198 -1.3561  0.9941
  101MOL   H20432404   1.664   0.646   1.058  0.1478  1.3372 -1.6684
  101MOL   H20532405   1.631   0.658   0.882 -2.5839 -0.8967  0.4726
  101MOL   H20632406   1.606   0.502   0.967  0.6278 -0.3563 -1.0517
  101MOL   H20732407   1.899   0.758   0.938 -1.4740  0.5709 -0.1984
  101MOL   H20832408   2.003   0.631   0.876 -0.8919  2.4608 -3.1418
  101MOL   H20932409   1.871   0.665   0.782 -0.3085  0.9405  0.2863
  101MOL   C21032410   1.846   0.435   1.285  0.1849 -0.1259  0.9057
  101MOL   C21132411   1.734   0.525   1.344 -0.3926  1.1317  0.4740
  101MOL   O21232412   1.624   0.438   1.387  0.2784  0.3741 -0.7490
  101MOL   C21332413   1.491   0.502   1.360 -0.7401  0.0038 -1.3417
  101MOL   C21432414   1.402   0.419   1.259  0.2237  0.4724 -0.2686
  101MOL   C21532415   1.431   0.521   1.503 -0.1180 -0.1127  0.7905
  101MOL   H21632416   1.945   0.469   1.314  0.0217  0.7117  0.4928
  101MOL   H21732417   1.845   0.342   1.343  1.4468 -1.0246 -0.4704
  101MOL   H21832418   1.698   0.584   1.259  0.7959 -0.1074 -0.9307
  101MOL   H21932419   1.501   0.604   1.323 -1.0070  0.1198 -1.0969
  101MOL   H22032420   1.442   0.421   1.158 -2.6518 -1.0246 -1.5087
  101MOL   H22132421   1.306   0.469   1.251  0.2733  0.5192 -0.5669
  101MOL   H22232422   1.396   0.312   1.282 -0.5075  0.9393  1.8350
  101MOL   H22332423   1.494   0.601   1.543  0.9679 -1.6149  2.1382
  101MOL   H22432424   1.448   0.424   1.549 -1.3336 -0.3968  0.6650
  101MOL   H22532425   1.325   0.547   1.497  0.2318  1.0889 -0.4992
  101MOL   C22632426   1.789   0.612   1.465 -0.1830  0.3889  0.3680
  101MOL   C22732427   1.911   0.715   1.438  0.2372  0.5676  0.3383
  101MOL   O22832428   1.895   0.822   1.524 -0.1833 -0.6798  0.4721
  101MOL   C22932429   1.955   0.809   1.649 -0.4904 -0.5426  0.1350
  101MOL   C23032430   1.917   0.687   1.729  0.1135 -0.1352 -0.0364
  101MOL   C23132431   1.920   0.937   1.716  0.2738 -0.9010 -0.7671
  101MOL   H23232432   1.816   0.533   1.536  0.0301 -0.5869 -0.7626
  101MOL   H23332433   1.705   0.668   1.505  1.5358  1.9798  1.8016
  101MOL   H23432434   1.993   0.645   1.453 -1.7024 -1.7470  0.4587
  101MOL   H23532435   2.062   0.823   1.633 -0.5693  0.1339  0.2024
  101MOL   H23632436   1.808   0.690   1.727  0.0558 -0.0690  1.8938
  101MOL   H23732437   1.963   0.590   1.709  1.9750  0.1843  2.4035
  101MOL   H23832438   1.957   0.706   1.829 -1.8089  3.4015  0.1451
  101MOL   H23932439   1.982   0.955   1.804  1.1131 -1.0020 -1.3412
  101MOL   H24032440   1.819   0.921   1.753  0.2558  0.4490 -0.2101
  101MOL   H24132441   1.922   1.026   1.652 -0.0390  0.5320  1.1626
  101MOL   C24232442   1.913   0.772   1.295 -0.3480  1.0043  0.3090
  101MOL   C24332443   2.052   0.836   1.254 -0.0838 -0.2673  0.8634
  101MOL   O24432444   2.159   0.753   1.305 -0.4103  0.0918 -0.6180
  101MOL   C24532445   2.192   0.638   1.241 -0.4888 -0.5665 -0.1041
  101MOL   C24632446   2.280   0.668   1.111 -0.5301  0.2828  0.6085
  101MOL   C24732447   2.281   0.561   1.344  0.1770  0.4208 -0.1443
  101MOL   H24832448   1.892   0.693   1.222  1.7483 -0.2781  1.0359
  101MOL   H24932449   1.833   0.841   1.272 -1.6760 -0.1421  1.4199
  101MOL   H25032450   2.054   0.836   1.145 -0.1214 -0.8329  0.8580
  101MOL   H25132451   2.100   0.584   1.219 -0.2559 -0.3174 -1.8323
  101MOL   H25232452   2.314   0.577   1.062 -1.5816  0.1098  0.1914
  101MOL   H25332453   2.216   0.721   1.041  0.3812  1.9350  0.9904
  101MOL   H25432454   2.361   0.735   1.141 -0.7120  0.8576 -0.1795
  101MOL   H25532455   2.367   0.627   1.357 -0.1595  1.1258 -1.3843
  101MOL   H25632456   2.230   0.548   1.440  1.3097 -0.9433  0.2814
  101MOL   H25732457   2.319   0.469   1.301  1.9012  0.2442  1.6683
  101MOL   C25832458   2.087   0.979   1.300 -0.3703  0.0008 -0.0559
  101MOL   C25932459   2.233   1.033   1.274  0.1555 -0.6734 -0.1144
  101MOL   O26032460   2.238   1.166   1.328 -0.3937  0.5037 -0.1140
  101MOL   C26132461   2.237   1.178   1.470 -0.1299 -0.1205 -0.5368
  101MOL   C26232462   2.362   1.235   1.517 -0.7037 -0.5178 -0.4596
  101MOL   C26332463   2.115   1.239   1.533 -0.1308  0.1761 -0.1095
  101MOL   H26432464   2.018   1.047   1.250 -1.0866 -1.3394 -0.9213
  101MOL   H26532465   2.067   0.988   1.407  0.5142  1.9138 -0.0325
  101MOL   H26632466   2.308   0.968   1.319 -0.0959 -2.7608 -2.6315
  101MOL   H26732467   2.232   1.074   1.503 -0.2100 -0.1674 -0.6933
  101MOL   H26832468   2.443   1.177   1.473 -1.1090 -0.8379 -0.7808
  101MOL   H26932469   2.367   1.229   1.626 -2.2617  0.2343 -0.3253
  101MOL   H27032470   2.366   1.338   1.482 -1.8031  0.0399  0.9900
  101MOL   H27132471   2.092   1.332   1.481 -2.0364  0.4285  1.1757
  101MOL   H27232472   2.018   1.191   1.519 -0.6698  0.7025  1.8174
  101MOL   H27332473   2.120   1.271   1.637 -0.1531  0.5347 -0.2171
  101MOL   C27432474   2.271   1.040   1.128  0.4209 -0.9159  0.0396
  101MOL   C27532475   2.425   1.045   1.100 -0.1989 -0.1307 -0.0455
  101MOL   O27632476   2.492   0.934   1.155 -0.3247  0.3909 -0.1921
  101MOL   C27732477   2.629   0.953   1.193 -0.4317  0.6432 -0.3545
  101MOL   C27832478   2.705   0.822   1.155  0.5644 -0.8003 -0.7622
  101MOL   C27932479   2.629   0.973   1.347  0.0711  0.7289  0.0738
  101MOL   H28032480   2.234   0.961   1.063  0.4380 -2.1010  1.4405
  101MOL   H28132481   2.234   1.130   1.079 -0.0200 -1.7044 -1.0851
  101MOL   H28232482   2.452   1.136   1.154 -1.1949  0.3259 -0.3058
  101MOL   H28332483   2.661   1.045   1.144  0.4025 -0.0025 -1.0346
  101MOL   H28432484   2.669   0.738   1.215 -0.2631  1.0953  1.4827
  101MOL   H28532485   2.678   0.793   1.054 -2.4191 -0.2020 -0.2029
  101MOL   H28632486   2.812   0.830   1.171  0.4481 -0.4161 -0.1329
  101MOL   H28732487   2.579   1.068   1.365  0.3845  0.5275  2.1653
  101MOL   H28832488   2.727   0.969   1.393 -0.4587  2.6500  1.4381
  101MOL   H28932489   2.565   0.898   1.394  0.7370 -1.3413 -2.2733
  101MOL   C29032490   2.469   1.068   0.951  0.4511  0.5276 -0.1571
  101MOL   C29132491   2.406   1.195   0.875  0.4217  0.7210  0.2451
  101MOL   O29232492   2.465   1.311   0.936  0.7113 -0.0897 -0.0148
  101MOL   C29332493   2.376   1.410   0.990  0.1441  0.2657  0.7748
  101MOL   C29432494   2.311   1.498   0.879  0.0491 -0.0341 -0.5121
  101MOL   C29532495   2.450   1.489   1.097 -0.4755 -0.4593 -0.6317
  101MOL   H29632496   2.438   0.983   0.891 -2.0834  2.0435 -1.0721
  101MOL   H29732497   2.577   1.067   0.940  0.3658  1.0645 -1.0965
  101MOL   H29832498   2.297   1.195   0.872  0.4203 -0.2974  0.0433
  101MOL   H29932499   2.302   1.354   1.048 -2.4629  0.1415 -2.4967
  101MOL   H30032500   2.233   1.559   0.923  1.3265  1.6796 -0.5585
  101MOL   H30132501   2.378   1.573   0.838 -1.7693  1.3611 -0.9786
  101MOL   H30232502   2.293   1.436   0.791  1.3937 -2.1296  0.6330
  101MOL   H30332503   2.505   1.424   1.166  1.1307  1.7421  0.2085
  101MOL   H30432504   2.528   1.545   1.045 -1.0594 -0.8162 -1.9223
  101MOL   H30532505   2.391   1.552   1.163  3.1553  0.8013  1.5979
  101MOL   C30632506   2.456   1.180   0.730 -0.0698  0.1733 -0.4441
  101MOL   C30732507   2.347   1.124   0.638  0.3697 -0.2286  0.8242
  101MOL   O30832508   2.335   0.990   0.656  0.2209 -0.0846  0.4188
  101MOL   C30932509   2.268   0.931   0.546  0.4572  0.2868 -0.3789
  101MOL   C31032510   2.320   0.793   0.532  0.8881 -0.0225 -0.6727
  101MOL   C31132511   2.123   0.944   0.566  0.1308  0.0008  0.3303
  101MOL   H31232512   2.546   1.120   0.716 -0.2123 -0.4251  1.1379
  101MOL   H31332513   2.486   1.278   0.693 -0.1777  1.0864  1.8087
  101MOL   H31432514   2.252   1.177   0.645 -0.0911 -1.0212  0.5433
  101MOL   H31532515   2.294   0.978   0.451 -1.2845  0.6366 -0.7004
  101MOL   H31632516   2.256   0.743   0.459 -0.1606  2.0404 -1.2074
  101MOL   H31732517   2.329   0.726   0.617  0.7386  1.9211  0.9320
  101MOL   H31832518   2.419   0.785   0.486 -0.0981 -1.2254 -2.5970
  101MOL   H31932519   2.094   1.049   0.563  3.2910  0.8923 -1.6607
  101MOL   H32032520   2.090   0.891   0.655  1.7758  1.5895  1.9188
  101MOL   H32132521   2.066   0.897   0.486  0.8758 -0.6821  0.1977
  101MOL   H32232522   2.382   1.154   0.539  0.8573  0.6908  1.2601
  102MOL     C132523   1.400   3.113   1.478  0.2702 -0.3646  0.0570
  102MOL     C232524   1.472   3.072   1.355  0.6142  0.3627  0.3043
  102MOL     O332525   1.611   3.100   1.346 -0.2710 -0.2745 -0.4214
  102MOL     C432526   1.649   3.211   1.265 -0.1454 -0.0842 -0.3121
  102MOL     C532527   1.799   3.199   1.250 -0.0396  0.0359  0.0993
  102MOL     C632528   1.607   3.345   1.334  0.1871 -0.1711 -1.1894
  102MOL     H732529   1.305   3.059   1.488 -0.6341  0.7628 -2.1462
  102MOL     H832530   1.444   3.083   1.573 -0.2808  0.1803  0.4831
  102MOL     H932531   1.417   3.104   1.266  2.7654 -0.9518 -1.5566
  102MOL    H1032532   1.601   3.213   1.167  2.3571 -1.0522 -1.6275
  102MOL    H1132533   1.830   3.284   1.189 -1.6558  0.9325  0.5012
  102MOL    H1232534   1.858   3.201   1.342 -1.0903  0.9126  0.7661
  102MOL    H1332535   1.821   3.109   1.193  0.5773  0.8024 -0.8917
  102MOL    H1432536   1.642   3.350   1.437 -0.0797  0.1475 -1.1119
  102MOL    H1532537   1.649   3.431   1.283  0.6863  0.5498  0.3957
  102MOL    H1632538   1.498   3.354   1.329  0.0960 -1.3189 -1.3724
  102MOL    H1732539   1.365   3.216   1.474 -0.7493 -0.7823 -3.0841
  102MOL    C1832540   1.492   2.922   1.342  0.0721  0.4192  0.2603
  102MOL    C1932541   1.519   2.861   1.199 -0.2301 -0.2880  0.1571
  102MOL    O2032542   1.403   2.877   1.125  0.6869 -0.1487 -0.0983
  102MOL    C2132543   1.409   2.866   0.984  0.5971  0.4943  0.2953
  102MOL    C2232544   1.483   2.982   0.922 -0.6509  0.2743 -0.4478
  102MOL    C2332545   1.267   2.859   0.923  0.5387 -0.3704  0.1288
  102MOL    H2432546   1.576   2.884   1.400  1.8502 -0.2340 -2.6512
  102MOL    H2532547   1.408   2.866   1.383  1.2749 -1.1801  0.6009
  102MOL    H2632548   1.603   2.907   1.147 -0.9136 -2.6173 -3.1010
  102MOL    H2732549   1.452   2.771   0.954 -1.3520 -0.5970  0.9220
  102MOL    H2832550   1.446   3.074   0.968 -0.9930  0.7200 -1.5905
  102MOL    H2932551   1.589   2.978   0.945 -0.7158  2.3591  0.3175
  102MOL    H3032552   1.469   2.982   0.814 -0.7198 -1.2106 -0.4397
  102MOL    H3132553   1.284   2.833   0.819 -1.2189  0.3121 -0.3618
  102MOL    H3232554   1.208   2.950   0.934 -0.4529 -0.9011 -0.6985
  102MOL    H3332555   1.204   2.777   0.959 -0.6479  0.5518  0.2053
  102MOL    C3432556   1.561   2.713   1.212 -0.2957 -0.8004 -0.3106
  102MOL    C3532557   1.655   2.671   1.107 -0.4216  0.4123 -1.0092
  102MOL    O3632558   1.790   2.661   1.170  0.7098  0.0978  0.3536
  102MOL    C3732559   1.903   2.714   1.101 -0.0361 -0.1983 -0.0726
  102MOL    C3832560   1.899   2.864   1.077 -0.7142 -0.1814 -0.8775
  102MOL    C3932561   2.023   2.683   1.189  0.5640  0.2744 -0.3936
  102MOL    H4032562   1.474   2.647   1.218  0.0519 -1.2299  0.1481
  102MOL    H4132563   1.620   2.694   1.303 -1.6455 -1.3669  0.4630
  102MOL    H4232564   1.651   2.737   1.021 -0.3119  0.7937 -0.7199
  102MOL    H4332565   1.912   2.664   1.004 -0.8829 -1.3093  0.4077
  102MOL    H4432566   1.966   2.882   0.993 -0.1451 -2.0486 -0.8339
  102MOL    H4532567   1.935   2.928   1.157  0.7996 -0.8763 -0.9836
  102MOL    H4632568   1.803   2.906   1.046 -1.4344  0.3945  1.9912
  102MOL    H4732569   2.015   2.578   1.218  0.3594  0.2604 -0.5005
  102MOL    H4832570   2.105   2.690   1.117  1.2480 -0.0294  0.3540
  102MOL    H4932571   2.041   2.738   1.281  0.7690 -2.1825  1.0788
  102MOL    C5032572   1.612   2.537   1.042  0.0008 -0.0262 -0.3045
  102MOL    C5132573   1.669   2.516   0.900 -0.0611  0.0723 -0.7156
  102MOL    O5232574   1.637   2.627   0.816 -0.4066  0.1195 -0.0459
  102MOL    C5332575   1.682   2.612   0.679 -0.0626  0.2237 -0.0390
  102MOL    C5432576   1.834   2.586   0.657 -0.2072 -0.7245  0.7351
  102MOL    C5532577   1.643   2.745   0.614  0.2009 -0.1389 -0.3649
  102MOL    H5632578   1.626   2.461   1.119  2.1701  0.0270 -0.6246
  102MOL    H5732579   1.505   2.550   1.024  0.0499  0.9437  0.0974
  102MOL    H5832580   1.778   2.516   0.909 -0.2448  1.1789  1.8137
  102MOL    H5932581   1.631   2.531   0.628 -0.8817 -0.6086  2.0418
  102MOL    H6032582   1.897   2.643   0.725  0.5750  0.1268 -0.6883
  102MOL    H6132583   1.867   2.600   0.554  2.6570  0.4313  1.7413
  102MOL    H6232584   1.852   2.482   0.684 -0.1982 -0.1145  3.2508
  102MOL    H6332585   1.534   2.750   0.618  0.0811 -1.6762 -1.3879
  102MOL    H6432586   1.666   2.753   0.508  0.5743  1.4986 -0.1786
  102MOL    H6532587   1.709   2.819   0.659  1.8384 -1.9638  0.3191
  102MOL    C6632588   1.611   2.382   0.844  0.6937  0.3470  0.2356
  102MOL    C6732589   1.462   2.369   0.801 -0.8354  0.5577 -0.3756
  102MOL    O6832590   1.396   2.371   0.929 -0.0583 -0.1969 -0.7121
  102MOL    C6932591   1.259   2.375   0.916 -0.0155  0.5598 -0.0496
  102MOL    C7032592   1.208   2.296   1.034 -0.3595  0.1511  0.6755
  102MOL    C7132593   1.220   2.526   0.915  0.0468  0.7186  0.1533
  102MOL    H7232594   1.673   2.348   0.762  1.3941 -1.2652  1.3930
  102MOL    H7332595   1.617   2.304   0.920  1.3495 -2.5267 -2.6851
  102MOL    H7432596   1.431   2.462   0.753 -1.9772  0.2383 -0.2606
  102MOL    H7532597   1.209   2.336   0.827  1.2241 -1.5075  0.1153
  102MOL    H7632598   1.244   2.195   1.016  1.1480  0.8657 -0.3687
  102MOL    H7732599   1.244   2.336   1.129  2.2569 -2.9037  1.0529
  102MOL    H7832600   1.099   2.301   1.026 -0.3029 -0.1593 -0.3463
  102MOL    H7932601   1.250   2.579   1.005  0.1991  0.7568  0.0813
  102MOL    H8032602   1.112   2.533   0.915  0.0471  1.3401 -2.9091
  102MOL    H8132603   1.252   2.567   0.819 -1.0828 -0.3870 -0.7232
  102MOL    C8232604   1.433   2.232   0.724  0.0979  0.1470  0.0362
  102MOL    C8332605   1.375   2.271   0.586 -0.4371  0.4937 -0.4263
  102MOL    O8432606   1.480   2.301   0.495  0.7105 -0.7553 -0.7146
  102MOL    C8532607   1.460   2.427   0.421  1.3979  0.5577 -0.7798
  102MOL    C8632608   1.342   2.405   0.323  0.1903 -0.0188 -0.7586
  102MOL    C8732609   1.589   2.466   0.359  0.0935 -0.9191  0.1042
  102MOL    H8832610   1.523   2.173   0.708 -0.0601  0.2691 -1.3839
  102MOL    H8932611   1.363   2.171   0.781 -0.0144  0.5789  0.3637
  102MOL    H9032612   1.302   2.352   0.597 -1.8155 -0.9093  0.8670
  102MOL    H9132613   1.441   2.510   0.489  0.7850  0.4813 -0.8587
  102MOL    H9232614   1.250   2.395   0.380 -0.0365  0.2363 -1.0714
  102MOL    H9332615   1.328   2.491   0.258 -0.4691 -1.3455 -2.4150
  102MOL    H9432616   1.373   2.312   0.275 -0.0934 -0.1786 -0.6362
  102MOL    H9532617   1.600   2.575   0.358 -2.1731 -0.6510  1.4091
  102MOL    H9632618   1.679   2.429   0.409  0.4139  1.2989  1.2457
  102MOL    H9732619   1.603   2.433   0.256 -0.2374  1.1099 -0.6314
  102MOL    C9832620   1.296   2.155   0.527 -0.0578 -0.4258  0.3489
  102MOL    C9932621   1.155   2.129   0.573 -0.5529  0.0626 -0.0690
  102MOL   O10032622   1.106   2.010   0.505 -0.1580  0.7014 -0.2989
  102MOL   C10132623   1.092   1.891   0.581 -0.1371  0.0492 -0.8451
  102MOL   C10232624   1.218   1.800   0.581 -0.1369 -0.8015 -0.2382
  102MOL   C10332625   0.985   1.817   0.504  0.1226 -0.0226 -0.7203
  102MOL   H10432626   1.271   2.181   0.424 -0.1221  3.0310  1.1654
  102MOL   H10532627   1.352   2.062   0.517  1.6740  0.3196  2.6349
  102MOL   H10632628   1.157   2.113   0.681  0.9405  1.7769  0.1880
  102MOL   H10732629   1.070   1.911   0.686  2.1106  1.0650 -0.5319
  102MOL   H10832630   1.208   1.703   0.629 -3.0403  0.0590  0.9592
  102MOL   H10932631   1.306   1.836   0.634  0.7503 -0.1699 -2.0684
  102MOL   H11032632   1.248   1.789   0.477  0.4930 -1.5610  0.0209
  102MOL   H11132633   0.941   1.728   0.550 -2.8783  0.4095 -2.6200
  102MOL   H11232634   1.018   1.775   0.410 -0.1878 -0.3332 -0.6895
  102MOL   H11332635   0.889   1.865   0.482  1.0202  2.4438  0.5055
  102MOL   C11432636   1.047   2.236   0.542 -1.5000 -1.0993 -0.4780
  102MOL   C11532637   0.904   2.208   0.595 -0.3326 -0.0838  0.2989
  102MOL   O11632638   0.902   2.214   0.736  0.0186  0.2745 -0.4199
  102MOL   C11732639   0.796   2.148   0.807  0.2103  0.7758 -0.5115
  102MOL   C11832640   0.754   2.218   0.938 -0.9240  0.5057 -0.2248
  102MOL   C11932641   0.855   2.009   0.845  0.0959  0.0420 -0.3154
  102MOL   H12032642   1.046   2.236   0.433  2.4325 -0.1774 -0.5855
  102MOL   H12132643   1.068   2.334   0.585 -0.5093 -1.3256 -0.4437
  102MOL   H12232644   0.874   2.108   0.564 -0.9121 -0.1660  1.1186
  102MOL   H12332645   0.708   2.121   0.749  1.8868 -1.4382 -2.1301
  102MOL   H12432646   0.692   2.302   0.905 -0.6734  0.3864 -1.0170
  102MOL   H12532647   0.848   2.240   0.988  0.7504 -1.1952 -2.5188
  102MOL   H12632648   0.692   2.155   1.001 -1.3534 -0.1089 -1.2374
  102MOL   H12732649   0.781   1.961   0.909  1.1777 -0.7453  0.3662
  102MOL   H12832650   0.952   2.000   0.894 -0.2318 -3.6046 -0.2468
  102MOL   H12932651   0.854   1.951   0.753 -3.3854  0.8091 -0.8346
  102MOL   C13032652   0.781   2.311   0.548 -0.4552  0.1406  1.1739
  102MOL   C13132653   0.733   2.282   0.403 -0.5011  0.4480  0.0305
  102MOL   O13232654   0.674   2.401   0.361  0.3573  0.1198  0.5087
  102MOL   C13332655   0.728   2.481   0.259  0.6203  0.0679  0.1625
  102MOL   C13432656   0.637   2.610   0.250 -0.3494  0.6643  0.3067
  102MOL   C13532657   0.867   2.533   0.299 -0.0343  0.2882  0.0527
  102MOL   H13632658   0.816   2.413   0.557  1.5053 -0.3539 -0.5651
  102MOL   H13732659   0.689   2.292   0.603 -3.6145 -0.2142 -3.8971
  102MOL   H13832660   0.810   2.244   0.336  1.7302  0.9167  2.2593
  102MOL   H13932661   0.724   2.423   0.167 -0.9000 -0.7940  0.7641
  102MOL   H14032662   0.542   2.568   0.217  0.2492  0.6291 -1.4545
  102MOL   H14132663   0.680   2.677   0.175  0.1858  0.5336  0.4930
  102MOL   H14232664   0.628   2.651   0.350  0.3543  1.5218  0.0188
  102MOL   H14332665   0.898   2.599   0.219  1.9879  1.1099  1.4741
  102MOL   H14432666   0.865   2.583   0.396  0.4295 -0.6255  0.5367
  102MOL   H14532667   0.951   2.465   0.308  0.0260  0.3573  0.0082
  102MOL   C14632668   0.610   2.182   0.398 -0.0992 -0.0939 -0.0155
  102MOL   C14732669   0.597   2.095   0.273  0.1356  0.9170 -0.1685
  102MOL   O14832670   0.700   1.994   0.283 -0.0662  0.4329 -0.3885
  102MOL   C14932671   0.779   1.981   0.166  0.3827 -0.4732 -1.4686
  102MOL   C15032672   0.810   1.834   0.147 -0.3640  0.2385  0.4446
  102MOL   C15132673   0.911   2.060   0.174 -0.1464  0.4668  0.0889
  102MOL   H15232674   0.519   2.241   0.414  0.2944  1.1163 -2.0718
  102MOL   H15332675   0.613   2.112   0.482 -2.4435  1.1391  1.1561
  102MOL   H15432676   0.623   2.162   0.191  0.0284  0.6866 -0.3904
  102MOL   H15532677   0.730   2.009   0.073  0.3680  0.1669 -1.2674
  102MOL   H15632678   0.726   1.765   0.149  2.1904 -2.9966  0.2303
  102MOL   H15732679   0.867   1.801   0.234  0.4383  1.3093  0.3396
  102MOL   H15832680   0.868   1.799   0.061 -0.9253  1.0067 -0.2460
  102MOL   H15932681   0.976   2.025   0.093  0.2985 -1.0880  1.1035
  102MOL   H16032682   0.964   2.046   0.268  0.4631 -0.4649 -0.3887
  102MOL   H16132683   0.890   2.163   0.146 -0.5351  0.2274 -0.5096
  102MOL   C16232684   0.456   2.027   0.252 -0.3534  0.7730  0.0307
  102MOL   C16332685   0.353   2.124   0.182 -0.2746  0.2523 -0.0205
  102MOL   O16432686   0.373   2.140   0.041 -0.5248 -0.3570  0.4245
  102MOL   C16532687   0.363   2.270   7.810  0.2733 -0.2011  0.0742
  102MOL   C16632688   0.305   2.264   7.670  0.0931  0.3804  0.4258
  102MOL   C16732689   0.496   2.333   7.800 -0.4729  0.5250 -0.1517
  102MOL   H16832690   0.470   1.933   0.199 -0.9724  0.6129  0.1533
  102MOL   H16932691   0.410   2.000   0.347 -1.2658 -2.5399 -1.2740
  102MOL   H17032692   0.357   2.222   0.228  1.0136  1.5778 -2.8105
  102MOL   H17132693   0.293   2.335   0.043 -2.4382 -2.3517 -0.7597
  102MOL   H17232694   0.199   2.243   7.677  0.2341 -0.7375 -0.6695
  102MOL   H17332695   0.342   2.189   7.600 -1.1184  1.0176 -0.9179
  102MOL   H17432696   0.323   2.361   7.624 -0.1484 -0.0044 -0.4831
  102MOL   H17532697   0.559   2.268   7.739  1.9818  1.3888  1.3866
  102MOL   H17632698   0.543   2.350   0.077  1.9332 -1.4896 -0.9018
  102MOL   H17732699   0.496   2.431   7.754  2.8969  0.7065  0.0955
  102MOL   C17832700   0.208   2.069   0.187  0.2310  0.8190 -0.0541
  102MOL   C17932701   0.136   2.076   0.325 -0.1444  0.2302 -0.8443
  102MOL   O18032702   0.161   1.964   0.410  0.1838 -0.1701 -0.5464
  102MOL   C18132703   0.118   1.838   0.356  0.1773  1.1813  0.1132
  102MOL   C18232704   7.782   1.805   0.371 -0.2292  0.1915  0.5317
  102MOL   C18332705   0.182   1.729   0.446  0.1178 -0.7201  0.5767
  102MOL   H18432706   0.205   1.972   0.137  2.3012  0.3059  0.7649
  102MOL   H18532707   0.143   2.141   0.137  1.5332  1.2726 -1.1420
  102MOL   H18632708   0.032   2.073   0.295  0.3436 -1.4936 -2.4629
  102MOL   H18732709   0.141   1.817   0.251 -0.7228 -0.6229  0.2443
  102MOL   H18832710   7.731   1.878   0.309 -2.2891 -0.6224  1.2127
  102MOL   H18932711   7.738   1.812   0.470 -0.1175 -1.7508  0.7445
  102MOL   H19032712   7.764   1.700   0.348  1.2913  0.1281 -0.4804
  102MOL   H19132713   0.287   1.756   0.446 -0.2159  0.6731 -1.6745
  102MOL   H19232714   0.187   1.630   0.401 -3.0080 -1.1757  1.1179
  102MOL   H19332715   0.138   1.717   0.545  0.6959 -0.1553  0.9092
  102MOL   C19432716   0.160   2.206   0.406 -0.3974  0.0854 -0.3885
  102MOL   C19532717   0.045   2.250   0.498  0.8742 -0.1809 -0.2637
  102MOL   O19632718   7.764   2.300   0.409  0.1255 -0.0803 -1.2463
  102MOL   C19732719   7.627   2.274   0.436  0.0293  0.2027 -0.4182
  102MOL   C19832720   7.541   2.368   0.350 -0.4108  0.2556 -1.0096
  102MOL   C19932721   7.603   2.128   0.405  0.3750  0.2300 -0.1925
  102MOL   H20032722   0.251   2.183   0.462 -0.2795 -0.8935 -0.9525
  102MOL   H20132723   0.189   2.293   0.347  0.4600 -1.7283 -2.7355
  102MOL   H20232724   0.007   2.163   0.551  0.6326 -0.3216 -0.6623
  102MOL   H20332725   7.605   2.299   0.539 -2.8152 -0.5426 -0.8000
  102MOL   H20432726   7.568   2.472   0.373  0.0799  0.3363 -1.9022
  102MOL   H20532727   7.574   2.360   0.246  0.2746 -1.5881 -0.6651
  102MOL   H20632728   7.438   2.340   0.373  0.1134 -1.0639 -0.2434
  102MOL   H20732729   7.619   2.091   0.304 -1.2621  0.2934 -0.4967
  102MOL   H20832730   7.653   2.069   0.482 -0.1434  1.9591  1.5088
  102MOL   H20932731   7.501   2.102   0.433  0.1453  1.0082 -0.2910
  102MOL   C21032732   0.087   2.370   0.583  0.2551 -0.6230  0.0027
  102MOL   C21132733   0.166   2.314   0.708  0.1569 -0.2331 -0.2471
  102MOL   O21232734   0.213   2.436   0.767 -0.5500 -0.2403 -0.0081
  102MOL   C21332735   0.353   2.435   0.785 -0.2398  0.1386 -0.5373
  102MOL   C21432736   0.422   2.479   0.660 -0.2650 -0.2833 -0.0300
  102MOL   C21532737   0.377   2.534   0.905  0.1202  0.5693  0.6041
  102MOL   H21632738   0.000   2.426   0.618 -0.8566 -1.0848 -1.9506
  102MOL   H21732739   0.154   2.441   0.535  0.8623 -1.2980 -0.1519
  102MOL   H21832740   0.245   2.255   0.662  1.5275 -0.8417  2.7543
  102MOL   H21932741   0.396   2.341   0.820  0.8353  1.3076  1.3504
  102MOL   H22032742   0.370   2.561   0.611  1.2608 -0.1606 -1.4909
  102MOL   H22132743   0.434   2.406   0.580 -0.8126 -1.0818  0.6083
  102MOL   H22232744   0.524   2.500   0.691 -0.6364  0.2984  0.8199
  102MOL   H22332745   0.486   2.536   0.913  0.1713  3.6302 -0.2535
  102MOL   H22432746   0.325   2.487   0.989  0.9502 -0.0478  0.7886
  102MOL   H22532747   0.338   2.635   0.907 -1.0902  0.2334 -3.0464
  102MOL   C22632748   0.091   2.228   0.811  0.1430 -0.5846 -0.6973
  102MOL   C22732749   0.164   2.191   0.945 -0.1258 -0.2716 -0.3611
  102MOL   O22832750   0.290   2.132   0.925  0.3085  0.1937  0.1849
  102MOL   C22932751   0.298   2.014   0.846  0.2643  0.6401 -0.2442
  102MOL   C23032752   0.311   1.891   0.935  0.1017  0.7737 -0.8328
  102MOL   C23132753   0.434   2.023   0.771  0.9429 -0.6323 -0.4490
  102MOL   H23232754   0.054   2.134   0.770 -0.6380 -0.8813  0.6464
  102MOL   H23332755   7.820   2.279   0.843  0.8996  1.9184 -2.3899
  102MOL   H23432756   0.188   2.288   0.989 -1.6597  0.7365 -1.7077
  102MOL   H23532757   0.224   2.006   0.766  0.9838  0.8789 -0.9496
  102MOL   H23632758   0.224   1.854   0.988 -2.2914  0.6496 -4.6035
  102MOL   H23732759   0.352   1.807   0.879  0.0601 -0.1078  0.4482
  102MOL   H23832760   0.387   1.912   1.010 -0.0796 -0.5900 -0.2526
  102MOL   H23932761   0.431   2.108   0.703 -0.8264 -0.1459  0.2176
  102MOL   H24032762   0.455   1.931   0.717 -0.1499 -1.0791 -0.1330
  102MOL   H24132763   0.507   2.038   0.851 -1.1839 -0.8406  1.6001
  102MOL   C24232764   0.073   2.110   1.043  0.3009 -0.3585 -0.8459
  102MOL   C24332765   0.146   2.069   1.179  0.1826 -0.0981  0.2148
  102MOL   O24432766   0.045   1.980   1.239  0.3212  0.0987  0.2850
  102MOL   C24532767   0.096   1.883   1.333 -1.1569 -0.4071 -0.1809
  102MOL   C24632768   7.792   1.824   1.402  0.1644 -0.0205  0.4608
  102MOL   C24732769   0.180   1.777   1.265  0.7282 -0.0648 -0.2610
  102MOL   H24832770   7.796   2.157   1.060  1.1008  1.3062 -0.7603
  102MOL   H24932771   0.048   2.017   0.992  0.3633 -1.0230  0.3189
  102MOL   H25032772   0.241   2.023   1.155 -0.2908 -1.0815  0.2098
  102MOL   H25132773   0.158   1.927   1.411  2.2721 -2.3869 -1.6345
  102MOL   H25232774   7.739   1.885   1.476  0.7777  1.4352 -0.2747
  102MOL   H25332775   7.718   1.790   1.330  0.8133  0.1310 -0.2896
  102MOL   H25432776   7.816   1.727   1.445 -0.9885 -1.0162 -1.1135
  102MOL   H25532777   0.200   1.698   1.338 -0.2245 -0.3190 -0.2692
  102MOL   H25632778   0.121   1.724   1.191 -1.3038  0.3602  1.0068
  102MOL   H25732779   0.266   1.821   1.215 -0.4816  0.6062 -1.7907
  102MOL   C25832780   0.177   2.189   1.267 -0.8907  0.7109 -0.3805
  102MOL   C25932781   0.065   2.291   1.292 -0.4298  0.0745 -0.0680
  102MOL   O26032782   0.123   2.384   1.390 -0.1977 -0.1145  0.2880
  102MOL   C26132783   0.164   2.513   1.338 -0.2284 -0.2215  0.1026
  102MOL   C26232784   0.088   2.629   1.409  0.0866 -0.7716  0.4615
  102MOL   C26332785   0.319   2.529   1.344  0.2238  0.1855  1.0439
  102MOL   H26432786   0.207   2.143   1.361  0.1717 -1.2852 -1.6626
  102MOL   H26532787   0.268   2.240   1.235 -0.7875  0.8853  0.1917
  102MOL   H26632788   0.038   2.341   1.200  2.3208  0.5508 -0.6521
  102MOL   H26732789   0.143   2.530   1.233 -1.4892  1.5511  0.6267
  102MOL   H26832790   0.095   2.600   1.514  2.0333 -1.4788  0.1533
  102MOL   H26932791   7.805   2.626   1.372  0.0514 -3.0472  0.6634
  102MOL   H27032792   0.130   2.728   1.391 -0.9562 -0.5321 -0.7605
  102MOL   H27132793   0.376   2.441   1.315  0.6255  0.3291  1.4088
  102MOL   H27232794   0.342   2.611   1.276 -0.1285 -1.6604 -1.3834
  102MOL   H27332795   0.346   2.569   1.441 -0.3293  1.3936  0.7108
  102MOL   C27432796   7.769   2.229   1.363 -0.4249 -0.0492 -0.6205
  102MOL   C27532797   7.651   2.318   1.382 -0.0859  0.2143 -0.0584
  102MOL   O27632798   7.601   2.338   1.251 -0.2102 -0.1199 -0.0094
  102MOL   C27732799   7.612   2.477   1.210 -0.0408 -0.5299 -0.8784
  102MOL   C27832800   7.517   2.570   1.289 -0.8975  0.6807 -0.0161
  102MOL   C27932801   7.584   2.483   1.059 -0.3175  0.3746 -0.3089
  102MOL   H28032802   7.727   2.147   1.306 -2.4372  1.0439 -0.7404
  102MOL   H28132803   7.814   2.211   1.461 -0.3250  0.8560 -0.5001
  102MOL   H28232804   7.686   2.413   1.421 -0.2024  0.1157  0.2981
  102MOL   H28332805   7.716   2.510   1.209 -0.0254 -0.5744 -1.7045
  102MOL   H28432806   7.416   2.545   1.256 -0.1531 -2.2321 -0.2697
  102MOL   H28532807   7.540   2.574   1.396 -0.3750 -1.9431 -0.0056
  102MOL   H28632808   7.543   2.672   1.261 -0.1295 -0.1080 -2.2731
  102MOL   H28732809   7.597   2.583   1.019  1.5749 -0.0985 -0.9028
  102MOL   H28832810   7.483   2.450   1.032 -1.0386  0.7425  1.8422
  102MOL   H28932811   7.666   2.428   1.013  0.5458 -0.4563  2.1332
  102MOL   C29032812   7.543   2.262   1.475  0.6568 -0.1166  0.4123
  102MOL   C29132813   7.561   2.309   1.623  0.0641  0.3489  0.2840
  102MOL   O29232814   7.505   2.445   1.632 -0.2975  0.3046 -0.5894
  102MOL   C29332815   7.528   2.515   1.760 -0.1441  0.5609  0.2138
  102MOL   C29432816   7.389   2.545   1.820 -0.0080  0.0319  0.2136
  102MOL   C29532817   7.617   2.635   1.719 -0.5828  0.1828  0.1806
  102MOL   H29632818   7.545   2.155   1.454  2.0321  0.4906 -2.7493
  102MOL   H29732819   7.442   2.286   1.441  0.6504 -0.2480  0.3405
  102MOL   H29832820   7.669   2.323   1.632  0.4421  0.1905 -3.4430
  102MOL   H29932821   7.577   2.450   1.832 -0.0619  0.8937  0.4545
  102MOL   H30032822   7.402   2.593   1.917  0.8182  1.7075 -0.6990
  102MOL   H30132823   7.337   2.608   1.747  1.8378  1.0445 -0.2442
  102MOL   H30232824   7.333   2.452   1.821  0.5538 -0.3051  0.5689
  102MOL   H30332825   7.549   2.708   1.674 -3.3272 -1.0070  2.2233
  102MOL   H30432826   7.670   2.687   1.798  2.1838 -1.9837 -0.1816
  102MOL   H30532827   7.691   2.610   1.643 -1.6406 -0.8857 -0.5248
  102MOL   C30632828   7.509   2.202   1.729  0.6185 -1.0577  0.6732
  102MOL   C30732829   7.580   2.072   1.736  0.4366  0.3019 -0.3199
  102MOL   O30832830   7.717   2.093   1.758  0.1153 -0.0079 -0.1706
  102MOL   C30932831   7.800   1.993   1.818  0.0996 -0.1880 -0.3229
  102MOL   C31032832   0.111   1.997   1.738 -0.4423  0.5958 -0.4294
  102MOL   C31132833   7.819   2.026   1.963 -0.0457 -0.4031  0.2953
  102MOL   H31232834   7.403   2.190   1.707  0.5124  0.6716  0.1309
  102MOL   H31332835   7.510   2.241   1.831 -1.5273  1.7378 -0.3078
  102MOL   H31432836   7.539   2.019   1.822  1.4521 -1.2430 -0.7738
  102MOL   H31532837   7.754   1.894   1.815 -1.1403  0.2232  2.9508
  102MOL   H31632838   0.086   1.978   1.633 -1.2132 -1.6003  0.1336
  102MOL   H31732839   0.174   1.916   1.772 -0.3106  1.0886  0.5140
  102MOL   H31832840   0.170   2.088   1.733  0.0364  0.4488  2.0183
  102MOL   H31932841   7.721   2.054   2.001 -0.9236 -1.8222 -0.8668
  102MOL   H32032842   0.069   2.108   1.979 -0.6162 -0.0376  0.9473
  102MOL   H32132843   0.045   1.951   2.027  1.6606 -0.8368 -1.3856
  102MOL   H32232844   7.561   2.016   1.645  0.0421  1.0114 -0.6816
  103MOL     C132845   7.653   2.790   2.720  0.0541  0.6973  0.4515
  103MOL     C232846   7.749   2.704   2.639 -0.1884 -0.9799 -0.4847
  103MOL     O332847   0.031   2.652   2.732 -0.4804  0.0456 -0.1126
  103MOL     C432848   0.157   2.716   2.712  0.6256  0.3335  1.1071
  103MOL     C532849   0.258   2.623   2.767 -0.2896 -0.0373 -0.2120
  103MOL     C632850   0.159   2.854   2.782 -0.9532  0.4152 -0.6064
  103MOL     H732851   7.705   2.855   2.791 -0.1449  1.8540 -0.4449
  103MOL     H832852   7.589   2.853   2.658 -0.1574 -0.3669 -0.4415
  103MOL     H932853   7.797   2.762   2.560 -0.1420 -2.3557 -1.4816
  103MOL    H1032854   0.181   2.739   2.608  0.8634  1.5870  1.4373
  103MOL    H1132855   0.267   2.537   2.700 -1.9875 -0.8682  0.5948
  103MOL    H1232856   0.353   2.676   2.764 -0.5491  0.5564  1.6446
  103MOL    H1332857   0.242   2.589   2.869 -1.9507  1.4740  0.0559
  103MOL    H1432858   0.262   2.889   2.775 -0.4518 -1.0846 -1.1427
  103MOL    H1532859   0.098   2.928   2.731 -0.6746  1.1455  0.1072
  103MOL    H1632860   0.125   2.851   2.885 -0.8625 -0.0526 -0.5886
  103MOL    H1732861   7.581   2.723   2.767  2.7006 -0.6657  2.7312
  103MOL    C1832862   7.666   2.595   2.564 -0.6959  0.8834  0.4300
  103MOL    C1932863   7.749   2.499   2.463 -0.4968 -0.0927 -0.5377
  103MOL    O2032864   7.658   2.426   2.371  0.0717 -0.3748  0.1228
  103MOL    C2132865   7.688   2.423   2.229 -0.1120 -0.0278 -0.2671
  103MOL    C2232866   7.675   2.558   2.173  0.0821  0.0565 -0.0140
  103MOL    C2332867   7.612   2.303   2.172  0.5931  0.4755 -0.1602
  103MOL    H2432868   7.610   2.526   2.627 -2.3594  2.2062  0.4292
  103MOL    H2532869   7.593   2.651   2.506 -1.9726 -1.0333  0.1476
  103MOL    H2632870   7.804   2.564   2.395 -0.5519 -1.0624 -1.5278
  103MOL    H2732871   7.794   2.396   2.226  0.0170  0.3956  0.3294
  103MOL    H2832872   7.740   2.638   2.209 -1.0028  0.3633  1.3334
  103MOL    H2932873   7.689   2.544   2.066 -3.1049  1.1428 -0.6439
  103MOL    H3032874   7.574   2.595   2.192 -0.4399 -1.2540 -0.1722
  103MOL    H3132875   7.508   2.321   2.142 -0.1378  1.3589  2.7486
  103MOL    H3232876   7.606   2.229   2.252 -1.4016 -0.0488 -0.7455
  103MOL    H3332877   7.654   2.249   2.087  0.1692 -1.0536  0.5767
  103MOL    C3432878   0.018   2.405   2.543 -0.4512 -0.6653  0.4540
  103MOL    C3532879   0.134   2.333   2.472 -0.9764  0.4844  0.5175
  103MOL    O3632880   0.229   2.439   2.442  0.0038  0.1976  0.0593
  103MOL    C3732881   0.329   2.410   2.345 -0.0771 -0.3204 -0.0157
  103MOL    C3832882   0.322   2.517   2.222  0.1457  0.9419 -0.2216
  103MOL    C3932883   0.466   2.400   2.409 -0.1054  0.8488  1.0516
  103MOL    H4032884   7.771   2.336   2.595 -2.0507  1.0621  0.7257
  103MOL    H4132885   0.077   2.458   2.618 -0.6665  0.6197 -0.2687
  103MOL    H4232886   0.104   2.290   2.376  0.2233  1.6929 -0.4310
  103MOL    H4332887   0.320   2.313   2.297 -1.3589 -1.4546  2.4558
  103MOL    H4432888   0.236   2.509   2.154 -0.9010  1.1766  1.0646
  103MOL    H4532889   0.417   2.509   2.168  0.8363 -0.5048  1.1949
  103MOL    H4632890   0.320   2.618   2.262  0.9911  1.0252 -0.3910
  103MOL    H4732891   0.548   2.385   2.338 -1.4161  1.7646 -0.6930
  103MOL    H4832892   0.496   2.494   2.455 -0.1271  0.5097  1.7687
  103MOL    H4932893   0.482   2.328   2.489 -1.5782 -1.3579 -0.5988
  103MOL    C5032894   0.189   2.215   2.557 -0.2674 -0.3210  0.4180
  103MOL    C5132895   0.098   2.109   2.610 -0.1166 -0.2837  0.4932
  103MOL    O5232896   0.168   2.008   2.677 -0.5267  0.2542  0.4640
  103MOL    C5332897   0.212   2.032   2.814  0.1035  0.0914 -0.2505
  103MOL    C5432898   0.356   1.995   2.829  0.0614  1.2929 -0.3373
  103MOL    C5532899   0.123   1.943   2.899  0.6708  0.2128  0.2536
  103MOL    H5632900   0.269   2.165   2.501 -1.1305 -1.3834  0.1170
  103MOL    H5732901   0.242   2.255   2.643  0.9336  1.0042 -0.8976
  103MOL    H5832902   0.030   2.150   2.684 -1.2808  1.2938 -1.3911
  103MOL    H5932903   0.207   2.137   2.842  1.4259  0.1009 -0.0004
  103MOL    H6032904   0.393   1.958   2.924 -2.2131  0.4294  0.2444
  103MOL    H6132905   0.425   2.072   2.794  0.1272  0.9625 -0.9341
  103MOL    H6232906   0.372   1.911   2.762  1.1497  1.8610 -0.8009
  103MOL    H6332907   0.134   1.935   3.007  0.7964 -0.7057  0.1716
  103MOL    H6432908   0.117   1.845   2.853  0.7030 -0.1618  1.0501
  103MOL    H6532909   0.027   1.992   2.882  0.0993 -0.5450  1.2877
  103MOL    C6632910   0.026   2.037   2.499  0.1521 -0.3131  0.1621
  103MOL    C6732911   7.751   1.914   2.548 -0.2152  0.2618 -0.0583
  103MOL    O6832912   7.724   1.847   2.421  0.2929 -0.6590  0.3397
  103MOL    C6932913   7.812   1.739   2.382 -0.2811  0.6803  0.4812
  103MOL    C7032914   7.815   1.621   2.475  0.5737 -0.2922  0.1926
  103MOL    C7132915   7.763   1.691   2.235  0.9910  0.2727  0.1942
  103MOL    H7232916   7.790   2.110   2.442  0.3187  0.3650  0.8667
  103MOL    H7332917   0.101   2.001   2.428  0.9492  0.4266  0.6149
  103MOL    H7432918   7.794   1.852   2.626 -0.7421  0.2000  0.1890
  103MOL    H7532919   0.093   1.771   2.358 -0.4440  2.1872  1.6599
  103MOL    H7632920   0.007   1.650   2.580  1.3372 -0.2804  0.1025
  103MOL    H7732921   7.726   1.558   2.469  0.2420  0.3349 -1.6962
  103MOL    H7832922   0.079   1.559   2.443  1.1753  0.9326 -0.6307
  103MOL    H7932923   7.788   1.771   2.165  1.5716 -0.5106 -0.5079
  103MOL    H8032924   7.658   1.664   2.242  0.6623  1.2816 -0.7086
  103MOL    H8132925   7.816   1.603   2.196  0.3390  0.0793 -0.2658
  103MOL    C8232926   7.607   1.961   2.586  0.3217  0.5247 -0.3895
  103MOL    C8332927   7.500   1.848   2.618 -0.1647  0.2560  0.1721
  103MOL    O8432928   7.538   1.783   2.738  0.3428 -0.1780  0.1949
  103MOL    C8532929   7.548   1.641   2.743  0.2794 -0.0618  0.8197
  103MOL    C8632930   7.409   1.582   2.757  0.5406  0.2035 -0.3845
  103MOL    C8732931   7.645   1.611   2.857  0.2449  0.3658  0.4701
  103MOL    H8832932   7.605   2.030   2.671  0.3912  0.3293 -0.2287
  103MOL    H8932933   7.574   2.035   2.512 -0.1713  1.6391  0.9186
  103MOL    H9032934   7.470   1.785   2.534  1.2234 -0.5567  0.2780
  103MOL    H9132935   7.607   1.609   2.656 -0.0751  0.5177  0.3603
  103MOL    H9232936   7.354   1.601   2.665 -0.0622  0.0632 -0.0630
  103MOL    H9332937   7.407   1.474   2.771 -3.8230 -0.1495 -2.7410
  103MOL    H9432938   7.350   1.627   2.838 -0.1997  0.4539 -1.0479
  103MOL    H9532939   7.745   1.647   2.833  0.5409 -0.4046  0.5277
  103MOL    H9632940   7.619   1.640   2.959  1.1970 -2.0660  1.4261
  103MOL    H9732941   7.638   1.503   2.863 -0.8976  0.2988 -1.4088
  103MOL    C9832942   7.367   1.921   2.641  0.2621  0.4488 -0.0161
  103MOL    C9932943   7.299   1.975   2.512 -0.1962 -0.7503 -0.5004
  103MOL   O10032944   7.204   2.072   2.558 -0.2752 -0.2468  0.1307
  103MOL   C10132945   7.259   2.204   2.568 -0.4526  0.4394  0.6088
  103MOL   C10232946   7.230   2.260   2.711 -0.2510 -0.7038 -0.3415
  103MOL   C10332947   7.204   2.293   2.456  0.0020  0.1729 -0.0112
  103MOL   H10432948   7.298   1.844   2.677  1.6265 -1.5410 -1.5732
  103MOL   H10532949   7.388   1.996   2.718  0.4648  1.6817 -1.2636
  103MOL   H10632950   7.372   2.016   2.442 -0.1107 -1.7011 -0.9710
  103MOL   H10732951   7.368   2.206   2.566 -0.4768  1.5144 -0.2765
  103MOL   H10832952   7.271   2.361   2.721 -3.0060  0.3388  0.9954
  103MOL   H10932953   7.265   2.207   2.799  0.0970 -0.5760 -0.4054
  103MOL   H11032954   7.123   2.276   2.725 -0.0941  0.6695 -0.5781
  103MOL   H11132955   7.098   2.271   2.451 -0.0651  0.6306 -0.5991
  103MOL   H11232956   7.240   2.272   2.355 -0.2594 -2.3253  0.3712
  103MOL   H11332957   7.222   2.399   2.475  0.3680  0.3516 -1.3265
  103MOL   C11432958   7.221   1.864   2.428  0.2852 -0.4039 -0.1799
  103MOL   C11532959   7.146   1.916   2.304  0.4933 -0.1016 -0.0040
  103MOL   O11632960   7.228   1.893   2.191  0.2261 -0.4093  0.3695
  103MOL   C11732961   7.316   2.000   2.164  0.3442 -0.8030  0.4108
  103MOL   C11832962   7.282   2.050   2.021 -0.2110  0.1289  0.0311
  103MOL   C11932963   7.459   1.947   2.172  0.6848  0.0854 -0.2652
  103MOL   H12032964   7.146   1.819   2.493 -1.3360  2.5795  0.1167
  103MOL   H12132965   7.293   1.785   2.410  0.4616 -0.4591  0.7659
  103MOL   H12232966   7.129   2.023   2.320 -0.5671 -0.2587 -0.0342
  103MOL   H12332967   7.297   2.090   2.222 -0.1845 -0.7754  0.1947
  103MOL   H12432968   7.177   2.074   2.006  0.2913  0.9184 -2.4757
  103MOL   H12532969   7.293   1.959   1.962 -0.8136  0.6159 -0.8500
  103MOL   H12632970   7.353   2.111   1.965 -0.5065 -1.2449 -1.8872
  103MOL   H12732971   7.465   1.850   2.121 -1.9580  0.1339 -0.7475
  103MOL   H12832972   7.501   1.939   2.273  1.1352  0.4642 -0.4222
  103MOL   H12932973   7.538   1.999   2.119  1.4300  0.1026  0.8379
  103MOL   C13032974   7.006   1.859   2.285  0.1602 -0.0273  0.7438
  103MOL   C13132975   6.897   1.929   2.381  0.1143  0.6012  0.6263
  103MOL   O13232976   6.766   1.866   2.354  0.4189  0.6301 -0.2868
  103MOL   C13332977   6.740   1.743   2.416  0.3174 -0.5969 -0.6670
  103MOL   C13432978   6.667   1.779   2.545 -0.2817 -0.0671  0.4936
  103MOL   C13532979   6.662   1.660   2.317 -0.3590  0.2888  0.4716
  103MOL   H13632980   7.000   1.753   2.307 -0.3185 -0.3079 -0.6386
  103MOL   H13732981   6.972   1.878   2.183 -1.2233  0.2149  1.2288
  103MOL   H13832982   6.931   1.919   2.484 -2.7172 -1.6768  1.4060
  103MOL   H13932983   6.832   1.687   2.432 -0.3140 -0.7864  2.6743
  103MOL   H14032984   6.747   1.827   2.602 -0.0018 -0.9928  0.8834
  103MOL   H14132985   6.640   1.688   2.598  2.6731  0.2199  2.5985
  103MOL   H14232986   6.591   1.856   2.532  0.0624 -0.0905 -1.7245
  103MOL   H14332987   6.566   1.709   2.304 -1.4030 -2.1855 -1.6716
  103MOL   H14432988   6.711   1.654   2.220  0.0694 -2.8122  0.8099
  103MOL   H14532989   6.652   1.556   2.351 -2.7436  0.1622 -0.5601
  103MOL   C14632990   6.874   2.076   2.344  0.2384  0.1303 -0.1661
  103MOL   C14732991   6.780   2.154   2.437 -0.2742 -0.3262 -0.0630
  103MOL   O14832992   6.861   2.215   2.540 -0.5428  0.3467 -0.3271
  103MOL   C14932993   6.807   2.198   2.677 -0.9048 -0.6765  0.5985
  103MOL   C15032994   6.820   2.326   2.755  0.2264  0.7755 -0.1017
  103MOL   C15132995   6.871   2.073   2.746  0.4324 -0.2107 -0.6891
  103MOL   H15232996   6.840   2.083   2.240 -0.1797  1.3123  0.0380
  103MOL   H15332997   6.967   2.132   2.350  0.4590 -0.0266 -1.7928
  103MOL   H15432998   6.713   2.074   2.469 -2.8706  1.7049 -0.2124
  103MOL   H15532999   6.700   2.178   2.667 -0.9482 -0.4474  0.5853
  103MOL   H15633000   6.924   2.351   2.780  0.9513 -0.4229 -1.8326
  103MOL   H15733001   6.765   2.314   2.848  0.0282 -1.5695 -0.4849
  103MOL   H15833002   6.776   2.411   2.704 -1.0904  0.0206 -0.2295
  103MOL   H15933003   6.823   2.035   2.836 -0.4037 -0.2486 -1.1423
  103MOL   H16033004   6.976   2.102   2.745  0.6450 -0.8995  1.1061
  103MOL   H16133005   6.862   1.985   2.681  1.0348 -3.0497  2.8835
  103MOL   C16233006   6.709   2.264   2.354 -0.4556  0.2083  0.0617
  103MOL   C16333007   6.612   2.348   2.429  0.1005  0.7238 -0.4361
  103MOL   O16433008   6.609   2.473   2.357 -0.3855  0.1599  0.8170
  103MOL   C16533009   6.695   2.582   2.398  0.5858  0.7614 -0.1212
  103MOL   C16633010   6.649   2.631   2.533  0.4508 -0.0686 -0.1050
  103MOL   C16733011   6.678   2.691   2.295  0.2587  0.2423 -0.4674
  103MOL   H16833012   6.775   2.340   2.311  2.0570 -0.7107  2.2450
  103MOL   H16933013   6.658   2.222   2.267  1.0091  0.2086 -0.8141
  103MOL   H17033014   6.662   2.377   2.521  0.6610  1.4435 -0.9673
  103MOL   H17133015   6.797   2.547   2.415  0.0666 -0.7201  0.0704
  103MOL   H17233016   6.697   2.728   2.550  0.6978 -0.4451  1.5002
  103MOL   H17333017   6.694   2.578   2.617 -0.0182 -2.3254 -1.2459
  103MOL   H17433018   6.541   2.646   2.532  0.3614 -0.7558 -0.8914
  103MOL   H17533019   6.722   2.659   2.201 -0.0676  0.2786 -0.6345
  103MOL   H17633020   6.728   2.782   2.327 -1.8581  0.7325  1.6305
  103MOL   H17733021   6.579   2.731   2.271  0.7484  2.1070  0.5652
  103MOL   C17833022   6.473   2.285   2.460 -0.3772  0.1178  0.5515
  103MOL   C17933023   6.386   2.362   2.561 -0.0347 -0.4634  0.7366
  103MOL   O18033024   6.260   2.295   2.565 -0.2536 -0.7392  0.2584
  103MOL   C18133025   6.150   2.353   2.499  0.0283  0.4319  0.2013
  103MOL   C18233026   6.025   2.276   2.531 -0.0714 -0.6687 -0.4534
  103MOL   C18333027   6.165   2.359   2.348  0.2976 -0.5856 -0.1280
  103MOL   H18433028   6.483   2.179   2.483  1.5780 -0.0649 -1.0068
  103MOL   H18533029   6.426   2.293   2.362  0.6723  2.5071  0.2167
  103MOL   H18633030   6.374   2.465   2.527  4.1191  0.0314  0.4943
  103MOL   H18733031   6.154   2.452   2.544 -1.6376  1.5363 -2.0095
  103MOL   H18833032   6.019   2.179   2.482 -1.8166 -0.4931 -0.6249
  103MOL   H18933033   5.928   2.324   2.519 -0.2886 -0.5468  1.6314
  103MOL   H19033034   6.028   2.252   2.638  1.5427 -0.5320 -0.4577
  103MOL   H19133035   6.242   2.425   2.308 -1.6591  0.1450 -2.7937
  103MOL   H19233036   6.073   2.409   2.321  0.2657  1.2497  3.1068
  103MOL   H19333037   6.166   2.262   2.299  1.5735 -0.5550 -0.1872
  103MOL   C19433038   6.452   2.358   2.700  1.3665  0.4363 -0.0949
  103MOL   C19533039   6.367   2.409   2.820  0.3816  0.5678 -0.2218
  103MOL   O19633040   6.368   2.554   2.807 -0.1905  0.0050  0.3492
  103MOL   C19733041   6.249   2.622   2.771  0.6160 -0.3935 -0.2798
  103MOL   C19833042   6.199   2.655   2.914  0.0523 -0.6547  0.8713
  103MOL   C19933043   6.296   2.739   2.689  0.1452  0.3935 -0.2632
  103MOL   H20033044   6.465   2.254   2.730 -1.1677  0.0577 -0.1933
  103MOL   H20133045   6.542   2.420   2.707  0.8600  1.3264 -1.2008
  103MOL   H20233046   6.266   2.368   2.817  0.1930  1.0973 -1.3478
  103MOL   H20333047   6.177   2.568   2.709  2.0648  0.0809 -2.4214
  103MOL   H20433048   6.196   2.572   2.985 -0.2736 -1.7899 -0.4503
  103MOL   H20533049   6.285   2.714   2.947 -0.2298  1.2773 -1.7004
  103MOL   H20633050   6.105   2.709   2.912  0.9364  0.8816  0.3884
  103MOL   H20733051   6.223   2.820   2.683 -1.6053 -1.0921  0.5328
  103MOL   H20833052   6.389   2.779   2.731  0.7979 -0.7123 -0.6432
  103MOL   H20933053   6.316   2.692   2.593  0.8625  0.7872 -0.3086
  103MOL   C21033054   6.431   2.370   2.952 -0.3677  0.3148 -0.3875
  103MOL   C21133055   6.406   2.229   3.010  0.2703 -0.3061  0.2747
  103MOL   O21233056   6.482   2.133   2.933  0.0485 -0.5151 -0.4419
  103MOL   C21333057   6.431   2.002   2.915  0.4136  0.9268  0.1027
  103MOL   C21433058   6.343   2.002   2.788 -0.4979  0.1094  1.1848
  103MOL   C21533059   6.556   1.903   2.889 -0.8406 -0.4233  0.4202
  103MOL   H21633060   6.398   2.438   3.031  0.2657 -0.0035  0.1529
  103MOL   H21733061   6.539   2.382   2.948 -0.2580  0.5275  2.3804
  103MOL   H21833062   6.299   2.215   2.993  0.1107  2.2407 -0.9890
  103MOL   H21933063   6.373   1.974   3.002 -0.2305 -0.5106 -0.7644
  103MOL   H22033064   6.394   1.995   2.692 -1.4859 -0.5320  0.6928
  103MOL   H22133065   6.285   2.094   2.786 -1.9346 -0.7791  1.2370
  103MOL   H22233066   6.284   1.910   2.790 -0.5917  0.0906 -1.1495
  103MOL   H22333067   6.532   1.797   2.875 -0.1463 -0.3763 -1.3239
  103MOL   H22433068   6.617   1.891   2.979 -0.1460 -0.0767 -0.0022
  103MOL   H22533069   6.613   1.944   2.806  1.3623 -1.0425  1.5985
  103MOL   C22633070   6.463   2.210   3.152 -0.0332 -0.3520  0.2252
  103MOL   C22733071   6.446   2.325   3.257  0.8693 -0.5834  0.1543
  103MOL   O22833072   6.504   2.285   3.386  0.0181  0.4349  0.1522
  103MOL   C22933073   6.639   2.305   3.409 -0.3438  0.2897  1.2256
  103MOL   C23033074   6.690   2.221   3.529 -0.3491 -0.5135 -0.4974
  103MOL   C23133075   6.661   2.456   3.433 -0.4422  0.2854 -0.5867
  103MOL   H23233076   6.569   2.186   3.142  0.6912  3.5096 -2.9078
  103MOL   H23333077   6.415   2.120   3.191  0.6175 -0.5764  0.5095
  103MOL   H23433078   6.482   2.421   3.221 -2.7734  1.0912  0.7235
  103MOL   H23533079   6.702   2.297   3.320 -1.9073 -0.5793  0.1675
  103MOL   H23633080   6.783   2.241   3.583 -0.2850  1.1391 -1.2083
  103MOL   H23733081   6.613   2.219   3.606  0.5294 -0.2546  0.3976
  103MOL   H23833082   6.674   2.119   3.495 -1.4837 -0.4099 -0.3028
  103MOL   H23933083   6.605   2.500   3.515  1.3733 -1.0163  1.4197
  103MOL   H24033084   6.636   2.516   3.345  1.8244  1.6364 -0.3507
  103MOL   H24133085   6.765   2.488   3.442  0.0210 -1.1946 -0.4284
  103MOL   C24233086   6.293   2.348   3.302  0.1494 -0.6690 -0.6718
  103MOL   C24333087   6.265   2.480   3.376 -0.2775  0.6205  0.5271
  103MOL   O24433088   6.139   2.470   3.447 -0.1797  0.4757 -0.2552
  103MOL   C24533089   6.150   2.417   3.576 -0.0873  0.1655  1.1034
  103MOL   C24633090   6.206   2.515   3.682 -0.5344 -0.4283 -0.1968
  103MOL   C24733091   6.007   2.369   3.608  0.0670  0.3383 -0.1558
  103MOL   H24833092   6.228   2.352   3.214 -0.5939  1.5199 -0.0337
  103MOL   H24933093   6.247   2.260   3.347 -0.5118 -0.7091 -1.4122
  103MOL   H25033094   6.347   2.501   3.445  1.2515  3.3446 -2.0120
  103MOL   H25133095   6.213   2.328   3.586 -0.5127 -0.3875 -1.0016
  103MOL   H25233096   6.308   2.545   3.661 -0.4243 -1.0456 -0.5607
  103MOL   H25333097   6.160   2.613   3.670 -1.0985 -0.6604  0.0402
  103MOL   H25433098   6.218   2.475   3.783  2.6069 -0.5670 -0.5887
  103MOL   H25533099   6.002   2.356   3.716 -1.6343  2.0172 -0.0028
  103MOL   H25633100   5.943   2.448   3.569 -2.7611 -1.3759  0.8361
  103MOL   H25733101   5.971   2.274   3.569 -0.5001 -0.0811  1.3602
  103MOL   C25833102   6.257   2.595   3.276 -0.2452  0.0841 -0.0748
  103MOL   C25933103   6.298   2.729   3.338 -0.3428  0.2653 -0.4947
  103MOL   O26033104   6.222   2.840   3.287 -0.3039 -0.1918  0.0710
  103MOL   C26133105   6.088   2.856   3.323  0.4251 -0.0184 -0.1192
  103MOL   C26233106   6.081   2.915   3.459  0.4946  0.2215 -0.4350
  103MOL   C26333107   6.017   2.945   3.213  0.5174  0.3973 -0.9301
  103MOL   H26433108   6.319   2.571   3.189  1.3718 -1.7272  1.5236
  103MOL   H26533109   6.155   2.596   3.239 -1.2848 -3.4773  2.3911
  103MOL   H26633110   6.286   2.710   3.444  1.2573  0.3464 -0.2841
  103MOL   H26733111   6.042   2.757   3.321  0.1171  0.1308 -0.3715
  103MOL   H26833112   6.145   3.004   3.459 -1.0408  1.3744  1.5671
  103MOL   H26933113   6.123   2.841   3.526  0.1167  1.0994  0.8000
  103MOL   H27033114   5.977   2.938   3.483  1.1115 -0.2997  3.0475
  103MOL   H27133115   6.059   3.045   3.202  0.9297  0.2570 -0.6155
  103MOL   H27233116   6.001   2.885   3.123 -0.7269 -0.7753  0.0395
  103MOL   H27333117   5.920   2.964   3.258  0.4476 -0.2317 -0.8151
  103MOL   C27433118   6.447   2.765   3.306  0.4497 -0.7096 -0.6520
  103MOL   C27533119   6.509   2.901   3.353  0.0661  0.1140  0.1872
  103MOL   O27633120   6.545   2.888   3.488  0.2969 -0.3963  0.1795
  103MOL   C27733121   6.456   2.892   3.591  0.4856 -0.9032 -0.3216
  103MOL   C27833122   6.479   3.032   3.655 -0.1907  1.0298  0.0274
  103MOL   C27933123   6.481   2.773   3.687 -0.1927  0.2566 -0.3159
  103MOL   H28033124   6.517   2.697   3.355  1.2131  0.3859 -0.1966
  103MOL   H28133125   6.467   2.762   3.199 -0.8294  1.7574 -0.9988
  103MOL   H28233126   6.434   2.978   3.341  0.4970  0.4436 -0.4293
  103MOL   H28333127   6.355   2.879   3.550  0.9417 -0.1782 -1.7292
  103MOL   H28433128   6.417   3.054   3.741 -0.9401 -3.2558  0.6945
  103MOL   H28533129   6.582   3.022   3.686 -0.5511 -1.0577  0.6357
  103MOL   H28633130   6.465   3.108   3.578 -0.6706  0.7224 -0.1957
  103MOL   H28733131   6.574   2.792   3.741 -1.1295  0.2819  1.3261
  103MOL   H28833132   6.494   2.675   3.640  2.0741  0.3165  0.1383
  103MOL   H28933133   6.412   2.749   3.767 -1.5734 -0.2565 -1.6419
  103MOL   C29033134   6.646   2.928   3.286  0.1709  0.0832 -0.2004
  103MOL   C29133135   6.722   3.058   3.326 -0.5866 -0.4671  0.4125
  103MOL   O29233136   6.835   3.082   3.238  0.7197  0.1305 -0.3143
  103MOL   C29333137   6.941   2.987   3.250 -0.1382 -0.0855  0.0834
  103MOL   C29433138   7.019   3.029   3.380 -0.2853  0.4662 -0.3004
  103MOL   C29533139   7.033   2.991   3.124 -0.4145  0.2714  0.0107
  103MOL   H29633140   6.628   2.935   3.178  2.9396  2.0078 -0.5885
  103MOL   H29733141   6.701   2.837   3.311 -0.4711  0.0179  0.9913
  103MOL   H29833142   6.759   3.050   3.428 -0.7983  0.1928  0.5397
  103MOL   H29933143   6.905   2.884   3.257  0.1653 -0.2724 -1.1298
  103MOL   H30033144   7.093   2.955   3.410  0.3800  1.9144  1.7043
  103MOL   H30133145   7.072   3.122   3.361 -1.2900  0.5677 -2.8197
  103MOL   H30233146   6.962   3.050   3.470 -0.2170 -0.0937 -0.1264
  103MOL   H30333147   7.087   3.086   3.126  2.3879 -1.2732 -0.4501
  103MOL   H30433148   7.099   2.905   3.118  0.9176  1.3364 -1.0207
  103MOL   H30533149   6.968   2.990   3.036  0.8329  1.1215 -0.9273
  103MOL   C30633150   6.636   3.186   3.325 -0.2961 -0.5767  0.7805
  103MOL   C30733151   6.696   3.306   3.395 -0.4431  0.0579 -0.1696
  103MOL   O30833152   6.603   3.413   3.397 -0.6056  0.2448  0.5388
  103MOL   C30933153   6.628   3.518   3.486  0.0769  0.0302 -0.1744
  103MOL   C31033154   6.548   3.649   3.456  0.4173 -0.1555  0.1667
  103MOL   C31133155   6.591   3.460   3.626 -0.6913  0.1727  0.4622
  103MOL   H31233156   6.545   3.163   3.380  1.3111  0.0437  3.7974
  103MOL   H31333157   6.615   3.209   3.220  0.0135  1.2004  1.0775
  103MOL   H31433158   6.736   3.274   3.491  0.3663  3.6357  0.7278
  103MOL   H31533159   6.733   3.548   3.480  0.6640 -2.0421 -0.4503
  103MOL   H31633160   6.575   3.693   3.359 -0.0846  2.3312  1.1253
  103MOL   H31733161   6.570   3.728   3.528  1.3663  0.1517 -0.4326
  103MOL   H31833162   6.441   3.632   3.451  0.3651 -0.1875  1.3920
  103MOL   H31933163   6.609   3.539   3.699 -2.0031  1.4418 -0.5447
  103MOL   H32033164   6.639   3.367   3.655  0.5739  1.2418  1.9232
  103MOL   H32133165   6.484   3.441   3.627 -0.4402 -1.4157 -0.8238
  103MOL   H32233166   6.782   3.351   3.346  1.6405 -0.2366  3.0588
  104MOL     C133167   5.875   4.616   3.432 -0.4062 -0.2740  0.6411
  104MOL     C233168   5.787   4.741   3.426  0.3969 -0.3939 -0.7587
  104MOL     O333169   5.851   4.849   3.356  0.5918  0.5395  0.1981
  104MOL     C433170   5.978   4.887   3.410 -0.5826 -0.5324 -0.1266
  104MOL     C533171   5.995   4.924   3.554 -0.4705  1.1553 -0.3785
  104MOL     C633172   6.015   5.007   3.333 -0.0457 -0.8356 -0.3700
  104MOL     H733173   5.809   4.529   3.432 -0.9607  0.1371 -0.4671
  104MOL     H833174   5.933   4.599   3.342 -0.1214 -1.0142  0.9605
  104MOL     H933175   5.771   4.761   3.532 -0.1129 -0.4067 -0.8330
  104MOL    H1033176   6.050   4.809   3.385 -0.3672 -0.4191  0.1348
  104MOL    H1133177   5.934   5.009   3.587  0.3674  0.9712  1.7291
  104MOL    H1233178   5.982   4.836   3.617  3.1936 -0.0822 -1.2318
  104MOL    H1333179   6.099   4.955   3.569  0.1373 -1.1968  0.4520
  104MOL    H1433180   6.112   5.057   3.341 -0.9508  0.8918  0.1356
  104MOL    H1533181   5.999   4.987   3.228  3.7842  0.8167 -1.3821
  104MOL    H1633182   5.948   5.093   3.339  0.6962 -0.2626 -0.1593
  104MOL    H1733183   5.947   4.611   3.514 -1.6620  1.4325  1.9091
  104MOL    C1833184   5.647   4.713   3.369  0.1459 -0.3279  0.6076
  104MOL    C1933185   5.543   4.825   3.386  0.4788 -0.7079  0.1118
  104MOL    O2033186   5.491   4.815   3.515 -0.4396  0.3178  0.4659
  104MOL    C2133187   5.494   4.930   3.602 -0.7834 -0.2840 -0.6834
  104MOL    C2233188   5.479   4.898   3.750 -0.0692  0.3119  0.3697
  104MOL    C2333189   5.407   5.054   3.565  0.6985 -0.1407 -0.1203
  104MOL    H2433190   5.663   4.679   3.267 -2.3302 -0.3750  0.1842
  104MOL    H2533191   5.608   4.625   3.421  0.0967 -1.0459 -0.6175
  104MOL    H2633192   5.593   4.921   3.374  0.6079 -0.7136  0.5898
  104MOL    H2733193   5.598   4.963   3.599 -0.5712 -1.0334 -2.2024
  104MOL    H2833194   5.515   4.984   3.806 -0.6689  3.2993 -3.6136
  104MOL    H2933195   5.378   4.864   3.774 -0.9129  1.1568 -1.8792
  104MOL    H3033196   5.544   4.820   3.789  1.7720  2.5816  1.9441
  104MOL    H3133197   5.443   5.143   3.618 -0.8361 -0.1857  1.0231
  104MOL    H3233198   5.300   5.035   3.574  0.8131 -1.0934 -0.7076
  104MOL    H3333199   5.415   5.077   3.459  0.4521  2.4523  0.3689
  104MOL    C3433200   5.423   4.821   3.294 -0.1861  0.8151  0.4400
  104MOL    C3533201   5.454   4.853   3.150  0.0365 -0.4640 -0.2703
  104MOL    O3633202   5.337   4.804   3.080  0.3627 -0.0432 -0.2310
  104MOL    C3733203   5.371   4.698   2.993  0.1245  0.3321 -0.0726
  104MOL    C3833204   5.404   4.561   3.060 -0.0426  0.1552 -0.6212
  104MOL    C3933205   5.253   4.682   2.892 -0.0086  0.1419  0.4690
  104MOL    H4033206   5.339   4.883   3.327  0.0072  1.8929 -1.0253
  104MOL    H4133207   5.397   4.718   3.316  0.6653  0.6675  0.7425
  104MOL    H4233208   5.550   4.807   3.126  0.3231 -0.4396  0.8084
  104MOL    H4333209   5.461   4.724   2.938  1.4375 -2.1872  0.7824
  104MOL    H4433210   5.410   4.477   2.990  2.2922 -2.4856  2.5691
  104MOL    H4533211   5.322   4.534   3.128 -0.8867  1.7788 -0.9762
  104MOL    H4633212   5.499   4.554   3.114 -0.3645  0.1851 -0.0415
  104MOL    H4733213   5.164   4.646   2.944 -2.3137 -0.5460 -3.7665
  104MOL    H4833214   5.232   4.770   2.831 -2.6698 -1.2431 -0.6595
  104MOL    H4933215   5.282   4.605   2.821  0.5451  0.2991  0.5252
  104MOL    C5033216   5.473   5.002   3.122 -0.0547 -0.2156  0.0553
  104MOL    C5133217   5.547   5.037   2.989  0.6793 -0.4823 -0.8031
  104MOL    O5233218   5.579   5.179   2.991 -0.0723 -0.2823  0.1252
  104MOL    C5333219   5.691   5.227   3.070  0.8502 -0.3032  0.6567
  104MOL    C5433220   5.716   5.370   3.034 -0.1735  0.3013 -1.0433
  104MOL    C5533221   5.818   5.138   3.059 -0.7692 -0.5709  0.4340
  104MOL    H5633222   5.371   5.041   3.125 -1.5238 -3.7770 -1.1921
  104MOL    H5733223   5.527   5.044   3.207  0.7489  1.3536 -1.2011
  104MOL    H5833224   5.631   4.970   2.973 -0.9955 -3.0645  0.9684
  104MOL    H5933225   5.656   5.236   3.173  0.9622 -2.7149  0.9521
  104MOL    H6033226   5.790   5.409   3.105 -0.4160  2.4942 -1.9522
  104MOL    H6133227   5.629   5.433   3.050 -0.5668 -0.4678 -0.1258
  104MOL    H6233228   5.732   5.388   2.928 -0.5770  0.9333 -1.0004
  104MOL    H6333229   5.802   5.036   3.093 -0.6999 -1.0511 -0.9486
  104MOL    H6433230   5.889   5.172   3.134 -2.8089  2.6516  1.0097
  104MOL    H6533231   5.849   5.143   2.954  1.3013 -0.2241  1.0346
  104MOL    C6633232   5.437   5.025   2.875 -0.2600  0.4205 -0.1769
  104MOL    C6733233   5.490   5.093   2.738 -0.1270  0.3052  0.5210
  104MOL    O6833234   5.388   5.064   2.642 -0.4766  0.1010  0.1292
  104MOL    C6933235   5.327   5.182   2.594  0.1432  0.1746 -0.0957
  104MOL    C7033236   5.241   5.136   2.468 -0.3652 -0.4493  0.0590
  104MOL    C7133237   5.231   5.236   2.707 -0.0813  0.0387  0.1280
  104MOL    H7233238   5.412   4.921   2.854 -0.0185 -0.2861  2.8994
  104MOL    H7333239   5.349   5.077   2.913  1.4067  1.9414  1.6857
  104MOL    H7433240   5.497   5.199   2.762 -1.4734  0.0641  2.1411
  104MOL    H7533241   5.402   5.257   2.570 -0.5342  0.0610 -2.6592
  104MOL    H7633242   5.199   5.040   2.495 -2.4185  0.5396  0.4798
  104MOL    H7733243   5.169   5.208   2.428 -0.2755 -1.1642 -1.4248
  104MOL    H7833244   5.311   5.117   2.386  1.0500 -1.0424  1.3690
  104MOL    H7933245   5.271   5.303   2.784 -0.5151  0.2196  0.1929
  104MOL    H8033246   5.199   5.147   2.761 -2.8735  0.6757 -0.4096
  104MOL    H8133247   5.142   5.284   2.667  1.0233  0.9808 -1.2309
  104MOL    C8233248   5.628   5.036   2.702  0.1446  0.5116 -0.1851
  104MOL    C8333249   5.697   5.089   2.573  0.4696 -0.6704 -0.0571
  104MOL    O8433250   5.833   5.047   2.582 -0.0986 -0.3707  0.0612
  104MOL    C8533251   5.928   5.146   2.576 -0.8208 -0.2853 -0.3179
  104MOL    C8633252   6.045   5.092   2.499 -0.6999  0.3922 -0.2227
  104MOL    C8733253   5.962   5.189   2.719 -0.3228 -0.1910  0.3716
  104MOL    H8833254   5.695   5.056   2.787  1.6084 -0.6302 -1.0393
  104MOL    H8933255   5.630   4.927   2.693 -0.3265  0.5939 -1.2536
  104MOL    H9033256   5.677   5.196   2.585 -1.7417 -1.2470  1.8485
  104MOL    H9133257   5.898   5.227   2.509  1.2099 -0.9886 -2.1420
  104MOL    H9233258   6.033   5.068   2.393  0.2756  1.7853 -0.6644
  104MOL    H9333259   6.132   5.157   2.509 -2.1911  2.2275  1.2010
  104MOL    H9433260   6.071   5.002   2.555 -2.3767  0.2497  0.3459
  104MOL    H9533261   6.059   5.240   2.725 -0.4525  0.1098 -0.1082
  104MOL    H9633262   5.898   5.253   2.779 -0.4552 -0.3630  0.4139
  104MOL    H9733263   5.979   5.104   2.786 -0.0729  0.4947  1.1923
  104MOL    C9833264   5.645   5.034   2.439  0.1343  0.6403 -0.0752
  104MOL    C9933265   5.673   5.121   2.316 -0.3817  0.2535 -0.0287
  104MOL   O10033266   5.579   5.229   2.297 -0.1183 -0.9478 -0.0908
  104MOL   C10133267   5.635   5.357   2.298 -0.2552 -0.3458 -0.1140
  104MOL   C10233268   5.533   5.464   2.330 -0.1143  0.4227 -0.1664
  104MOL   C10333269   5.716   5.396   2.174 -0.4946  0.3572  0.4150
  104MOL   H10433270   5.691   4.936   2.426 -0.9834  0.2062 -0.8618
  104MOL   H10533271   5.538   5.013   2.438 -0.2049  2.3476 -1.1825
  104MOL   H10633272   5.766   5.174   2.336 -0.3943  0.3012 -0.0996
  104MOL   H10733273   5.701   5.378   2.382 -1.8587  4.5134  0.1075
  104MOL   H10833274   5.577   5.564   2.337  1.9348 -0.5584  1.7624
  104MOL   H10933275   5.483   5.444   2.425  0.0234  1.2390  0.0901
  104MOL   H11033276   5.457   5.463   2.252  0.9323  0.9167 -1.2148
  104MOL   H11133277   5.653   5.413   2.087 -0.2175  0.7547  0.2952
  104MOL   H11233278   5.803   5.330   2.165  0.3888  0.9874  3.7315
  104MOL   H11333279   5.756   5.492   2.205 -0.6256  1.0876 -1.6059
  104MOL   C11433280   5.684   5.037   2.187 -0.6225  0.3042 -0.1457
  104MOL   C11533281   5.560   4.975   2.120 -0.0453  0.3237  0.4203
  104MOL   O11633282   5.617   4.936   1.992  0.2431  0.4211  0.2852
  104MOL   C11733283   5.577   5.007   1.872  0.3435 -0.7563  0.0491
  104MOL   C11833284   5.641   4.918   1.758 -0.4777  0.6863 -0.2759
  104MOL   C11933285   5.638   5.146   1.877  0.9071  0.5052 -0.1349
  104MOL   H12033286   5.746   4.949   2.204 -3.2651 -1.8412 -1.3197
  104MOL   H12133287   5.741   5.088   2.109 -1.5177  0.0353 -0.9869
  104MOL   H12233288   5.483   5.050   2.105  0.5423  1.0060  0.7477
  104MOL   H12333289   5.468   5.020   1.867  0.0316 -3.2291  0.0227
  104MOL   H12433290   5.621   4.962   1.660  1.8452 -0.2024 -1.2062
  104MOL   H12533291   5.599   4.817   1.763 -1.1210  0.9369 -0.6596
  104MOL   H12633292   5.747   4.907   1.780 -0.0169  1.4913 -1.9748
  104MOL   H12733293   5.747   5.142   1.882  1.0473  1.1099 -2.3236
  104MOL   H12833294   5.586   5.198   1.957 -0.0098  0.7641 -0.9038
  104MOL   H12933295   5.624   5.197   1.782 -0.4968 -0.1588 -0.2970
  104MOL   C13033296   5.513   4.844   2.187  0.3861 -0.1188  0.1078
  104MOL   C13133297   5.408   4.772   2.097  0.4642 -0.7206 -0.0089
  104MOL   O13233298   5.330   4.703   2.188  0.3931 -0.5561  0.2785
  104MOL   C13333299   5.203   4.759   2.217  0.4413  0.1991  0.6327
  104MOL   C13433300   5.104   4.749   2.100  0.0413  1.0681  0.5686
  104MOL   C13533301   5.150   4.688   2.343 -0.5116  0.2745  0.0975
  104MOL   H13633302   5.455   4.859   2.278 -0.6389  0.1830 -0.5767
  104MOL   H13733303   5.595   4.783   2.222  1.2291  0.7842 -0.2600
  104MOL   H13833304   5.347   4.839   2.037  0.7160  1.1802  1.7955
  104MOL   H13933305   5.212   4.867   2.229  3.7662 -0.0256  0.6368
  104MOL   H14033306   5.012   4.802   2.122 -1.5165 -1.0802 -0.5653
  104MOL   H14133307   5.080   4.643   2.091  1.4989  0.8742 -1.4390
  104MOL   H14233308   5.148   4.787   2.008 -1.1974 -0.6846 -0.7924
  104MOL   H14333309   5.063   4.738   2.384  0.2766 -1.0549  3.5449
  104MOL   H14433310   5.156   4.580   2.332  2.0449  0.3087  0.8627
  104MOL   H14533311   5.218   4.696   2.428  1.0592 -1.3840 -0.9362
  104MOL   C14633312   5.472   4.656   2.022 -0.0001  0.0769 -0.4849
  104MOL   C14733313   5.390   4.602   1.902  1.0699 -0.3688  0.1359
  104MOL   O14833314   5.394   4.692   1.787  0.4070  0.0610 -0.1860
  104MOL   C14933315   5.289   4.679   1.691  0.5324 -0.4499 -0.1789
  104MOL   C15033316   5.358   4.713   1.552 -0.4255 -0.1173  0.0021
  104MOL   C15133317   5.183   4.781   1.726  0.7615 -0.2443 -0.2951
  104MOL   H15233318   5.489   4.581   2.098 -0.6155  0.7617  0.3419
  104MOL   H15333319   5.569   4.683   1.982  0.3835  0.2890  0.5909
  104MOL   H15433320   5.285   4.591   1.930  0.9902 -0.0544 -0.0417
  104MOL   H15533321   5.244   4.580   1.686  0.1323 -0.2642 -0.2794
  104MOL   H15633322   5.426   4.640   1.510 -1.0817 -0.2770 -0.8023
  104MOL   H15733323   5.420   4.801   1.566  1.5000 -1.1425 -1.8204
  104MOL   H15833324   5.293   4.741   1.469 -0.8060  2.4491  1.1243
  104MOL   H15933325   5.105   4.784   1.650  0.2953 -0.2861  0.1767
  104MOL   H16033326   5.221   4.882   1.744  1.7288 -0.4030 -1.3779
  104MOL   H16133327   5.124   4.749   1.812  0.5218 -0.9232 -0.7134
  104MOL   C16233328   5.447   4.474   1.855 -0.2807  0.9622 -0.0686
  104MOL   C16333329   5.409   4.349   1.943 -0.3381 -0.7550  0.3487
  104MOL   O16433330   5.273   4.324   1.923  0.2665  0.0694 -0.4486
  104MOL   C16533331   5.199   4.328   2.048  0.1841 -0.3363  0.4860
  104MOL   C16633332   5.206   4.202   2.132 -0.0917 -0.5330  0.1480
  104MOL   C16733333   5.057   4.351   1.999  0.0441 -0.3914  0.6548
  104MOL   H16833334   5.419   4.451   1.752  0.5644 -0.1589 -0.0551
  104MOL   H16933335   5.553   4.498   1.845 -0.4767  1.4422 -1.0788
  104MOL   H17033336   5.435   4.374   2.046 -1.2703  2.0749 -0.0761
  104MOL   H17133337   5.221   4.410   2.116  0.6188  0.1374 -0.2150
  104MOL   H17233338   5.285   4.216   2.206  0.3631  0.0778 -0.4379
  104MOL   H17333339   5.233   4.119   2.067 -0.7617 -0.1740 -0.5966
  104MOL   H17433340   5.112   4.187   2.183  0.5856 -3.5108  0.5950
  104MOL   H17533341   5.038   4.455   1.973 -0.5860  0.2406  3.5030
  104MOL   H17633342   4.981   4.315   2.068 -0.2696  0.2109  0.6239
  104MOL   H17733343   5.049   4.300   1.903  1.5196 -1.0083  0.8404
  104MOL   C17833344   5.490   4.223   1.905 -0.8903  0.6514  0.4378
  104MOL   C17933345   5.636   4.208   1.963 -0.0935 -0.6220  0.2373
  104MOL   O18033346   5.629   4.168   2.100  0.5611 -0.5821 -0.2813
  104MOL   C18133347   5.724   4.225   2.184  0.2391 -0.2381  0.0294
  104MOL   C18233348   5.748   4.130   2.309 -0.8584  0.9210  0.0400
  104MOL   C18333349   5.659   4.358   2.239 -0.5486 -0.3733 -0.0576
  104MOL   H18433350   5.494   4.223   1.796  1.2589  0.3959  0.4917
  104MOL   H18533351   5.428   4.136   1.923 -2.3183  1.6050  0.1557
  104MOL   H18633352   5.678   4.308   1.960 -0.7757 -0.3355  0.1826
  104MOL   H18733353   5.822   4.247   2.143  0.3739  1.6944  1.3042
  104MOL   H18833354   5.653   4.118   2.362  0.8148  2.3044  3.5000
  104MOL   H18933355   5.822   4.166   2.381 -1.8534 -0.1503  1.6393
  104MOL   H19033356   5.790   4.035   2.277 -0.9688  1.2021 -0.9482
  104MOL   H19133357   5.727   4.406   2.309  0.0093 -1.4409  0.1331
  104MOL   H19233358   5.559   4.343   2.281 -1.7007 -1.0709 -2.9141
  104MOL   H19333359   5.661   4.439   2.166  1.3888  0.1501  0.5564
  104MOL   C19433360   5.721   4.111   1.879 -0.2323  0.8235 -0.2591
  104MOL   C19533361   5.787   4.164   1.753 -0.0963 -0.1763 -0.3842
  104MOL   O19633362   5.849   4.044   1.693 -0.0176 -0.2575  1.0480
  104MOL   C19733363   5.827   4.019   1.555  0.4332  0.8808  0.4957
  104MOL   C19833364   5.914   3.898   1.515 -0.1303 -0.1174  0.0642
  104MOL   C19933365   5.682   3.981   1.529  0.3264  0.5410 -0.4283
  104MOL   H20033366   5.802   4.073   1.940 -0.7665 -0.4824 -0.3509
  104MOL   H20133367   5.650   4.039   1.837 -1.2427  1.1007  0.9259
  104MOL   H20233368   5.710   4.213   1.693  0.9481  1.5595 -0.3729
  104MOL   H20333369   5.852   4.108   1.496 -2.1353  1.4897  0.2508
  104MOL   H20433370   5.899   3.866   1.412 -2.2748 -1.3858  0.7209
  104MOL   H20533371   6.017   3.930   1.532 -0.1617 -0.1440  0.3076
  104MOL   H20633372   5.883   3.818   1.583  0.1829  0.9047  1.4270
  104MOL   H20733373   5.645   3.906   1.599 -0.7397  1.2498 -0.2204
  104MOL   H20833374   5.620   4.068   1.550  0.8952  0.9776 -0.5515
  104MOL   H20933375   5.668   3.946   1.426  2.9511 -0.8530 -0.3654
  104MOL   C21033376   5.898   4.258   1.793  0.5699 -0.5923  0.6292
  104MOL   C21133377   5.937   4.353   1.681 -0.3331 -0.1534 -0.2798
  104MOL   O21233378   5.817   4.427   1.668 -0.0196 -1.2137  0.2964
  104MOL   C21333379   5.812   4.509   1.554  0.2848  0.5618  0.3776
  104MOL   C21433380   5.760   4.428   1.428 -0.2069 -0.7512 -0.2522
  104MOL   C21533381   5.705   4.600   1.610  0.1999  0.8164 -0.0026
  104MOL   H21633382   5.981   4.197   1.829  0.3206 -1.3980 -0.1528
  104MOL   H21733383   5.877   4.318   1.882 -0.3092  0.0873 -0.0257
  104MOL   H21833384   5.968   4.300   1.591  0.2065  0.3382 -0.3841
  104MOL   H21933385   5.900   4.569   1.529  0.5076  0.7655  1.6175
  104MOL   H22033386   5.839   4.360   1.397  0.1986  0.3261 -1.6411
  104MOL   H22133387   5.733   4.496   1.348 -0.1952  1.3782  1.4858
  104MOL   H22233388   5.669   4.372   1.451 -0.7653 -0.2298 -1.1601
  104MOL   H22333389   5.619   4.551   1.655  0.9518 -0.0465  0.5086
  104MOL   H22433390   5.668   4.668   1.534 -1.8172 -1.5314 -1.1958
  104MOL   H22533391   5.755   4.666   1.680  2.8603 -1.8330  0.6820
  104MOL   C22633392   6.058   4.436   1.727 -0.4201  0.0360  0.4889
  104MOL   C22733393   6.194   4.368   1.679 -0.2142 -0.3562 -0.3006
  104MOL   O22833394   6.193   4.373   1.535 -0.1745 -0.4464  0.5197
  104MOL   C22933395   6.242   4.492   1.484  0.2685 -0.1116 -0.3627
  104MOL   C23033396   6.168   4.535   1.361  0.3008 -0.0222  1.0080
  104MOL   C23133397   6.384   4.463   1.459  0.0155 -0.0466  0.1714
  104MOL   H23233398   6.070   4.449   1.834  1.5111 -2.7001  0.6834
  104MOL   H23333399   6.047   4.536   1.685  0.0509 -0.3117 -0.4910
  104MOL   H23433400   6.283   4.424   1.707 -0.6136 -0.6733  1.6788
  104MOL   H23533401   6.225   4.572   1.556 -1.2766  2.1447 -3.1309
  104MOL   H23633402   6.062   4.514   1.365  0.0239  0.8197 -1.3834
  104MOL   H23733403   6.189   4.642   1.363  1.9929 -0.2425 -1.7343
  104MOL   H23833404   6.208   4.483   1.274 -1.2619  0.1861  0.1599
  104MOL   H23933405   6.440   4.552   1.431  1.7229 -1.3523 -0.6541
  104MOL   H24033406   6.405   4.383   1.389 -1.9200 -2.1855  1.9315
  104MOL   H24133407   6.431   4.435   1.554 -0.2521 -1.3792 -0.0812
  104MOL   C24233408   6.222   4.224   1.738 -0.4403  0.9201 -0.3052
  104MOL   C24333409   6.363   4.160   1.710  0.1335 -0.0966  0.1840
  104MOL   O24433410   6.360   4.018   1.743 -0.3864  0.4367 -0.3574
  104MOL   C24533411   6.323   3.936   1.629 -0.1691  0.6319 -0.4907
  104MOL   C24633412   6.451   3.887   1.563 -0.9559 -0.3440  0.3872
  104MOL   C24733413   6.224   3.824   1.677  0.3225  0.6879  0.3872
  104MOL   H24833414   6.209   4.226   1.846 -1.2495 -1.5432 -0.3182
  104MOL   H24933415   6.140   4.160   1.703 -0.4430  0.8755 -0.2155
  104MOL   H25033416   6.394   4.187   1.609  1.3846  0.1260  0.6117
  104MOL   H25133417   6.270   3.989   1.549 -1.4533 -0.7294 -0.5660
  104MOL   H25233418   6.442   3.811   1.485  0.0874  1.0393 -1.1206
  104MOL   H25333419   6.486   3.973   1.506 -1.3857 -0.7964 -0.5675
  104MOL   H25433420   6.516   3.847   1.640 -0.6379 -2.8483 -1.1328
  104MOL   H25533421   6.271   3.745   1.736  0.7246  0.9916  0.4817
  104MOL   H25633422   6.155   3.873   1.745 -2.1394  0.2478 -1.7150
  104MOL   H25733423   6.165   3.784   1.594 -1.4591 -0.1889  2.0521
  104MOL   C25833424   6.476   4.232   1.801 -0.4307  0.8305 -0.0970
  104MOL   C25933425   6.621   4.173   1.778  0.2796  0.6467  0.1725
  104MOL   O26033426   6.710   4.224   1.878 -0.4684  0.1025  0.5437
  104MOL   C26133427   6.725   4.148   2.000  0.1279 -0.0078  0.5297
  104MOL   C26233428   6.781   4.007   1.968 -0.4520  0.2518  0.0068
  104MOL   C26333429   6.803   4.236   2.103 -0.1004  0.1977 -0.5797
  104MOL   H26433430   6.463   4.339   1.785 -0.6239  0.9614  0.9040
  104MOL   H26533431   6.450   4.222   1.906 -3.7896  0.0473 -0.9622
  104MOL   H26633432   6.622   4.065   1.783  1.2441  0.5457 -1.8883
  104MOL   H26733433   6.623   4.129   2.034  0.1298 -1.7670 -0.3874
  104MOL   H26833434   6.862   4.012   1.895  0.0012  1.8878  0.5888
  104MOL   H26933435   6.698   3.944   1.936  0.0077  0.9437 -2.6589
  104MOL   H27033436   6.830   3.975   2.060 -2.0475 -0.4203  0.6302
  104MOL   H27133437   6.750   4.329   2.126  3.2853  2.1826 -0.4510
  104MOL   H27233438   6.824   4.189   2.199  1.3976 -0.7025 -1.3253
  104MOL   H27333439   6.901   4.258   2.061 -0.3903  1.0124 -0.8441
  104MOL   C27433440   6.677   4.198   1.635  0.3740 -0.4594  0.2520
  104MOL   C27533441   6.816   4.134   1.602  0.6685 -0.2496  0.2956
  104MOL   O27633442   6.837   4.157   1.464  0.5266 -0.3089  0.4372
  104MOL   C27733443   6.797   4.052   1.374 -0.8204  0.3513 -0.1808
  104MOL   C27833444   6.921   3.998   1.308 -0.2172  1.0146  0.2869
  104MOL   C27933445   6.690   4.102   1.279  1.1326 -0.3597  0.4368
  104MOL   H28033446   6.611   4.162   1.557  0.2030  0.2554  0.0616
  104MOL   H28133447   6.675   4.305   1.614 -0.4361 -0.4971  0.1276
  104MOL   H28233448   6.813   4.031   1.636 -2.2448 -1.5501 -3.5802
  104MOL   H28333449   6.758   3.970   1.433 -1.0911 -1.1795 -2.4358
  104MOL   H28433450   6.996   3.977   1.384 -0.3447  2.0790  0.7148
  104MOL   H28533451   6.900   3.904   1.256  0.0714  0.7760  0.5988
  104MOL   H28633452   6.952   4.073   1.235  0.2432  0.2153 -0.3552
  104MOL   H28733453   6.622   4.169   1.332  0.3715 -0.8663  0.1226
  104MOL   H28833454   6.620   4.028   1.241 -1.9052  1.7808  1.5832
  104MOL   H28933455   6.736   4.159   1.198 -1.8489  0.9654 -0.4139
  104MOL   C29033456   6.938   4.199   1.667  0.0107  0.2930 -0.6991
  104MOL   C29133457   7.079   4.145   1.644 -0.7479  0.0224  0.4980
  104MOL   O29233458   7.183   4.241   1.687  0.2379 -0.3382 -0.2035
  104MOL   C29333459   7.271   4.288   1.591 -0.1367  0.6494 -0.1296
  104MOL   C29433460   7.399   4.329   1.657  0.3580  0.0723  0.3916
  104MOL   C29533461   7.211   4.399   1.502  0.2315 -0.0735  0.5584
  104MOL   H29633462   6.922   4.191   1.774 -0.2517 -2.8589 -0.9341
  104MOL   H29733463   6.936   4.307   1.652 -1.8488  0.5773  1.3146
  104MOL   H29833464   7.096   4.116   1.540  2.3747 -1.7606  1.4428
  104MOL   H29933465   7.288   4.204   1.523 -0.1285  0.9468 -0.4952
  104MOL   H30033466   7.392   4.359   1.761 -0.2982 -1.1740  0.7170
  104MOL   H30133467   7.458   4.238   1.646  0.3337  0.2906 -1.7732
  104MOL   H30233468   7.446   4.410   1.601  0.0717  1.9877  2.8453
  104MOL   H30333469   7.292   4.426   1.434  0.1122  1.0725  0.8600
  104MOL   H30433470   7.133   4.354   1.441  1.2511 -0.7490 -0.2544
  104MOL   H30533471   7.159   4.486   1.542 -0.3217  0.3341 -1.0136
  104MOL   C30633472   7.097   4.003   1.711 -0.5156  0.2800  0.1089
  104MOL   C30733473   7.211   3.924   1.646  0.3637 -0.1970 -0.2709
  104MOL   O30833474   7.153   3.868   1.523 -0.2143  0.5879 -0.0810
  104MOL   C30933475   7.220   3.761   1.462  0.2211  0.8110  1.0465
  104MOL   C31033476   7.123   3.663   1.393 -0.2572 -0.2376  0.0772
  104MOL   C31133477   7.310   3.822   1.352  0.0702 -0.3987 -1.0514
  104MOL   H31233478   7.010   3.938   1.699 -1.5345  1.6719 -0.1646
  104MOL   H31333479   7.117   4.027   1.816 -0.2855  1.9324 -0.2895
  104MOL   H31433480   7.298   3.986   1.628  1.1685 -0.5004  2.3207
  104MOL   H31533481   7.281   3.700   1.527  1.8041  1.6202  0.3399
  104MOL   H31633482   7.078   3.718   1.310 -1.3426  0.5968  1.1964
  104MOL   H31733483   7.057   3.631   1.474 -2.2942 -0.4237 -1.6086
  104MOL   H31833484   7.174   3.571   1.366 -0.8234 -0.7055  0.5804
  104MOL   H31933485   7.259   3.882   1.277 -3.5380 -0.7844  0.9987
  104MOL   H32033486   7.364   3.746   1.297  0.3469 -1.1505  0.2452
  104MOL   H32133487   7.389   3.879   1.402 -0.8678 -0.9120  1.0468
  104MOL   H32233488   7.239   3.842   1.712 -1.2342  0.6268  1.4855
  105MOL     C133489   4.502   3.729   1.710 -0.2052  0.4181 -0.4211
  105MOL     C233490   4.363   3.703   1.641  0.1175 -1.0784  0.6522
  105MOL     O333491   4.389   3.618   1.530 -0.5876  0.6185  0.8133
  105MOL     C433492   4.289   3.597   1.425 -0.0909  0.7739 -0.0987
  105MOL     C533493   4.308   3.464   1.357 -0.1193 -0.1461  0.3058
  105MOL     C633494   4.307   3.710   1.328  0.1917  0.0862  0.0373
  105MOL     H733495   4.489   3.794   1.797  0.1459 -2.2035  1.6721
  105MOL     H833496   4.542   3.630   1.735 -0.8518 -0.2328 -1.8798
  105MOL     H933497   4.328   3.801   1.611 -1.2550 -1.8453 -0.3025
  105MOL    H1033498   4.196   3.611   1.480  0.0168 -1.4694  0.7090
  105MOL    H1133499   4.393   3.449   1.290  0.2666  1.7094  0.3687
  105MOL    H1233500   4.313   3.399   1.444  0.7803 -0.8313 -0.2458
  105MOL    H1333501   4.214   3.439   1.306  1.6253 -1.3388 -2.4871
  105MOL    H1433502   4.413   3.725   1.310  0.3003  0.9595  1.3330
  105MOL    H1533503   4.257   3.691   1.233 -0.2003 -0.3914  0.3331
  105MOL    H1633504   4.266   3.799   1.376 -0.4452 -0.1572 -0.0508
  105MOL    H1733505   4.576   3.766   1.639 -2.1131  3.2783 -0.9633
  105MOL    C1833506   4.266   3.656   1.752 -0.0338  0.0375  0.0692
  105MOL    C1933507   4.124   3.721   1.755  0.2408  0.1327 -0.4678
  105MOL    O2033508   4.133   3.862   1.789  0.0680 -0.0504 -0.4143
  105MOL    C2133509   4.032   3.942   1.752  0.6197 -0.7542  0.0928
  105MOL    C2233510   4.071   4.004   1.615  0.3015 -0.6719  0.1332
  105MOL    C2333511   4.014   4.049   1.853  0.3205  0.3530 -0.5272
  105MOL    H2433512   4.251   3.548   1.746  0.3968 -0.1149  1.4350
  105MOL    H2533513   4.297   3.664   1.857 -2.8243 -2.5219  1.1744
  105MOL    H2633514   4.071   3.696   1.663 -0.4705  2.1352 -0.6114
  105MOL    H2733515   3.939   3.885   1.753 -0.0571  0.2939  3.5732
  105MOL    H2833516   4.070   3.935   1.530 -0.0556  0.6035 -0.9155
  105MOL    H2933517   3.999   4.081   1.586 -0.6388 -0.9194  1.7501
  105MOL    H3033518   4.169   4.051   1.616 -0.1159  0.3045 -1.5370
  105MOL    H3133519   3.933   4.119   1.833 -1.9313 -1.6240  1.3308
  105MOL    H3233520   4.101   4.113   1.868  0.8769 -0.5386  0.0632
  105MOL    H3333521   3.992   4.007   1.951 -0.9702  3.5600  0.6424
  105MOL    C3433522   4.047   3.645   1.868  0.2103 -0.1773  0.0240
  105MOL    C3533523   3.919   3.567   1.815  0.2702  0.1042 -0.1142
  105MOL    O3633524   3.960   3.437   1.764  0.1972 -0.1000 -0.9673
  105MOL    C3733525   3.931   3.413   1.625 -0.0867 -0.3740  0.0636
  105MOL    C3833526   4.023   3.296   1.566  0.7357  0.0960 -0.0306
  105MOL    C3933527   3.779   3.395   1.603 -0.2117 -0.8015  0.2550
  105MOL    H4033528   4.003   3.729   1.920  0.8099  0.1466  0.0035
  105MOL    H4133529   4.103   3.580   1.935  1.0755  0.1995 -0.3283
  105MOL    H4233530   3.857   3.630   1.751 -1.1505 -0.5785  0.5769
  105MOL    H4333531   3.965   3.500   1.569 -0.5511  0.3534  0.8977
  105MOL    H4433532   4.032   3.225   1.648  1.4420  0.3621  0.1259
  105MOL    H4533533   4.119   3.338   1.537 -0.0526  2.4406  0.6567
  105MOL    H4633534   3.973   3.254   1.479  2.5716 -0.8580 -0.6514
  105MOL    H4733535   3.732   3.313   1.656  1.4537 -1.2387  1.1043
  105MOL    H4833536   3.725   3.482   1.641 -1.2855 -1.5828  0.5046
  105MOL    H4933537   3.753   3.385   1.497  0.9610 -1.1630 -0.0064
  105MOL    C5033538   3.825   3.521   1.929 -0.4199 -0.9901  0.1495
  105MOL    C5133539   3.736   3.635   2.002 -0.8129  0.1716  0.2427
  105MOL    O5233540   3.734   3.602   2.133  0.7363  0.0334 -0.1407
  105MOL    C5333541   3.817   3.678   2.221  0.0355 -0.4709  0.6184
  105MOL    C5433542   3.887   3.588   2.316 -0.6303  1.0666 -0.3466
  105MOL    C5533543   3.729   3.774   2.299  0.4251  0.2500 -0.5481
  105MOL    H5633544   3.761   3.446   1.885  1.1234 -2.1002 -0.2631
  105MOL    H5733545   3.874   3.460   2.006 -0.7389 -0.3388  0.8750
  105MOL    H5833546   3.788   3.726   1.972 -1.6726  1.2978  2.1076
  105MOL    H5933547   3.891   3.738   2.167 -2.3629  0.2315 -1.9925
  105MOL    H6033548   3.947   3.646   2.386  0.6592  1.6694 -1.9239
  105MOL    H6133549   3.959   3.520   2.271 -0.3548  1.0258  0.1502
  105MOL    H6233550   3.811   3.533   2.371  0.6748  1.3780  1.8593
  105MOL    H6333551   3.682   3.849   2.236 -1.9349  0.3224  1.2032
  105MOL    H6433552   3.787   3.821   2.378 -2.0532 -2.5923  3.1457
  105MOL    H6533553   3.651   3.722   2.356  0.5929  0.1097 -0.4490
  105MOL    C6633554   3.581   3.620   1.958  0.2270  0.4011  0.0228
  105MOL    C6733555   3.486   3.730   2.013  0.4852 -0.2954 -1.0367
  105MOL    O6833556   3.360   3.721   1.940 -0.1515  0.3332  0.7798
  105MOL    C6933557   3.278   3.610   1.981 -0.5030 -0.1558 -0.5731
  105MOL    C7033558   3.182   3.638   2.093 -0.0888  0.5316  0.8928
  105MOL    C7133559   3.191   3.563   1.866  0.2250 -0.0824  0.1400
  105MOL    H7233560   3.572   3.638   1.851 -0.4661 -0.2795 -0.0364
  105MOL    H7333561   3.537   3.523   1.982 -1.0162  0.5642 -1.5073
  105MOL    H7433562   3.487   3.723   2.122  3.9243 -0.1729 -1.0000
  105MOL    H7533563   3.343   3.531   2.019 -0.1126  1.3118  1.9643
  105MOL    H7633564   3.123   3.548   2.114 -0.0429  0.4764  0.7830
  105MOL    H7733565   3.240   3.670   2.180 -0.9660 -0.1191  1.7377
  105MOL    H7833566   3.107   3.712   2.065  0.0959  0.8377  1.1997
  105MOL    H7933567   3.152   3.464   1.889 -2.7933  1.1464  0.4814
  105MOL    H8033568   3.257   3.558   1.779 -0.0594  0.2576 -0.0969
  105MOL    H8133569   3.113   3.634   1.840 -1.3680 -0.8133  2.7833
  105MOL    C8233570   3.542   3.874   1.975 -0.1403 -0.6117 -0.1119
  105MOL    C8333571   3.450   3.992   2.031  0.0836  1.3295 -0.1829
  105MOL    O8433572   3.494   4.036   2.165  0.5250 -0.7483  0.3062
  105MOL    C8533573   3.448   3.982   2.283  0.4250  0.2999  0.4667
  105MOL    C8633574   3.305   4.042   2.302 -0.3229  0.3506 -0.4413
  105MOL    C8733575   3.548   4.038   2.389 -0.1681  0.1640 -0.0014
  105MOL    H8833576   3.644   3.892   2.008  1.1385 -0.7431 -3.8377
  105MOL    H8933577   3.553   3.864   1.867 -1.9591 -0.3019 -0.3410
  105MOL    H9033578   3.345   3.967   2.019  1.0355 -1.0710 -4.9489
  105MOL    H9133579   3.456   3.873   2.284  0.2807  0.2791 -0.2958
  105MOL    H9233580   3.231   4.017   2.226 -0.7236 -1.4001  0.4923
  105MOL    H9333581   3.267   4.014   2.400  0.0805 -0.7170 -0.5818
  105MOL    H9433582   3.319   4.150   2.304  1.2143  0.1512  0.6988
  105MOL    H9533583   3.530   3.994   2.487  1.0941  2.6458  1.3862
  105MOL    H9633584   3.653   4.031   2.360  0.3914  0.6168  1.8472
  105MOL    H9733585   3.520   4.140   2.414  0.5931  0.3290  0.1844
  105MOL    C9833586   3.473   4.114   1.944 -0.9051  0.0714  0.2720
  105MOL    C9933587   3.380   4.233   1.978  0.3350 -0.2186 -0.2350
  105MOL   O10033588   3.357   4.300   1.854 -0.9042  0.1897  0.1956
  105MOL   C10133589   3.228   4.286   1.807 -0.2783 -0.0315  0.2984
  105MOL   C10233590   3.218   4.156   1.722  0.7374  0.3492 -0.6831
  105MOL   C10333591   3.217   4.416   1.725  0.2342 -0.3680  0.1519
  105MOL   H10433592   3.576   4.149   1.949 -0.5064 -0.9367 -0.7006
  105MOL   H10533593   3.454   4.079   1.843 -2.2976 -0.2937  0.6454
  105MOL   H10633594   3.292   4.187   2.024 -0.8439  0.7239 -1.4947
  105MOL   H10733595   3.155   4.291   1.888  0.3250 -1.4136  0.9487
  105MOL   H10833596   3.125   4.148   1.666 -0.2505  0.0347  0.9554
  105MOL   H10933597   3.211   4.083   1.802  4.7939 -1.6617 -2.0534
  105MOL   H11033598   3.311   4.152   1.665  1.0834 -0.8258 -0.0464
  105MOL   H11133599   3.265   4.397   1.629 -1.5939 -0.8005 -0.6973
  105MOL   H11233600   3.255   4.509   1.766 -3.8404  1.8054 -0.7359
  105MOL   H11333601   3.114   4.434   1.695 -0.1263 -0.6551  1.2175
  105MOL   C11433602   3.445   4.331   2.073 -0.1057  0.0791  0.5826
  105MOL   C11533603   3.350   4.441   2.115 -0.8654  0.3910 -0.1937
  105MOL   O11633604   3.253   4.368   2.198 -0.3339  0.1553 -0.0073
  105MOL   C11733605   3.131   4.440   2.218  0.2769  0.8198 -0.4535
  105MOL   C11833606   3.063   4.396   2.352 -0.3825 -0.0965 -0.2186
  105MOL   C11933607   3.040   4.459   2.096  0.1450  0.4466  0.2495
  105MOL   H12033608   3.535   4.366   2.023  0.0978 -1.4714 -0.1592
  105MOL   H12133609   3.472   4.277   2.164  1.3762  0.9773  0.7013
  105MOL   H12233610   3.297   4.487   2.032  1.0757  0.3798 -1.4629
  105MOL   H12333611   3.160   4.540   2.250 -1.1569  0.9969  0.3748
  105MOL   H12433612   3.062   4.288   2.363  1.1223 -0.0303  0.6683
  105MOL   H12533613   2.964   4.439   2.364  0.3758  1.8300 -0.6483
  105MOL   H12633614   3.120   4.426   2.440 -0.8514  0.6303 -0.1568
  105MOL   H12733615   3.093   4.531   2.034  0.1006  1.6762  1.6009
  105MOL   H12833616   2.938   4.490   2.119  0.7451  2.1565  0.6465
  105MOL   H12933617   3.030   4.364   2.043 -4.2981  1.4180 -0.8255
  105MOL   C13033618   3.423   4.557   2.179 -0.0885  0.2080  0.6067
  105MOL   C13133619   3.551   4.619   2.109  0.1024 -0.5655  0.2717
  105MOL   O13233620   3.594   4.729   2.193 -0.2403 -0.7025 -0.0098
  105MOL   C13333621   3.692   4.692   2.294  0.4429 -0.2238 -0.2180
  105MOL   C13433622   3.834   4.704   2.237 -0.7632 -0.2007 -0.0322
  105MOL   C13533623   3.690   4.788   2.414  0.8404 -0.0264 -0.0546
  105MOL   H13633624   3.458   4.519   2.275  0.6846  0.4898  0.4410
  105MOL   H13733625   3.349   4.632   2.207 -0.8743 -0.2785 -0.1721
  105MOL   H13833626   3.627   4.541   2.108 -0.0244 -0.6964  0.7930
  105MOL   H13933627   3.676   4.587   2.317  0.7667  0.0295  1.1834
  105MOL   H14033628   3.915   4.690   2.309 -0.0095 -0.2045 -0.8787
  105MOL   H14133629   3.855   4.805   2.201 -1.0118 -1.4003 -3.6995
  105MOL   H14233630   3.839   4.638   2.151 -0.6102 -0.8110  0.4387
  105MOL   H14333631   3.754   4.752   2.495 -1.8919  0.5702  2.4209
  105MOL   H14433632   3.712   4.890   2.385  1.4065  0.3210  1.5619
  105MOL   H14533633   3.592   4.797   2.460  1.5042 -0.3219  1.4481
  105MOL   C14633634   3.528   4.667   1.968 -0.5641  0.3513  0.1934
  105MOL   C14733635   3.658   4.670   1.874  0.6830  0.2792  0.5850
  105MOL   O14833636   3.670   4.533   1.829 -1.0311  0.4551 -0.1669
  105MOL   C14933637   3.794   4.494   1.766  0.4755 -0.0306 -0.0041
  105MOL   C15033638   3.761   4.359   1.704 -0.0637  0.3133  0.1468
  105MOL   C15133639   3.904   4.482   1.870  0.1503 -0.4097  0.1206
  105MOL   H15233640   3.491   4.769   1.962 -0.5354  0.3851  0.6114
  105MOL   H15333641   3.456   4.608   1.911 -2.3578  2.5671  0.1104
  105MOL   H15433642   3.744   4.701   1.933  1.0900 -1.1542  0.7738
  105MOL   H15533643   3.811   4.571   1.692  2.5770 -0.8135 -0.3626
  105MOL   H15633644   3.711   4.291   1.774  0.7922 -0.3000  0.1738
  105MOL   H15733645   3.853   4.314   1.665  0.4329  1.3885  0.0528
  105MOL   H15833646   3.696   4.363   1.617  1.0909 -0.3298 -0.7703
  105MOL   H15933647   3.854   4.429   1.950 -1.7321  1.2548  0.0837
  105MOL   H16033648   3.934   4.579   1.911 -0.5712 -0.3274  0.4519
  105MOL   H16133649   3.986   4.422   1.829 -0.2550 -0.5720 -0.4611
  105MOL   C16233650   3.631   4.767   1.749  0.4494  0.0719  0.5734
  105MOL   C16333651   3.750   4.862   1.713 -1.0693 -0.4232 -0.1734
  105MOL   O16433652   3.721   4.906   1.580 -0.1501  0.6359 -0.0003
  105MOL   C16533653   3.826   4.976   1.517  0.1723 -0.4878 -0.0014
  105MOL   C16633654   3.765   5.081   1.431 -0.4067  0.7548 -0.3816
  105MOL   C16733655   3.913   4.877   1.449 -0.0798 -0.0299 -1.2752
  105MOL   H16833656   3.604   4.702   1.666 -1.1534 -1.2320  2.0779
  105MOL   H16933657   3.542   4.829   1.758 -0.4193 -1.2264  1.0473
  105MOL   H17033658   3.837   4.796   1.708 -1.6136 -1.2278  0.8331
  105MOL   H17133659   3.887   5.027   1.592 -0.0263  0.0023 -0.1739
  105MOL   H17233660   3.737   5.031   1.338 -2.5504  0.5198  0.3677
  105MOL   H17333661   3.831   5.165   1.411 -0.8390  0.8530 -1.4118
  105MOL   H17433662   3.671   5.114   1.475 -1.7382 -0.0279 -2.5394
  105MOL   H17533663   3.840   4.809   1.404 -0.9633 -0.3170  0.5032
  105MOL   H17633664   3.968   4.814   1.519  0.3778  2.7189  0.9203
  105MOL   H17733665   3.966   4.932   1.372  0.8179 -0.0396 -0.6664
  105MOL   C17833666   3.773   4.976   1.821 -0.5297  0.5929 -1.0552
  105MOL   C17933667   3.652   5.053   1.885 -0.0184  1.2485  0.6630
  105MOL   O18033668   3.690   5.160   1.968 -0.0058 -0.3886  0.6019
  105MOL   C18133669   3.777   5.134   2.076  0.5804 -0.3522  0.1708
  105MOL   C18233670   3.691   5.115   2.203  0.7501  0.3181  0.9571
  105MOL   C18333671   3.849   5.267   2.089  0.6258 -0.4364  0.0912
  105MOL   H18433672   3.832   5.058   1.779  0.9645  0.7613  1.3014
  105MOL   H18533673   3.825   4.922   1.899 -1.4763 -1.1141 -1.5923
  105MOL   H18633674   3.601   4.980   1.948  0.4903  0.5280  0.2614
  105MOL   H18733675   3.850   5.053   2.068  0.3956 -0.4633 -0.4106
  105MOL   H18833676   3.767   5.116   2.281  0.1787  0.1007  1.5218
  105MOL   H18933677   3.640   5.022   2.227  3.0534 -0.6522  2.2930
  105MOL   H19033678   3.626   5.200   2.219 -2.7380 -2.0880  0.1895
  105MOL   H19133679   3.911   5.289   2.002  1.3472  0.8748  0.9207
  105MOL   H19233680   3.921   5.248   2.169  0.5167  1.8145  0.7501
  105MOL   H19333681   3.788   5.351   2.122  4.7841  2.3678  1.1407
  105MOL   C19433682   3.555   5.117   1.778  0.2565 -0.5612 -0.1750
  105MOL   C19533683   3.417   5.130   1.837  0.4378  0.1214  0.3263
  105MOL   O19633684   3.356   5.002   1.858 -0.8524 -0.5298 -0.5664
  105MOL   C19733685   3.241   5.015   1.940 -0.3268 -0.2047  0.8334
  105MOL   C19833686   3.122   4.942   1.887 -0.8012  0.1241  0.3004
  105MOL   C19933687   3.273   4.977   2.084 -0.3816  0.5842 -0.4249
  105MOL   H20033688   3.602   5.209   1.744 -1.0692  0.0833 -0.2834
  105MOL   H20133689   3.551   5.055   1.689 -1.7713  1.1183 -1.3003
  105MOL   H20233690   3.433   5.189   1.928  0.2355 -1.2470  1.2713
  105MOL   H20333691   3.206   5.118   1.952 -1.1064 -0.3553 -0.0522
  105MOL   H20433692   3.138   4.838   1.916 -2.4584 -0.7142 -1.6476
  105MOL   H20533693   3.029   4.992   1.916  0.7444  2.2653  1.6484
  105MOL   H20633694   3.121   4.937   1.778  1.1142  0.0792  0.2779
  105MOL   H20733695   3.298   4.871   2.088  1.2354  0.9067 -1.3308
  105MOL   H20833696   3.353   5.036   2.127 -0.8174  1.4015 -0.7265
  105MOL   H20933697   3.182   4.994   2.142  0.7130 -0.7089  1.7358
  105MOL   C21033698   3.327   5.209   1.739 -0.4988 -0.5558  0.5622
  105MOL   C21133699   3.284   5.346   1.797 -0.1810 -0.4979 -0.2538
  105MOL   O21233700   3.396   5.426   1.810  0.2339 -0.1824  0.2554
  105MOL   C21333701   3.390   5.524   1.911 -0.3089  0.7196  0.1313
  105MOL   C21433702   3.428   5.466   2.046  0.0324  0.2808  0.1336
  105MOL   C21533703   3.484   5.627   1.862  0.6725  0.1571 -0.0322
  105MOL   H21633704   3.240   5.149   1.711  0.0255 -0.3712 -1.5654
  105MOL   H21733705   3.373   5.224   1.641 -1.1083  0.1574  0.3834
  105MOL   H21833706   3.238   5.324   1.894 -2.3080  1.1677 -0.8479
  105MOL   H21933707   3.289   5.565   1.921 -0.4829  0.8822 -2.1858
  105MOL   H22033708   3.429   5.552   2.113 -1.4054  0.4935 -0.0908
  105MOL   H22133709   3.528   5.423   2.051  0.5799  1.6173  1.0099
  105MOL   H22233710   3.351   5.400   2.088  1.0721 -1.1380 -0.1505
  105MOL   H22333711   3.514   5.683   1.951  0.2874 -1.4423  1.1259
  105MOL   H22433712   3.431   5.689   1.790 -0.8302 -1.1566 -0.0850
  105MOL   H22533713   3.565   5.582   1.805  1.6591  2.4409 -0.5059
  105MOL   C22633714   3.196   5.427   1.694  0.4406 -0.0098 -0.0641
  105MOL   C22733715   3.106   5.356   1.596 -0.2686  0.3208  0.4032
  105MOL   O22833716   3.052   5.466   1.515  0.2094 -0.0109  0.1169
  105MOL   C22933717   3.133   5.516   1.402  0.0038 -0.1326 -0.4213
  105MOL   C23033718   3.059   5.646   1.367 -0.5630 -0.6673 -0.6486
  105MOL   C23133719   3.133   5.411   1.290  0.0745  0.2429 -0.0736
  105MOL   H23233720   3.267   5.474   1.627  0.8227 -0.0135  0.3315
  105MOL   H23333721   3.145   5.501   1.756  0.1337 -0.8122  0.6563
  105MOL   H23433722   3.168   5.285   1.541 -2.4918 -0.2405 -1.4400
  105MOL   H23533723   3.240   5.530   1.422  0.2364 -3.0403  0.6497
  105MOL   H23633724   3.096   5.696   1.277  1.7336 -3.3939 -1.2915
  105MOL   H23733725   2.957   5.613   1.346 -0.5123 -1.9312  0.9581
  105MOL   H23833726   3.048   5.716   1.449 -2.5175 -1.6860 -0.0185
  105MOL   H23933727   3.193   5.322   1.309 -0.6699 -0.9988 -3.3031
  105MOL   H24033728   3.164   5.450   1.193  0.7617  0.8326  0.3762
  105MOL   H24133729   3.034   5.369   1.273 -0.9926  1.9737  1.6072
  105MOL   C24233730   2.979   5.279   1.653  0.2317  0.4983  0.0579
  105MOL   C24333731   2.918   5.194   1.536  0.2783 -0.0596 -0.0513
  105MOL   O24433732   2.779   5.177   1.549 -0.2928  0.0621 -0.0709
  105MOL   C24533733   2.703   5.278   1.484 -0.7810  0.8244 -0.0914
  105MOL   C24633734   2.692   5.245   1.337  0.0555 -0.0843 -0.3770
  105MOL   C24733735   2.567   5.287   1.554  0.5240 -0.0697 -0.7413
  105MOL   H24833736   2.993   5.211   1.737  2.1639 -0.5793 -1.0948
  105MOL   H24933737   2.905   5.356   1.674 -0.2636 -0.2783  1.1687
  105MOL   H25033738   2.936   5.252   1.445 -1.2084  0.6236  0.0590
  105MOL   H25133739   2.750   5.375   1.496  2.8435 -0.5708 -2.1796
  105MOL   H25233740   2.638   5.326   1.287  1.8811  1.1888 -0.3600
  105MOL   H25333741   2.786   5.236   1.282  0.9192 -1.3711  1.2792
  105MOL   H25433742   2.642   5.149   1.327 -1.8464  1.1560 -4.0358
  105MOL   H25533743   2.504   5.346   1.487  0.0952  1.0015  0.6035
  105MOL   H25633744   2.513   5.195   1.578 -0.8995 -0.2623 -4.3112
  105MOL   H25733745   2.582   5.351   1.641  0.9154 -0.3221 -0.6204
  105MOL   C25833746   2.986   5.061   1.518  0.2215  0.3661  0.5243
  105MOL   C25933747   2.952   4.985   1.386  0.3215  0.1267 -0.2440
  105MOL   O26033748   3.006   4.859   1.410  0.6171 -0.1747 -0.3915
  105MOL   C26133749   2.913   4.756   1.451 -0.2710  1.0970  0.2983
  105MOL   C26233750   3.002   4.630   1.447 -0.1940 -0.0735  0.2067
  105MOL   C26333751   2.837   4.777   1.582  0.1178 -0.1183  0.4469
  105MOL   H26433752   3.092   5.085   1.524  0.1138  0.5362  1.9856
  105MOL   H26533753   2.981   5.004   1.611 -1.3393 -1.0553 -0.3923
  105MOL   H26633754   2.846   4.984   1.362 -0.0373  0.7008  1.2342
  105MOL   H26733755   2.835   4.742   1.376 -1.3004  2.5233  1.0671
  105MOL   H26833756   3.096   4.655   1.495  0.4241 -0.0686 -0.9678
  105MOL   H26933757   3.025   4.611   1.342  0.2830  0.9420  0.1180
  105MOL   H27033758   2.958   4.545   1.499 -0.3300  0.2207  0.5712
  105MOL   H27133759   2.906   4.796   1.664 -0.2576  1.7014  0.3709
  105MOL   H27233760   2.782   4.871   1.570  2.0031  1.2429  2.1380
  105MOL   H27333761   2.765   4.696   1.592 -0.9693  0.8960  0.9834
  105MOL   C27433762   3.035   5.041   1.271  0.4486  0.0042  0.3438
  105MOL   C27533763   2.991   4.969   1.137  0.0223  0.8040 -0.3550
  105MOL   O27633764   2.859   5.018   1.109 -0.3344  0.6296  0.0043
  105MOL   C27733765   2.781   4.949   1.020 -0.4760 -0.7962  0.7810
  105MOL   C27833766   2.656   5.032   1.011 -0.0941 -0.3575 -0.1671
  105MOL   C27933767   2.757   4.802   1.063 -0.4762 -0.0377 -0.1276
  105MOL   H28033768   3.049   5.149   1.262  1.7960 -0.1040  0.9524
  105MOL   H28133769   3.143   5.023   1.273  0.3089 -1.2330 -1.8758
  105MOL   H28233770   2.993   4.862   1.160 -4.1335  0.5939 -0.6414
  105MOL   H28333771   2.820   4.939   0.919 -0.2683  1.2641  0.6364
  105MOL   H28433772   2.597   5.056   1.099  0.2406  1.0257 -0.3060
  105MOL   H28533773   2.671   5.121   0.950 -0.3003  0.5860  1.1527
  105MOL   H28633774   2.583   4.971   0.956  1.4154 -1.3796 -1.0874
  105MOL   H28733775   2.746   4.802   1.172 -0.0471 -1.9163 -0.0561
  105MOL   H28833776   2.834   4.726   1.052  0.8999  1.3235 -0.0564
  105MOL   H28933777   2.672   4.766   1.006 -0.3149 -2.2349  0.9380
  105MOL   C29033778   3.078   5.005   1.013 -0.1422 -0.3662 -1.0734
  105MOL   C29133779   3.132   4.895   0.923  0.0684 -0.2705 -0.0019
  105MOL   O29233780   3.222   4.949   0.828  1.2503  0.2495  0.5247
  105MOL   C29333781   3.160   4.997   0.708 -0.0332 -0.3925 -0.0613
  105MOL   C29433782   3.100   4.888   0.625 -0.8477 -0.5231  0.2357
  105MOL   C29533783   3.243   5.093   0.630  0.3438  0.0251  0.1498
  105MOL   H29633784   3.169   5.056   1.046 -0.1070 -1.2944  0.2908
  105MOL   H29733785   3.021   5.071   0.948  3.7545  0.4839 -3.8230
  105MOL   H29833786   3.049   4.841   0.877  1.0018 -3.1180  1.5445
  105MOL   H29933787   3.077   5.059   0.744  0.2294 -0.8464  1.3639
  105MOL   H30033788   3.075   4.931   0.528 -0.0493 -0.0861  0.2194
  105MOL   H30133789   3.175   4.809   0.624 -0.8423 -0.5233  0.6080
  105MOL   H30233790   3.014   4.838   0.671  0.5757 -3.5980 -0.3371
  105MOL   H30333791   3.195   5.125   0.537 -0.8598 -1.4980  0.2240
  105MOL   H30433792   3.273   5.178   0.691 -0.4056  1.8995 -2.0278
  105MOL   H30533793   3.322   5.025   0.598 -0.2346  0.0145 -1.3025
  105MOL   C30633794   3.219   4.794   0.993 -0.2318 -0.0158  0.4029
  105MOL   C30733795   3.234   4.660   0.919 -0.5829 -0.3986  0.0400
  105MOL   O30833796   3.299   4.560   1.000 -0.1929 -0.7338  0.3854
  105MOL   C30933797   3.225   4.457   1.061 -0.1464  0.3961  0.7717
  105MOL   C31033798   3.223   4.338   0.960  0.0910 -0.6047  0.5597
  105MOL   C31133799   3.290   4.416   1.195 -0.2361 -0.1843 -0.1030
  105MOL   H31233800   3.176   4.776   1.091 -1.3489  1.0100  0.1044
  105MOL   H31333801   3.323   4.826   1.007 -0.9448  1.5310  2.3948
  105MOL   H31433802   3.136   4.618   0.898 -0.3226 -1.2324  0.4851
  105MOL   H31533803   3.121   4.488   1.072  0.1911  2.8276 -2.2631
  105MOL   H31633804   3.149   4.266   0.994 -0.8998 -0.0681 -0.4025
  105MOL   H31733805   3.310   4.273   0.951 -0.7058 -1.4703 -1.3794
  105MOL   H31833806   3.187   4.367   0.861 -0.3441 -2.0630  0.2824
  105MOL   H31933807   3.398   4.407   1.193 -0.3227 -1.3160 -0.0812
  105MOL   H32033808   3.257   4.317   1.228  0.1178 -0.2044  0.1878
  105MOL   H32133809   3.249   4.473   1.278  3.0288  1.0416  0.7224
  105MOL   H32233810   3.304   4.680   0.838 -1.0044  0.0311 -0.2191
  106MOL     C133811   2.604   2.527   7.697  0.4810 -1.0219  0.3855
  106MOL     C233812   2.715   2.443   7.768  0.0828  0.3273  0.3582
  106MOL     O333813   2.823   2.412   7.676  0.6114 -0.0646  0.2568
  106MOL     C433814   2.795   2.317   7.574  0.7175  0.1108 -0.4838
  106MOL     C533815   2.820   2.183   7.632 -0.0029  0.3573  0.1115
  106MOL     C633816   2.882   2.350   7.460 -0.0100  0.3470 -0.1365
  106MOL     H733817   2.639   2.620   7.652  0.9421 -2.1399 -1.6222
  106MOL     H833818   2.550   2.485   7.612  0.0182  0.4319 -0.0602
  106MOL     H933819   2.668   2.349   7.796  1.6575 -0.5979 -0.0261
  106MOL    H1033820   2.693   2.314   7.536  0.1263  1.9687  0.8756
  106MOL    H1133821   2.914   2.178   7.686 -0.1128  0.7121  0.3340
  106MOL    H1233822   2.738   2.149   7.695 -0.3421 -0.4012 -0.7141
  106MOL    H1333823   2.834   2.116   7.547  3.0970  2.8989 -1.4814
  106MOL    H1433824   2.860   2.284   7.376  0.8671  0.4079 -0.4162
  106MOL    H1533825   2.879   2.449   7.414 -0.4649  0.0494 -0.7577
  106MOL    H1633826   2.984   2.321   7.485  0.1595  0.3090 -0.8755
  106MOL    H1733827   2.542   2.563   7.778 -0.5034 -0.5177 -0.5817
  106MOL    C1833828   2.782   2.504   0.069  0.5744 -0.1026 -0.0695
  106MOL    C1933829   2.843   2.405   0.171 -0.1460 -1.1053 -0.2970
  106MOL    O2033830   2.748   2.360   0.267 -0.5328 -0.8735  0.2083
  106MOL    C2133831   2.696   2.231   0.240  1.0065  0.7854  0.1586
  106MOL    C2233832   2.565   2.204   0.318  0.1185 -0.1907 -0.5145
  106MOL    C2333833   2.798   2.121   0.275 -0.6749  0.0664 -0.2570
  106MOL    H2433834   2.856   2.575   0.032  1.0259 -0.7898 -0.5031
  106MOL    H2533835   2.710   2.561   0.127 -0.7273 -0.9681 -0.8011
  106MOL    H2633836   2.888   2.323   0.116  1.3256 -1.1646  0.9618
  106MOL    H2733837   2.678   2.201   0.137  0.8591 -2.4641  1.0838
  106MOL    H2833838   2.578   2.253   0.415 -1.3806 -2.5699  0.9768
  106MOL    H2933839   2.482   2.252   0.267 -1.0261  0.5173  1.9159
  106MOL    H3033840   2.526   2.102   0.327  0.3423 -0.1897  0.5476
  106MOL    H3133841   2.889   2.128   0.215  0.1195 -2.7384  0.5510
  106MOL    H3233842   2.751   2.024   0.262  1.7746 -1.0152 -1.2349
  106MOL    H3333843   2.838   2.124   0.376  0.8441  0.6301 -0.8519
  106MOL    C3433844   2.953   2.472   0.254 -0.2384  0.6418  0.0725
  106MOL    C3533845   3.062   2.374   0.316 -0.0623 -0.1242 -0.2975
  106MOL    O3633846   3.119   2.304   0.210 -0.2676  0.2277 -0.2284
  106MOL    C3733847   3.203   2.193   0.258 -0.6961  0.0135 -0.4603
  106MOL    C3833848   3.169   2.076   0.166  0.1992 -0.6319  0.7139
  106MOL    C3933849   3.354   2.215   0.250  0.0055 -0.4198  0.6478
  106MOL    H4033850   2.903   2.541   0.322 -3.0752 -1.0563 -0.2326
  106MOL    H4133851   3.003   2.540   0.184  0.0229  0.3929  0.0119
  106MOL    H4233852   3.011   2.310   0.389  1.5346  1.4401  2.2667
  106MOL    H4333853   3.172   2.155   0.355 -0.9563 -0.5418 -0.7580
  106MOL    H4433854   3.165   2.117   0.065  1.2634 -0.6974  0.6431
  106MOL    H4533855   3.068   2.038   0.181 -1.7637  4.4227  1.2465
  106MOL    H4633856   3.240   1.994   0.172  0.5613 -0.3603  0.1816
  106MOL    H4733857   3.387   2.222   0.146  0.2583  0.4434  0.7872
  106MOL    H4833858   3.385   2.307   0.300  2.1936 -1.0427  0.5083
  106MOL    H4933859   3.409   2.130   0.291 -0.5679 -1.5000 -0.7576
  106MOL    C5033860   3.180   2.452   0.395 -0.6580  0.2783  1.0581
  106MOL    C5133861   3.126   2.554   0.509  0.6327 -0.0772 -0.8904
  106MOL    O5233862   3.232   2.625   0.569 -0.4916  0.0723 -0.5297
  106MOL    C5333863   3.301   2.720   0.484 -0.0764 -0.7594 -1.1015
  106MOL    C5433864   3.354   2.821   0.591 -0.3259  0.4705  0.1866
  106MOL    C5533865   3.209   2.798   0.377  0.5485 -0.1382 -0.0659
  106MOL    H5633866   3.253   2.387   0.442  0.3210  1.3155  1.0066
  106MOL    H5733867   3.230   2.513   0.319  0.1268  0.2742  1.5698
  106MOL    H5833868   3.048   2.623   0.475  0.1201  0.1928  0.7839
  106MOL    H5933869   3.382   2.668   0.434 -1.1090 -0.3577 -3.2452
  106MOL    H6033870   3.273   2.876   0.639 -0.1087  0.7318  0.2569
  106MOL    H6133871   3.407   2.897   0.532  0.6845  0.1504  0.6702
  106MOL    H6233872   3.418   2.780   0.670  1.5029 -1.8394 -2.3868
  106MOL    H6333873   3.179   2.726   0.300 -2.0558 -0.5658  1.3236
  106MOL    H6433874   3.270   2.869   0.321  1.1299 -0.9749 -0.5138
  106MOL    H6533875   3.126   2.853   0.421  1.8736  1.0667  0.9691
  106MOL    C6633876   3.061   2.487   0.631  0.2296 -0.3238  0.4317
  106MOL    C6733877   3.137   2.384   0.719 -0.5364 -0.1994  0.1313
  106MOL    O6833878   3.158   2.264   0.643 -0.0620  0.8446 -0.3313
  106MOL    C6933879   3.259   2.176   0.697 -0.0207 -0.4129  0.7942
  106MOL    C7033880   3.206   2.036   0.722 -0.4765  0.0620 -0.4432
  106MOL    C7133881   3.381   2.180   0.608  0.0632  0.1833  0.3566
  106MOL    H7233882   3.022   2.570   0.689 -0.3684 -0.3471  0.0687
  106MOL    H7333883   2.977   2.430   0.590  0.4313  0.5681 -1.2648
  106MOL    H7433884   3.234   2.425   0.746 -0.1249 -0.6503 -0.6452
  106MOL    H7533885   3.297   2.208   0.794  1.4448 -0.3680  0.2176
  106MOL    H7633886   3.276   1.971   0.775  0.1666  1.1255  0.0074
  106MOL    H7733887   3.116   2.042   0.783  1.3468 -0.0488  2.3628
  106MOL    H7833888   3.175   1.986   0.630 -1.8069 -0.6471  0.3774
  106MOL    H7933889   3.394   2.280   0.566  0.4984  0.1224  0.3502
  106MOL    H8033890   3.365   2.107   0.528 -0.1815 -0.3099  0.8543
  106MOL    H8133891   3.470   2.143   0.659  1.9855  2.8669 -0.9592
  106MOL    C8233892   3.057   2.350   0.847  0.0560  0.0932  0.1165
  106MOL    C8333893   2.899   2.349   0.857  0.6990  0.3373 -0.0833
  106MOL    O8433894   2.850   2.219   0.819 -0.4087 -0.5500 -0.4854
  106MOL    C8533895   2.779   2.216   0.700 -0.3463  0.0060  0.4193
  106MOL    C8633896   2.642   2.292   0.706  0.1288 -0.3000 -0.1233
  106MOL    C8733897   2.755   2.070   0.671  0.8879  0.1421 -0.1215
  106MOL    H8833898   3.094   2.260   0.898  1.6667  1.0989  0.7498
  106MOL    H8933899   3.094   2.424   0.918 -0.3986  1.8603 -1.4595
  106MOL    H9033900   2.856   2.426   0.793  0.8941  2.2811  2.0724
  106MOL    H9133901   2.846   2.249   0.621  0.3114 -0.1803  0.8904
  106MOL    H9233902   2.577   2.257   0.626  0.4849 -0.2031 -0.4559
  106MOL    H9333903   2.590   2.279   0.801  2.8002 -0.7405  1.3379
  106MOL    H9433904   2.669   2.395   0.683 -1.5213  0.0278 -0.6957
  106MOL    H9533905   2.684   2.063   0.589  1.8676  0.4151 -0.9924
  106MOL    H9633906   2.851   2.023   0.656  1.3415  1.0315 -0.0469
  106MOL    H9733907   2.691   2.034   0.752  0.3349 -1.5072 -1.2774
  106MOL    C9833908   2.841   2.371   1.003 -0.9042 -0.1003  0.3312
  106MOL    C9933909   2.857   2.516   1.069  0.8264  0.3369  1.0368
  106MOL   O10033910   2.833   2.514   1.209  0.1561  0.5449 -0.9590
  106MOL   C10133911   2.937   2.468   1.294 -0.3989  0.4663 -0.8587
  106MOL   C10233912   2.858   2.444   1.427  0.1942  0.2222 -0.0628
  106MOL   C10333913   3.037   2.591   1.315 -0.2110  0.4276  0.2163
  106MOL   H10433914   2.736   2.344   1.009 -0.4826 -1.8903 -0.0513
  106MOL   H10533915   2.890   2.294   1.062  0.9187  1.2332  0.6055
  106MOL   H10633916   2.963   2.537   1.055  1.0188 -0.1578  1.7484
  106MOL   H10733917   2.990   2.378   1.261  1.8223  1.1956  0.6077
  106MOL   H10833918   2.774   2.380   1.404 -1.5657  1.9590  1.3570
  106MOL   H10933919   2.809   2.539   1.447  2.2575  1.4371 -0.6121
  106MOL   H11033920   2.924   2.419   1.510  0.5745 -0.4785 -0.5772
  106MOL   H11133921   3.091   2.630   1.229  0.9389 -0.5961  0.4603
  106MOL   H11233922   3.119   2.563   1.382 -1.7440 -1.3261  1.4257
  106MOL   H11333923   2.998   2.672   1.377  0.1143 -1.1171  2.5426
  106MOL   C11433924   2.769   2.622   1.004  0.6102  0.4643  0.9395
  106MOL   C11533925   2.833   2.767   1.023  0.1067  0.7680 -0.4438
  106MOL   O11633926   2.943   2.770   0.935  0.0122 -0.2521 -0.6656
  106MOL   C11733927   3.072   2.819   0.964  0.5952 -0.1107 -0.6301
  106MOL   C11833928   3.093   2.954   0.897  1.1192 -0.5277 -0.1574
  106MOL   C11933929   3.172   2.718   0.898 -0.5204  0.2817 -0.3214
  106MOL   H12033930   2.665   2.622   1.037 -0.2077  2.8608 -1.4446
  106MOL   H12133931   2.755   2.611   0.896  0.0269  3.1567  0.6933
  106MOL   H12233932   2.870   2.777   1.125 -2.0297  1.7829  0.2586
  106MOL   H12333933   3.092   2.829   1.071  1.3255 -0.9134 -0.6791
  106MOL   H12433934   3.028   3.021   0.952  0.0612 -0.6856 -1.2061
  106MOL   H12533935   3.052   2.952   0.796 -0.5495  1.9474  0.4396
  106MOL   H12633936   3.194   2.994   0.911  0.6841 -0.1338  1.9938
  106MOL   H12733937   3.188   2.745   0.794  0.9353  1.2732  0.1340
  106MOL   H12833938   3.157   2.610   0.895 -0.1536  0.2373 -0.6543
  106MOL   H12933939   3.270   2.734   0.943 -0.5840  1.1915 -0.4955
  106MOL   C13033940   2.737   2.888   0.988 -0.6324 -0.3536 -0.1987
  106MOL   C13133941   2.643   2.931   1.104  0.4185 -0.5555 -0.3821
  106MOL   O13233942   2.544   2.831   1.108 -0.3413  0.2645  0.3888
  106MOL   C13333943   2.494   2.809   1.238 -0.3350 -0.5646  0.3557
  106MOL   C13433944   2.341   2.796   1.212  0.4024  0.2842  0.2999
  106MOL   C13533945   2.574   2.682   1.297  0.2252  0.6706 -0.0468
  106MOL   H13633946   2.685   2.869   0.894  0.0033  0.9400 -0.8297
  106MOL   H13733947   2.805   2.972   0.970 -0.0020 -0.0517  3.3625
  106MOL   H13833948   2.699   2.935   1.197  0.7979  0.1693 -0.6374
  106MOL   H13933949   2.507   2.896   1.303  0.3095 -0.3312 -0.0786
  106MOL   H14033950   2.291   2.759   1.302  2.5173 -0.4657  1.2045
  106MOL   H14133951   2.317   2.736   1.125  0.0427  0.8014  0.0426
  106MOL   H14233952   2.304   2.895   1.186 -1.1831  0.0894  1.7446
  106MOL   H14333953   2.547   2.655   1.399 -0.6565  1.8454  0.0415
  106MOL   H14433954   2.552   2.587   1.249 -0.7808  0.6694  0.4044
  106MOL   H14533955   2.682   2.698   1.289  0.6569 -0.4770  2.8351
  106MOL   C14633956   2.583   3.075   1.085 -0.5115 -0.0500  0.1689
  106MOL   C14733957   2.682   3.199   1.117 -0.2466 -0.0206 -0.0391
  106MOL   O14833958   2.676   3.302   1.018 -0.6031 -0.4957  0.5687
  106MOL   C14933959   2.754   3.276   0.896  0.3977 -0.3008 -0.2637
  106MOL   C15033960   2.902   3.329   0.911 -0.0033 -0.6895  0.2836
  106MOL   C15133961   2.664   3.342   0.798  0.1883 -0.6893 -0.2080
  106MOL   H15233962   2.494   3.092   1.145 -0.2651 -0.6352  0.6997
  106MOL   H15333963   2.558   3.083   0.979  0.8941  0.8409 -0.1090
  106MOL   H15433964   2.783   3.161   1.103 -0.2410 -0.0969  0.2170
  106MOL   H15533965   2.755   3.170   0.872 -0.2472 -0.4842  0.4949
  106MOL   H15633966   2.953   3.281   0.994 -0.6749 -1.7689  0.0820
  106MOL   H15733967   2.881   3.434   0.927 -1.6914 -0.8377 -0.8157
  106MOL   H15833968   2.971   3.307   0.829 -2.3769 -2.4172 -1.3236
  106MOL   H15933969   2.571   3.285   0.791 -1.5564  2.1131 -0.4376
  106MOL   H16033970   2.706   3.324   0.699  2.5602  1.3549  0.3773
  106MOL   H16133971   2.642   3.445   0.824  0.6191 -1.1560  2.1499
  106MOL   C16233972   2.677   3.254   1.263  0.2332 -0.2086  0.3996
  106MOL   C16333973   2.721   3.170   1.384  0.2415  0.5758 -1.0186
  106MOL   O16433974   2.862   3.175   1.404 -0.1120  0.1252 -0.0981
  106MOL   C16533975   2.914   3.051   1.443 -0.3124  0.4711 -0.2876
  106MOL   C16633976   3.000   3.075   1.567 -0.6589 -0.5298 -0.1944
  106MOL   C16733977   3.005   2.998   1.326  0.2631 -0.4374  0.8752
  106MOL   H16833978   2.731   3.348   1.264  0.0990 -0.1055 -1.1132
  106MOL   H16933979   2.572   3.280   1.273  0.0008 -0.8890 -0.2178
  106MOL   H17033980   2.690   3.072   1.350 -1.7596  0.5411  0.7948
  106MOL   H17133981   2.845   2.972   1.473  0.9634 -0.4059  0.3806
  106MOL   H17233982   3.062   3.163   1.551 -0.6252 -0.5795 -0.3398
  106MOL   H17333983   3.062   2.987   1.586  0.4672  0.1032 -0.8322
  106MOL   H17433984   2.935   3.094   1.652  0.5749  0.0507  0.6503
  106MOL   H17533985   3.056   2.911   1.368  0.9326 -0.7192 -0.4733
  106MOL   H17633986   3.079   3.076   1.305  0.3185 -0.4004  1.2049
  106MOL   H17733987   2.963   2.972   1.229  0.9425  2.6942 -0.3232
  106MOL   C17833988   2.674   3.228   1.519  0.1901 -0.0671  0.4946
  106MOL   C17933989   2.554   3.165   1.592  0.1157  0.5940  0.9718
  106MOL   O18033990   2.448   3.151   1.497  0.1400  0.0655 -0.4665
  106MOL   C18133991   2.319   3.156   1.550 -0.3022 -0.2084 -0.3378
  106MOL   C18233992   2.240   3.064   1.459  0.1009  0.1334 -0.0046
  106MOL   C18333993   2.278   3.302   1.555  0.8090  0.1039  0.2873
  106MOL   H18433994   2.645   3.331   1.499  0.8781 -0.0068 -0.2013
  106MOL   H18533995   2.759   3.245   1.585  1.0031 -0.5173 -0.4108
  106MOL   H18633996   2.516   3.226   1.674 -2.6851  1.3723 -0.8114
  106MOL   H18733997   2.324   3.126   1.655  1.3199  0.9719 -0.0468
  106MOL   H18833998   2.277   2.963   1.445  0.0334 -0.3468  2.9421
  106MOL   H18933999   2.235   3.112   1.361 -1.7306  1.0887  0.5191
  106MOL   H19034000   2.138   3.062   1.498 -0.1758  1.9344 -0.5850
  106MOL   H19134001   2.292   3.348   1.457  1.7369 -2.1926 -0.6983
  106MOL   H19234002   2.340   3.362   1.621  1.7962 -1.7725  1.0986
  106MOL   H19334003   2.171   3.305   1.577  0.7008  1.9259 -0.4273
  106MOL   C19434004   2.585   3.025   1.656 -0.1721 -0.7450 -0.2320
  106MOL   C19534005   2.640   3.024   1.799  0.8890  0.2694  0.1292
  106MOL   O19634006   2.763   3.097   1.807  0.1067  0.4594 -0.0616
  106MOL   C19734007   2.801   3.143   1.931 -0.5692  0.2971  0.5220
  106MOL   C19834008   2.957   3.130   1.941 -0.7934  0.1585  0.6029
  106MOL   C19934009   2.765   3.287   1.951  0.5070  0.2375 -0.2933
  106MOL   H20034010   2.485   2.984   1.671 -1.5005  2.1894 -0.7616
  106MOL   H20134011   2.634   2.960   1.584  1.7780  1.6081 -1.0994
  106MOL   H20234012   2.558   3.060   1.862  0.3622  0.4622 -0.6654
  106MOL   H20334013   2.760   3.088   2.016 -2.7631  0.0089 -0.6674
  106MOL   H20434014   3.003   3.212   1.885 -0.4212  0.7254  1.7156
  106MOL   H20534015   3.000   3.130   2.041  1.5128 -0.5746 -0.3642
  106MOL   H20634016   2.982   3.033   1.900 -0.6000  0.2736  0.4460
  106MOL   H20734017   2.796   3.363   1.879  2.0125  2.1022  2.2363
  106MOL   H20834018   2.658   3.291   1.968  0.6089 -0.3769  0.5065
  106MOL   H20934019   2.800   3.325   2.047  2.0989 -0.0166 -0.7511
  106MOL   C21034020   2.671   2.887   1.846 -0.1679  0.4105 -0.3929
  106MOL   C21134021   2.566   2.781   1.865 -0.4539  0.0535 -0.1951
  106MOL   O21234022   2.500   2.768   1.742  0.1639  0.7794 -0.1890
  106MOL   C21334023   2.375   2.693   1.751 -0.7075 -0.2146 -0.2462
  106MOL   C21434024   2.270   2.792   1.794 -0.5555 -0.6034  0.6405
  106MOL   C21534025   2.363   2.635   1.605  0.4226 -0.4305 -0.2001
  106MOL   H21634026   2.722   2.893   1.942  1.5220  1.7066 -1.3558
  106MOL   H21734027   2.753   2.852   1.784 -2.7243  0.9267 -4.2443
  106MOL   H21834028   2.506   2.816   1.949  0.8568  2.7225 -0.3063
  106MOL   H21934029   2.378   2.614   1.826  0.5393  0.6297  0.6082
  106MOL   H22034030   2.167   2.755   1.785  0.0258 -2.2153  0.3967
  106MOL   H22134031   2.264   2.889   1.744  1.1968 -0.5870  0.4436
  106MOL   H22234032   2.293   2.818   1.897 -0.3522 -0.0936  0.4668
  106MOL   H22334033   2.401   2.711   1.536  1.5440  0.4762  1.3869
  106MOL   H22434034   2.263   2.600   1.579  0.5997 -0.5293 -0.7733
  106MOL   H22534035   2.432   2.554   1.580 -0.9808 -2.1630  1.4299
  106MOL   C22634036   2.637   2.647   1.894 -0.1375  0.7748 -0.5997
  106MOL   C22734037   2.665   2.617   2.041 -0.1896 -0.7753 -0.4363
  106MOL   O22834038   2.793   2.673   2.078  0.1895  0.2217  0.0883
  106MOL   C22934039   2.810   2.715   2.212  0.1163  0.1110 -0.3363
  106MOL   C23034040   2.788   2.865   2.215 -0.1159 -0.1949 -0.3599
  106MOL   C23134041   2.952   2.674   2.252  0.4293 -0.0476  0.5309
  106MOL   H23234042   2.728   2.637   1.835 -0.1349 -2.4025 -0.1610
  106MOL   H23334043   2.578   2.565   1.853  0.4279  0.1073 -0.0834
  106MOL   H23434044   2.584   2.645   2.108  1.6101  0.3504  1.3018
  106MOL   H23534045   2.737   2.667   2.276  1.1853 -0.6754  0.3193
  106MOL   H23634046   2.799   2.900   2.318  0.3648  0.1028 -0.5125
  106MOL   H23734047   2.858   2.918   2.151 -1.1080  3.0963  1.1708
  106MOL   H23834048   2.687   2.896   2.188 -0.4656 -0.3162  0.7780
  106MOL   H23934049   2.970   2.693   2.358 -0.0154 -0.4950  0.6907
  106MOL   H24034050   3.028   2.731   2.199  0.7841 -1.5621 -0.5893
  106MOL   H24134051   2.966   2.568   2.231 -1.1630 -0.7504  2.7525
  106MOL   C24234052   2.683   2.467   2.056 -0.4878 -0.1449 -0.6313
  106MOL   C24334053   2.560   2.372   2.037 -0.0839 -0.4730 -0.4855
  106MOL   O24434054   2.527   2.345   1.898  0.3557 -0.3987  0.0911
  106MOL   C24534055   2.581   2.231   1.825 -0.1735  0.7788  0.0697
  106MOL   C24634056   2.531   2.242   1.684 -0.5454 -0.0375 -0.3529
  106MOL   C24734057   2.734   2.227   1.819  1.1603 -0.0563 -0.2813
  106MOL   H24834058   2.756   2.439   1.980 -1.6550 -0.6539 -1.5811
  106MOL   H24934059   2.726   2.448   2.155 -1.6426  3.0665  0.5629
  106MOL   H25034060   2.590   2.278   2.083 -0.6102  0.7238  2.4043
  106MOL   H25134061   2.540   2.145   1.880 -0.0638  0.7497  0.1054
  106MOL   H25234062   2.424   2.239   1.664 -0.4665  1.9918 -1.2644
  106MOL   H25334063   2.563   2.331   1.629  1.1185 -1.6972 -2.1554
  106MOL   H25434064   2.587   2.177   1.617 -0.3240 -2.1498  1.8245
  106MOL   H25534065   2.754   2.318   1.762 -0.7993  1.2791  1.1217
  106MOL   H25634066   2.774   2.233   1.920 -2.1500 -2.6365  1.2822
  106MOL   H25734067   2.787   2.143   1.773  0.9395 -0.6831  0.6040
  106MOL   C25834068   2.438   2.405   2.130  0.3298  0.6127  0.7776
  106MOL   C25934069   2.319   2.308   2.125  0.3821  0.2621  0.0421
  106MOL   O26034070   2.368   2.174   2.145 -0.4500  0.4867 -0.0831
  106MOL   C26134071   2.392   2.142   2.279  0.5855  0.5051 -0.1257
  106MOL   C26234072   2.263   2.109   2.356  0.6922 -0.2063  0.3042
  106MOL   C26334073   2.498   2.031   2.284  0.0102 -0.3027  0.0642
  106MOL   H26434074   2.459   2.420   2.236 -1.9793  0.5378  1.2661
  106MOL   H26534075   2.402   2.501   2.094  0.7839  0.7963  0.8126
  106MOL   H26634076   2.254   2.347   2.203  0.6289  0.2379  0.2577
  106MOL   H26734077   2.435   2.224   2.336  1.0589  0.4405 -0.3863
  106MOL   H26834078   2.297   2.042   2.435 -0.8752 -0.6432  0.6280
  106MOL   H26934079   2.192   2.055   2.293 -2.1354  0.3063  2.9487
  106MOL   H27034080   2.217   2.193   2.409  0.3552 -1.0646  1.3807
  106MOL   H27134081   2.588   2.066   2.233 -2.3322  1.7390 -2.8733
  106MOL   H27234082   2.517   2.009   2.389 -1.6409  0.0404  0.4431
  106MOL   H27334083   2.466   1.940   2.233 -2.2924  0.5857 -0.1276
  106MOL   C27434084   2.251   2.306   1.986 -0.0950 -0.2372  0.1365
  106MOL   C27534085   2.109   2.242   1.993 -0.1690  0.3783 -0.0081
  106MOL   O27634086   2.018   2.340   2.049  0.6079 -0.7264  0.0669
  106MOL   C27734087   1.885   2.299   2.084  0.0373  0.3208 -0.0528
  106MOL   C27834088   1.792   2.420   2.127 -0.0630 -0.0738 -0.1172
  106MOL   C27934089   1.887   2.205   2.204  0.3085 -0.3984 -0.3486
  106MOL   H28034090   2.236   2.410   1.956  1.9864  0.2435  0.7035
  106MOL   H28134091   2.310   2.252   1.912  2.4720  1.5640  0.7809
  106MOL   H28234092   2.119   2.155   2.058  0.6561 -0.9475 -1.8502
  106MOL   H28334093   1.838   2.247   2.001 -0.3022 -1.2280  1.0865
  106MOL   H28434094   1.782   2.495   2.048 -1.7745  0.5722  0.7033
  106MOL   H28534095   1.696   2.396   2.171 -0.0771  1.6648  0.8219
  106MOL   H28634096   1.836   2.466   2.215  0.2010 -1.2567  0.3792
  106MOL   H28734097   1.944   2.241   2.289 -2.1065  1.4009  0.5555
  106MOL   H28834098   1.928   2.106   2.184 -1.3356 -1.3330  0.7563
  106MOL   H28934099   1.788   2.198   2.249  1.6254 -0.4796  2.6158
  106MOL   C29034100   2.071   2.191   1.853  0.8134  0.0230 -0.2309
  106MOL   C29134101   2.063   2.302   1.740 -0.2221  0.2189 -0.1053
  106MOL   O29234102   2.006   2.231   1.633  0.2420  0.1582  0.4124
  106MOL   C29334103   2.092   2.212   1.517  0.6423 -0.0916  0.9688
  106MOL   C29434104   2.078   2.319   1.412 -0.3570 -0.0304 -0.0546
  106MOL   C29534105   2.060   2.075   1.458  0.1607  0.4711 -0.6623
  106MOL   H29634106   1.976   2.139   1.869 -0.1013  1.1564 -1.9019
  106MOL   H29734107   2.130   2.104   1.824 -1.2446 -1.3588 -0.3489
  106MOL   H29834108   2.165   2.328   1.713 -0.6611 -0.7629 -2.8664
  106MOL   H29934109   2.199   2.211   1.538  0.5532  0.1226  1.4445
  106MOL   H30034110   1.973   2.329   1.383 -0.7649 -0.4825  1.2098
  106MOL   H30134111   2.106   2.422   1.432  1.0890 -0.4452  0.0703
  106MOL   H30234112   2.129   2.291   1.320  0.7568  0.4253  0.4171
  106MOL   H30334113   2.140   2.051   1.389 -0.2502  0.8386 -1.2659
  106MOL   H30434114   2.048   2.004   1.541  1.8655 -0.1532 -0.9423
  106MOL   H30534115   1.961   2.064   1.414 -0.2176  1.8772 -0.2021
  106MOL   C30634116   1.972   2.418   1.787 -0.5155 -0.5122 -0.3528
  106MOL   C30734117   1.950   2.510   1.670 -0.4721 -0.1045 -0.1377
  106MOL   O30834118   1.886   2.630   1.717  0.1011 -0.3229  0.7956
  106MOL   C30934119   1.838   2.716   1.617 -0.2896  0.1673  0.3780
  106MOL   C31034120   1.741   2.813   1.683  0.2291  0.1779 -0.1980
  106MOL   C31134121   1.943   2.795   1.545  0.0864 -0.2031  0.5378
  106MOL   H31234122   2.024   2.480   1.860 -1.0598 -0.5287  0.0509
  106MOL   H31334123   1.880   2.378   1.830 -0.4246  0.3163  0.6328
  106MOL   H31434124   2.035   2.543   1.611  0.2010 -0.6601  0.5054
  106MOL   H31534125   1.800   2.655   1.534  2.1264  1.7045 -1.9359
  106MOL   H31634126   1.653   2.768   1.728  0.9451  0.9383  2.0317
  106MOL   H31734127   1.702   2.877   1.604  0.9818  0.2213 -0.5467
  106MOL   H31834128   1.807   2.869   1.750  0.9163 -4.4998  3.2913
  106MOL   H31934129   1.989   2.858   1.620  0.2725  2.8271 -2.0098
  106MOL   H32034130   1.896   2.854   1.467  0.9003 -1.5014 -0.9818
  106MOL   H32134131   2.024   2.735   1.502  1.5053  0.8300  1.7311
  106MOL   H32234132   1.875   2.464   1.606 -1.9908  2.2104 -0.0648
  107MOL     C134133   0.082   0.032   2.126 -0.3542  0.1843  0.3165
  107MOL     C234134   0.022   0.083   2.258 -0.5516 -0.2750  0.1467
  107MOL     O334135   0.043   7.804   2.360 -0.0802 -0.3213  0.6439
  107MOL     C434136   7.763   7.701   2.368  0.3700 -0.2026  0.2765
  107MOL     C534137   7.684   7.730   2.491 -1.1185 -0.4423  0.7356
  107MOL     C634138   0.019   7.568   2.369 -0.1486 -0.7896  0.1233
  107MOL     H734139   0.090   0.111   2.051  1.2859  0.3015  0.6043
  107MOL     H834140   0.176   7.800   2.139 -0.9321 -0.9055  0.1493
  107MOL     H934141   7.738   0.107   2.238 -0.5127 -0.5661 -0.4239
  107MOL    H1034142   7.690   7.691   2.288  1.2170  0.9653 -0.6596
  107MOL    H1134143   7.616   7.813   2.473  1.6833  1.9779  0.9892
  107MOL    H1234144   7.619   7.646   2.518  0.6689 -1.2325  2.6713
  107MOL    H1334145   7.750   7.744   2.576  0.0583  2.7277 -0.6222
  107MOL    H1434146   0.069   7.556   2.465 -0.5122 -0.2043  0.3877
  107MOL    H1534147   7.778   7.478   2.367  0.0534 -0.9478  0.8860
  107MOL    H1634148   0.101   7.551   2.299 -1.7039 -4.2049 -0.9697
  107MOL    H1734149   0.014   7.773   2.093  1.0972 -1.1072  0.3933
  107MOL    C1834150   0.101   0.208   2.307  0.5065  0.2061 -0.2144
  107MOL    C1934151   0.037   0.302   2.414  0.5265  0.1838  0.2372
  107MOL    O2034152   0.106   0.421   2.405 -0.1931  0.0866  0.3691
  107MOL    C2134153   0.063   0.519   2.306  0.6015 -0.6918  0.4292
  107MOL    C2234154   0.182   0.605   2.272 -0.3484  0.4593 -1.1254
  107MOL    C2334155   7.776   0.599   2.375  0.1392 -0.3759 -0.6534
  107MOL    H2434156   0.203   0.177   2.327  1.0883  1.7352 -0.7474
  107MOL    H2534157   0.110   0.265   2.214  0.5115  0.8702  0.1897
  107MOL    H2634158   7.753   0.311   2.382  0.7391  0.5702 -0.3457
  107MOL    H2734159   0.031   0.470   2.214  1.3479  1.1644 -0.8600
  107MOL    H2834160   0.213   0.661   2.361 -0.8053 -2.3733  0.9004
  107MOL    H2934161   0.265   0.541   2.241  0.3879  0.3765  0.8947
  107MOL    H3034162   0.165   0.672   2.188  1.4409  0.8756 -1.1907
  107MOL    H3134163   7.702   0.531   2.416 -1.6011  1.2816 -0.9393
  107MOL    H3234164   7.725   0.680   2.323  1.5044 -0.0862 -1.5731
  107MOL    H3334165   0.006   0.652   2.456  1.5236 -0.3893 -1.5044
  107MOL    C3434166   0.048   0.247   2.555 -0.1999 -0.1386  0.4106
  107MOL    C3534167   7.800   0.331   2.666  0.0410 -0.6604 -0.3806
  107MOL    O3634168   7.660   0.294   2.664 -0.6938  0.1473 -0.0651
  107MOL    C3734169   7.578   0.394   2.734 -0.6105  0.1497  0.2172
  107MOL    C3834170   7.569   0.535   2.668 -0.1803 -0.2716  0.5092
  107MOL    C3934171   7.434   0.327   2.732  0.6923 -0.2798  0.8381
  107MOL    H4034172   0.153   0.259   2.583  0.0071 -2.2573  0.6595
  107MOL    H4134173   0.017   0.142   2.558  0.6241 -0.5460 -3.1023
  107MOL    H4234174   7.815   0.437   2.647  1.9110 -0.7804  0.3133
  107MOL    H4334175   7.603   0.398   2.841  0.2550  0.1693  0.0179
  107MOL    H4434176   7.505   0.607   2.721  2.6347  2.4511  0.3265
  107MOL    H4534177   7.540   0.528   2.563  2.6509 -0.0975 -0.3114
  107MOL    H4634178   7.665   0.583   2.655 -0.6507 -0.3205 -3.5889
  107MOL    H4734179   7.359   0.387   2.783 -2.5857 -3.9640  0.5799
  107MOL    H4834180   7.411   0.308   2.627 -0.2268  1.4673  0.7094
  107MOL    H4934181   7.435   0.235   2.790 -0.2460 -0.9869 -0.2500
  107MOL    C5034182   0.036   0.299   2.802  0.1536 -0.1416  0.3129
  107MOL    C5134183   0.136   0.403   2.864  0.0726 -0.2936  0.3625
  107MOL    O5234184   0.093   0.540   2.867 -0.1415  0.3199  0.7388
  107MOL    C5334185   0.035   0.590   2.982 -0.1604  0.6603 -0.0234
  107MOL    C5434186   0.030   0.740   2.974 -0.8415  0.4655  0.4728
  107MOL    C5534187   0.106   0.547   3.108  0.3167 -0.6118 -0.4634
  107MOL    H5634188   7.784   0.303   2.883  1.0331  1.0116  1.0575
  107MOL    H5734189   0.079   0.199   2.801  0.9521  0.2102 -1.1447
  107MOL    H5834190   0.169   0.362   2.959  0.4364 -2.0901 -0.5090
  107MOL    H5934191   7.749   0.566   2.988  0.3164 -1.3886  0.4557
  107MOL    H6034192   7.795   0.779   3.060 -0.2193 -1.5942  1.8598
  107MOL    H6134193   7.806   0.785   2.885  0.9163  3.5133  1.0614
  107MOL    H6234194   0.125   0.795   2.977 -0.1314 -0.5121 -2.4375
  107MOL    H6334195   0.213   0.561   3.095  0.5711 -3.4622 -1.5926
  107MOL    H6434196   0.091   0.441   3.127  0.1950 -0.4661  0.2530
  107MOL    H6534197   0.072   0.609   3.191 -2.5035 -0.7624 -1.4282
  107MOL    C6634198   0.262   0.418   2.774 -0.0898 -0.5887  0.2282
  107MOL    C6734199   0.370   0.519   2.829  0.2351 -0.8749  0.6678
  107MOL    O6834200   0.445   0.567   2.717  0.2166  0.0287 -0.3301
  107MOL    C6934201   0.386   0.678   2.648 -0.1806  0.1579  0.2151
  107MOL    C7034202   0.408   0.809   2.724 -0.2615 -0.0017  1.1512
  107MOL    C7134203   0.465   0.690   2.515 -0.1666 -0.8513  0.0124
  107MOL    H7234204   0.299   0.316   2.760 -1.1188 -0.7890 -1.1016
  107MOL    H7334205   0.236   0.448   2.672  3.1707 -2.1123 -1.1303
  107MOL    H7434206   0.327   0.602   2.884  2.0820  1.6006 -1.5256
  107MOL    H7534207   0.279   0.669   2.635 -0.3250 -1.3733  2.1722
  107MOL    H7634208   0.350   0.815   2.816  1.7583 -1.2033  2.5586
  107MOL    H7734209   0.510   0.818   2.763  0.4688 -1.9049 -0.2056
  107MOL    H7834210   0.379   0.897   2.668  0.2035 -1.7856 -1.9738
  107MOL    H7934211   0.430   0.778   2.460  0.2088 -0.4628  0.3992
  107MOL    H8034212   0.441   0.603   2.453  1.7893 -1.0283 -0.5044
  107MOL    H8134213   0.573   0.685   2.521 -0.1679 -2.4011 -0.7470
  107MOL    C8234214   0.461   0.444   2.921  0.0394  0.6198 -0.4972
  107MOL    C8334215   0.555   0.528   3.006  0.5723 -0.0906 -0.3319
  107MOL    O8434216   0.462   0.604   3.087 -0.0760  0.0773 -0.2608
  107MOL    C8534217   0.512   0.709   3.178 -0.0914 -0.0315  0.1208
  107MOL    C8634218   0.391   0.776   3.248 -0.2694 -0.4644 -0.3180
  107MOL    C8734219   0.596   0.821   3.108  0.3583  0.0411  0.3719
  107MOL    H8834220   0.406   0.384   2.994  0.8839  1.1591  0.5934
  107MOL    H8934221   0.515   0.369   2.863  0.2695  0.3251  0.0924
  107MOL    H9034222   0.613   0.584   2.932  0.2913  0.8010  0.1154
  107MOL    H9134223   0.570   0.664   3.259  1.7890  0.5369 -0.8957
  107MOL    H9234224   0.343   0.710   3.321 -1.4909 -0.0179 -0.6934
  107MOL    H9334225   0.426   0.862   3.305 -0.3723  0.0717 -1.0658
  107MOL    H9434226   0.323   0.827   3.180 -0.1891  1.6947  1.1715
  107MOL    H9534227   0.668   0.784   3.035 -0.5237 -0.9158 -0.0237
  107MOL    H9634228   0.538   0.891   3.049 -0.5834 -0.2720  0.9189
  107MOL    H9734229   0.650   0.888   3.175  1.0557  1.2924 -1.4101
  107MOL    C9834230   0.656   0.459   3.097  0.5719  0.6545 -0.0641
  107MOL    C9934231   0.752   0.354   3.028 -0.0689  0.8869 -0.9200
  107MOL   O10034232   0.835   0.287   3.130 -0.2342  0.3221 -0.2549
  107MOL   C10134233   0.759   0.194   3.212  0.1399  0.0592 -0.1461
  107MOL   C10234234   0.799   0.207   3.359 -0.4473  0.0159  0.1887
  107MOL   C10334235   0.764   0.051   3.155 -0.3568 -0.0482 -0.3483
  107MOL   H10434236   0.713   0.527   3.159  0.5461 -0.0171  0.7021
  107MOL   H10534237   0.592   0.404   3.166  0.7411 -0.4725 -0.7806
  107MOL   H10634238   0.698   0.284   2.965 -1.8996  1.1684  0.2721
  107MOL   H10734239   0.653   0.217   3.210  0.2731  0.6964 -0.0353
  107MOL   H10834240   0.908   0.212   3.360 -0.1997 -3.4390 -0.6314
  107MOL   H10934241   0.753   0.128   3.419 -1.4790 -1.0952 -2.0220
  107MOL   H11034242   0.775   0.303   3.404 -0.6301  0.0378  0.0425
  107MOL   H11134243   0.862   0.005   3.161  0.2519  1.4184  1.4422
  107MOL   H11234244   0.719   0.044   3.056  1.3432  0.1391 -1.1555
  107MOL   H11334245   0.702   7.807   3.216  0.1209  0.4429  0.6647
  107MOL   C11434246   0.850   0.430   2.940 -0.7095  0.4703  0.2047
  107MOL   C11534247   0.907   0.335   2.832 -0.2263 -0.7744 -0.1291
  107MOL   O11634248   0.860   0.387   2.707  0.1654  0.1375  0.2959
  107MOL   C11734249   0.737   0.345   2.650  0.0881  0.9256  0.7694
  107MOL   C11834250   0.762   0.220   2.569 -0.5127 -0.3958 -0.4085
  107MOL   C11934251   0.706   0.460   2.560 -0.0786 -0.0692  0.5707
  107MOL   H12034252   0.933   0.461   3.004 -2.3144  1.6819  1.7572
  107MOL   H12134253   0.814   0.521   2.893  0.5940  0.1456 -1.4612
  107MOL   H12234254   0.866   0.234   2.829  1.6107 -1.5196 -0.8921
  107MOL   H12334255   0.658   0.327   2.723 -2.1209  0.0015 -1.7674
  107MOL   H12434256   0.675   0.182   2.515 -0.9667 -0.2619  0.2184
  107MOL   H12534257   0.801   0.145   2.637  0.9132  1.2911  0.6903
  107MOL   H12634258   0.845   0.245   2.504 -2.5287  2.8002 -1.8725
  107MOL   H12734259   0.777   0.475   2.480  0.4311  0.1239  1.0547
  107MOL   H12834260   0.697   0.555   2.613 -1.7550  0.3316 -0.4057
  107MOL   H12934261   0.606   0.436   2.523  0.4386  0.1967 -1.0193
  107MOL   C13034262   1.063   0.313   2.849 -0.5367 -0.1247  0.4504
  107MOL   C13134263   1.105   0.189   2.761 -0.2944 -0.0161 -0.2626
  107MOL   O13234264   1.238   0.137   2.806 -0.0757 -0.2356 -0.2888
  107MOL   C13334265   1.230   0.025   2.889  0.1458 -0.5795  0.3036
  107MOL   C13434266   1.245   7.720   2.801 -0.1566  0.0117 -0.2178
  107MOL   C13534267   1.335   0.035   3.003  0.2209  0.7515 -0.3438
  107MOL   H13634268   1.080   0.287   2.953 -0.2579  0.2979  0.5123
  107MOL   H13734269   1.115   0.409   2.836 -1.4241  0.6967  2.7802
  107MOL   H13834270   1.031   0.109   2.770 -1.9325  1.3252 -1.2960
  107MOL   H13934271   1.136   0.026   2.944  0.9188 -2.0349  1.6706
  107MOL   H14034272   1.226   7.625   2.851  0.2729 -0.0482 -0.1647
  107MOL   H14134273   1.345   7.726   2.759  1.0513  1.2933  2.7396
  107MOL   H14234274   1.172   7.728   2.720  0.5203 -1.2994 -0.9751
  107MOL   H14334275   1.434   0.059   2.965 -0.1530  4.2039  0.6776
  107MOL   H14434276   1.305   0.103   3.082  0.5411  0.4595  0.0258
  107MOL   H14534277   1.349   7.756   3.046 -1.7600  0.5693 -0.0642
  107MOL   C14634278   1.121   0.225   2.611  0.2833  0.0569 -0.0196
  107MOL   C14734279   1.145   0.120   2.500 -0.2866 -1.0704  0.3009
  107MOL   O14834280   1.018   0.066   2.470 -0.4154  0.2243 -0.1760
  107MOL   C14934281   1.017   7.751   2.406  0.0382 -0.2727 -0.4712
  107MOL   C15034282   0.917   7.757   2.286 -0.0907 -0.3769  0.1401
  107MOL   C15134283   0.979   7.645   2.508 -0.3463 -0.2062 -0.2662
  107MOL   H15234284   1.215   0.280   2.612  1.8779 -2.6172  0.7410
  107MOL   H15334285   1.044   0.293   2.574 -1.0010 -1.3890 -0.0187
  107MOL   H15434286   1.215   0.044   2.535  1.8002  1.0617  0.8745
  107MOL   H15534287   1.116   7.727   2.367  0.4153  0.2990  0.1329
  107MOL   H15634288   0.901   7.656   2.250 -0.4338 -0.0399 -0.6843
  107MOL   H15734289   0.949   7.812   2.197  2.4079 -2.3927 -0.2501
  107MOL   H15834290   0.822   7.805   2.307 -0.2523 -1.0755  1.0098
  107MOL   H15934291   0.944   7.566   2.441  0.3758 -0.4580 -0.3463
  107MOL   H16034292   0.902   7.681   2.576  1.4533  1.5116  0.9118
  107MOL   H16134293   1.062   7.603   2.566 -2.3303 -2.3112  1.1808
  107MOL   C16234294   1.199   0.193   2.378 -0.4073  0.1687 -0.1444
  107MOL   C16334295   1.347   0.187   2.349 -0.4090  0.4437 -0.3713
  107MOL   O16434296   1.374   0.049   2.323 -0.2315  0.0620  0.3970
  107MOL   C16534297   1.455   7.795   2.420 -0.6405  0.1366  0.2722
  107MOL   C16634298   1.599   7.802   2.363 -0.1488  0.1208  0.1330
  107MOL   C16734299   1.397   7.656   2.436  0.3043 -0.6358 -0.1957
  107MOL   H16834300   1.156   0.145   2.290  1.0763 -0.6127 -0.4652
  107MOL   H16934301   1.176   0.300   2.380 -2.9663 -0.3379 -0.7390
  107MOL   H17034302   1.408   0.227   2.431 -1.3183  2.2780 -0.5652
  107MOL   H17134303   1.459   0.027   2.516  2.8089 -0.9609  0.7828
  107MOL   H17234304   1.599   7.765   2.261 -2.5777  0.0298  0.1506
  107MOL   H17334305   1.659   7.734   2.424  0.9382  1.1419  0.2185
  107MOL   H17434306   1.656   0.075   2.365  1.2704 -0.7243  0.1651
  107MOL   H17534307   1.426   7.604   2.345  0.2478 -1.4797  0.2648
  107MOL   H17634308   1.289   7.656   2.444  0.4434 -1.7977  2.0590
  107MOL   H17734309   1.445   7.617   2.526 -0.6591  2.4151  1.7372
  107MOL   C17834310   1.390   0.276   2.226  0.0310 -0.7730  0.8638
  107MOL   C17934311   1.539   0.332   2.228  0.7212  0.2742 -0.2029
  107MOL   O18034312   1.559   0.377   2.092  0.1589  0.5791  0.1132
  107MOL   C18134313   1.691   0.359   2.048 -0.2920 -0.0640 -0.4873
  107MOL   C18234314   1.707   0.478   1.949 -0.3426  0.3816 -0.1675
  107MOL   C18334315   1.704   0.229   1.972  0.3036 -0.7525 -0.7047
  107MOL   H18434316   1.313   0.353   2.216 -1.0310 -1.7471  1.4146
  107MOL   H18534317   1.382   0.221   2.133 -0.1958  4.4460 -2.4213
  107MOL   H18634318   1.610   0.250   2.232 -0.2826 -0.6760 -1.5260
  107MOL   H18734319   1.766   0.362   2.126  0.6998  1.4514 -1.4755
  107MOL   H18834320   1.710   0.561   2.020 -0.1058  0.5669 -0.3928
  107MOL   H18934321   1.626   0.500   1.879 -0.6027  1.8178  0.5626
  107MOL   H19034322   1.803   0.473   1.898 -0.2225 -0.2113  0.1224
  107MOL   H19134323   1.685   0.146   2.039  0.6968  0.4553  0.9323
  107MOL   H19234324   1.787   0.211   1.904  0.7295  0.2016 -0.4489
  107MOL   H19334325   1.629   0.218   1.893  2.0636 -1.7451 -2.2690
  107MOL   C19434326   1.570   0.442   2.332  0.0171  0.0432  0.0379
  107MOL   C19534327   1.636   0.388   2.464  0.0402  0.5834  0.5252
  107MOL   O19634328   1.617   0.480   2.566  0.5230  0.1951 -0.4392
  107MOL   C19734329   1.501   0.443   2.646 -0.1320 -0.2044  0.7170
  107MOL   C19834330   1.522   0.322   2.738  0.2378  0.0866 -0.3592
  107MOL   C19934331   1.469   0.570   2.732 -0.7110  0.2815  0.6815
  107MOL   H20034332   1.641   0.516   2.295  0.6471  0.2597  1.6174
  107MOL   H20134333   1.483   0.499   2.365  0.2136  0.6442 -0.4736
  107MOL   H20234334   1.591   0.294   2.497  1.5153  0.0386  1.0482
  107MOL   H20334335   1.418   0.402   2.589 -0.6836  0.5734  0.9533
  107MOL   H20434336   1.614   0.332   2.795 -0.5171  1.5064  0.6281
  107MOL   H20534337   1.440   0.322   2.810 -1.1673 -4.8433 -1.7144
  107MOL   H20634338   1.525   0.217   2.706 -0.2696  0.4641 -1.6974
  107MOL   H20734339   1.370   0.555   2.777 -2.3506  2.8735 -1.9454
  107MOL   H20834340   1.543   0.584   2.810 -0.2495 -1.1319  0.5166
  107MOL   H20934341   1.468   0.665   2.680  1.8374 -0.3226 -0.5615
  107MOL   C21034342   1.782   0.365   2.442 -0.3208  0.1598  1.2732
  107MOL   C21134343   1.863   0.304   2.561  0.2068 -0.6072  0.3771
  107MOL   O21234344   1.801   0.179   2.590 -0.0656 -0.6448  0.0428
  107MOL   C21334345   1.862   0.099   2.696  0.5728  0.0640  0.2711
  107MOL   C21434346   1.859   0.168   2.833 -0.3313 -0.2158  0.2744
  107MOL   C21534347   1.769   7.799   2.710  0.7322 -0.1371  0.0260
  107MOL   H21634348   1.822   0.465   2.425  1.1082 -0.5276  0.5257
  107MOL   H21734349   1.800   0.317   2.346  0.1057  0.8952  0.9834
  107MOL   H21834350   1.860   0.365   2.651  0.1100  0.1253 -0.1175
  107MOL   H21934351   1.962   0.068   2.667  0.6124  0.3950  0.0566
  107MOL   H22034352   1.757   0.183   2.870  0.5220 -0.7702  2.9129
  107MOL   H22134353   1.928   0.252   2.842  1.1280 -1.4135  0.4621
  107MOL   H22234354   1.904   0.090   2.895 -1.5112 -0.6704  0.5902
  107MOL   H22334355   1.754   7.745   2.616 -0.1948 -0.6017  0.4406
  107MOL   H22434356   1.671   0.012   2.744  1.5040 -1.0075  3.2557
  107MOL   H22534357   1.801   7.717   2.773 -0.2386  0.3903  1.2337
  107MOL   C22634358   2.013   0.287   2.526  0.0710  0.5276  0.3662
  107MOL   C22734359   2.090   0.423   2.493 -0.4433 -0.0822  1.0671
  107MOL   O22834360   2.052   0.452   2.353  0.1830  0.2132 -0.3616
  107MOL   C22934361   2.072   0.585   2.294 -0.0301  0.2812 -0.1851
  107MOL   C23034362   2.040   0.707   2.387  0.2221  0.3115  0.7609
  107MOL   C23134363   1.980   0.588   2.174  0.0746  0.1930 -0.0765
  107MOL   H23234364   2.029   0.208   2.453 -3.5613  1.2027 -1.2894
  107MOL   H23334365   2.066   0.237   2.607  5.1246  2.2270 -1.6663
  107MOL   H23434366   2.054   0.505   2.555 -0.7018  0.5800  0.0635
  107MOL   H23534367   2.177   0.581   2.264 -0.4572 -0.8429 -1.5955
  107MOL   H23634368   1.944   0.700   2.439 -1.1226  2.8461 -1.2087
  107MOL   H23734369   2.111   0.706   2.470 -0.6286  0.7808  1.5126
  107MOL   H23834370   2.058   0.804   2.341  0.9994  0.9302  2.3170
  107MOL   H23934371   1.989   0.494   2.119 -0.9204  0.3788 -0.5663
  107MOL   H24034372   2.003   0.668   2.102  1.7446  0.9844  1.3006
  107MOL   H24134373   1.876   0.596   2.203  0.4530 -2.3117  2.1404
  107MOL   C24234374   2.241   0.403   2.499 -0.9505 -0.1947 -0.2827
  107MOL   C24334375   2.299   0.444   2.643 -0.1544  1.1318  0.4068
  107MOL   O24434376   2.232   0.361   2.744 -0.0374 -0.1575  0.1994
  107MOL   C24534377   2.284   0.353   2.879  0.3211  0.4772  0.4230
  107MOL   C24634378   2.189   0.278   2.971  0.1597  0.0797  0.1394
  107MOL   C24734379   2.425   0.272   2.871  0.2134  0.6784 -0.4726
  107MOL   H24834380   2.279   0.302   2.484  3.1125  1.0151  0.9619
  107MOL   H24934381   2.290   0.468   2.427 -1.7574  1.1823  0.3888
  107MOL   H25034382   2.404   0.415   2.645 -0.1687  1.0803  0.4160
  107MOL   H25134383   2.315   0.454   2.906  0.1797  0.1526  1.8148
  107MOL   H25234384   2.229   0.271   3.072 -1.7951  0.2331  0.9556
  107MOL   H25334385   2.094   0.331   2.985 -0.0874 -0.3313  0.0249
  107MOL   H25434386   2.163   0.175   2.946  2.1909 -0.8257  1.6727
  107MOL   H25534387   2.465   0.260   2.972 -1.8499  1.2573  0.4376
  107MOL   H25634388   2.399   0.171   2.841  3.5594  0.7423 -4.0865
  107MOL   H25734389   2.499   0.315   2.802  1.0290 -1.7340 -1.1369
  107MOL   C25834390   2.298   0.589   2.673  0.5926 -0.0962 -0.3315
  107MOL   C25934391   2.426   0.648   2.738 -0.7600  0.2778 -0.0475
  107MOL   O26034392   2.398   0.771   2.801 -0.0392 -0.9439 -0.0179
  107MOL   C26134393   2.326   0.778   2.929 -0.5233  0.0219  1.0227
  107MOL   C26234394   2.421   0.745   3.051  0.8154  0.4947 -1.4213
  107MOL   C26334395   2.265   0.924   2.941 -0.0366  0.3571  0.5439
  107MOL   H26434396   2.274   0.654   2.589  2.6668  0.7655 -0.2862
  107MOL   H26534397   2.222   0.610   2.748  1.8033  0.3303  0.8133
  107MOL   H26634398   2.474   0.584   2.813  0.6053  1.1951 -0.1128
  107MOL   H26734399   2.245   0.707   2.918  0.9372 -1.3523 -1.2884
  107MOL   H26834400   2.383   0.758   3.152  1.5562  1.2971 -1.2412
  107MOL   H26934401   2.506   0.812   3.044  3.4018 -2.5872 -0.6642
  107MOL   H27034402   2.458   0.643   3.045  1.6921  0.7850 -0.9588
  107MOL   H27134403   2.349   0.994   2.942  2.2086 -2.1464 -2.9867
  107MOL   H27234404   2.187   0.951   2.870  3.0852  3.6820 -1.8456
  107MOL   H27334405   2.214   0.938   3.036 -2.2063  0.8752 -0.6724
  107MOL   C27434406   2.533   0.685   2.631 -0.2211  0.1723  0.3858
  107MOL   C27534407   2.665   0.736   2.692 -0.6241  0.5976  0.8207
  107MOL   O27634408   2.741   0.621   2.726 -0.1664  0.4137 -0.3576
  107MOL   C27734409   2.837   0.621   2.825  0.1620 -0.5892 -0.2110
  107MOL   C27834410   2.959   0.535   2.773  0.1600 -0.6983 -0.3547
  107MOL   C27934411   2.775   0.558   2.958  0.4402  1.0356 -0.3223
  107MOL   H28034412   2.557   0.602   2.565  0.0002 -0.3299  1.0881
  107MOL   H28134413   2.487   0.759   2.566 -1.0774 -1.1512 -0.5274
  107MOL   H28234414   2.648   0.785   2.787 -0.5710  0.7636  0.7451
  107MOL   H28334415   2.872   0.719   2.858  1.8054 -1.7535  1.6175
  107MOL   H28434416   2.931   0.430   2.761 -0.8406 -0.5327  0.5023
  107MOL   H28534417   2.989   0.568   2.673  0.3268  3.0059  0.8431
  107MOL   H28634418   3.043   0.535   2.842 -0.4205 -1.5582  0.3658
  107MOL   H28734419   2.854   0.536   3.030  0.4880 -1.1033 -0.9703
  107MOL   H28834420   2.726   0.462   2.940  1.1239  0.8689 -1.3807
  107MOL   H28934421   2.697   0.620   3.001  0.5064  0.8821  0.0191
  107MOL   C29034422   2.749   0.817   2.595 -0.5041 -0.0033  0.3944
  107MOL   C29134423   2.702   0.958   2.565  0.1417  0.0931 -0.0226
  107MOL   O29234424   2.746   1.037   2.674  0.3874  0.1236  0.4515
  107MOL   C29334425   2.658   1.147   2.714  0.7276  0.3756  0.0104
  107MOL   C29434426   2.740   1.256   2.780 -0.2434  0.4427  0.2553
  107MOL   C29534427   2.557   1.083   2.812  0.3737 -0.0671 -0.3594
  107MOL   H29634428   2.756   0.761   2.502 -0.0352  4.0539 -2.1449
  107MOL   H29734429   2.854   0.824   2.626 -0.2098 -0.1530 -0.5536
  107MOL   H29834430   2.594   0.954   2.554  0.3760 -0.5980 -2.3810
  107MOL   H29934431   2.598   1.192   2.635 -0.4618  0.9260  1.1942
  107MOL   H30034432   2.809   1.312   2.718  1.8109  0.7275  2.7046
  107MOL   H30134433   2.670   1.326   2.827  0.2444 -0.3756  2.2438
  107MOL   H30234434   2.793   1.211   2.863 -1.3272 -1.1276  0.1126
  107MOL   H30334435   2.505   0.994   2.778  0.3466  0.7483 -2.5339
  107MOL   H30434436   2.600   1.053   2.907 -2.4635 -1.8109  0.4241
  107MOL   H30534437   2.488   1.164   2.836  0.9214  0.0485  0.8825
  107MOL   C30634438   2.767   1.015   2.437  0.2042 -0.1608  0.5374
  107MOL   C30734439   2.728   0.955   2.300  0.9788  0.1433  0.1362
  107MOL   O30834440   2.588   0.927   2.302  0.4927 -0.3002  0.6142
  107MOL   C30934441   2.538   0.914   2.171  0.3469 -0.6452 -0.0926
  107MOL   C31034442   2.417   0.812   2.184  0.4226  0.4181 -0.3495
  107MOL   C31134443   2.483   1.049   2.128 -0.3061  0.2883  0.8026
  107MOL   H31234444   2.875   1.027   2.447  0.1827  0.9979 -0.5232
  107MOL   H31334445   2.738   1.120   2.435  0.6058 -0.0618 -0.3038
  107MOL   H31434446   2.772   1.010   2.217  0.5813  0.5221  0.1736
  107MOL   H31534447   2.605   0.877   2.094  0.5109 -1.9284  0.6485
  107MOL   H31634448   2.332   0.859   2.232  1.5654 -0.5279  2.7739
  107MOL   H31734449   2.450   0.726   2.243  1.0926 -0.1501 -1.5342
  107MOL   H31834450   2.392   0.779   2.083  0.9302  0.2602 -0.4287
  107MOL   H31934451   2.405   1.089   2.192  0.0006 -0.0682  1.4032
  107MOL   H32034452   2.455   1.061   2.024 -2.5135 -2.7776  0.9733
  107MOL   H32134453   2.559   1.123   2.153 -0.2693  0.4752  0.1590
  107MOL   H32234454   2.781   0.860   2.296 -0.0577 -0.4137 -0.6765
  108MOL     C134455   6.900   5.494   0.083  0.3911 -0.5608 -0.1863
  108MOL     C234456   6.808   5.563   0.184  0.7679  0.7645 -0.3708
  108MOL     O334457   6.788   5.479   0.300  0.1875 -0.0646 -0.3919
  108MOL     C434458   6.695   5.371   0.288  0.0411 -0.7313  0.1489
  108MOL     C534459   6.555   5.421   0.247 -0.1874 -0.2669  0.1934
  108MOL     C634460   6.695   5.290   0.416 -0.5812 -0.1227  0.7804
  108MOL     H734461   6.885   5.553   7.813  0.7242  2.0353  1.3715
  108MOL     H834462   7.003   5.478   0.117  0.0033 -0.0134  1.3150
  108MOL     H934463   6.709   5.576   0.141  0.4271  1.0974  0.4864
  108MOL    H1034464   6.729   5.299   0.214 -1.5873 -0.3239 -1.0124
  108MOL    H1134465   6.479   5.344   0.258 -0.7516  0.0595 -1.3609
  108MOL    H1234466   6.522   5.503   0.310 -0.7973  0.4125 -1.0076
  108MOL    H1334467   6.548   5.434   0.139  0.9569 -0.0364  0.1337
  108MOL    H1434468   6.617   5.215   0.425 -2.0084  0.9111 -2.2738
  108MOL    H1534469   6.788   5.234   0.419 -0.1822  0.4434 -0.6080
  108MOL    H1634470   6.680   5.353   0.504 -1.9352  0.2727  0.2807
  108MOL    H1734471   6.864   5.403   0.037  0.4951  0.0693 -1.5373
  108MOL    C1834472   6.855   5.700   0.222  0.2820 -0.3597 -0.0871
  108MOL    C1934473   6.749   5.783   0.301 -0.4800 -0.6183 -0.6020
  108MOL    O2034474   6.650   5.828   0.204  0.5726 -0.1812  0.7116
  108MOL    C2134475   6.523   5.887   0.243 -0.3208 -1.0716  0.0242
  108MOL    C2234476   6.410   5.824   0.156  0.5830  0.2775 -0.3743
  108MOL    C2334477   6.518   6.043   0.250  0.0703  0.6767 -0.3671
  108MOL    H2434478   6.949   5.681   0.274 -0.4155  0.8956  1.6674
  108MOL    H2534479   6.896   5.756   0.138  0.1343 -1.2895 -0.7840
  108MOL    H2634480   6.697   5.722   0.375  2.9858 -0.1551  2.3476
  108MOL    H2734481   6.514   5.850   0.345  1.2252 -1.2439  0.1175
  108MOL    H2834482   6.315   5.830   0.211  0.4700  0.5886 -0.6026
  108MOL    H2934483   6.386   5.874   0.062 -0.4839  0.5399  0.0303
  108MOL    H3034484   6.421   5.722   0.121  0.2166 -0.1421  0.7071
  108MOL    H3134485   6.472   6.083   0.160 -0.0112  2.3163  0.4020
  108MOL    H3234486   6.618   6.082   0.267 -0.1593  1.0704  0.0746
  108MOL    H3334487   6.447   6.068   0.329  1.5267  2.5167  0.3713
  108MOL    C3434488   6.815   5.897   0.374  0.7618 -0.0300 -0.2523
  108MOL    C3534489   6.746   5.944   0.509  0.4301  0.0426  0.8279
  108MOL    O3634490   6.751   5.829   0.602  0.0442 -0.6272  0.1819
  108MOL    C3734491   6.636   5.794   0.684 -0.2625 -0.2603 -0.2983
  108MOL    C3834492   6.672   5.661   0.751  0.0556  0.0827 -0.0184
  108MOL    C3934493   6.581   5.907   0.778  0.0971 -0.2663  0.0180
  108MOL    H4034494   6.818   5.978   0.302 -1.2070  1.8402  1.7062
  108MOL    H4134495   6.923   5.885   0.381  0.5935 -0.4360  2.1959
  108MOL    H4234496   6.640   5.964   0.495  0.0794 -1.7348  0.8793
  108MOL    H4334497   6.553   5.767   0.618 -0.6623 -0.7671  0.3980
  108MOL    H4434498   6.738   5.691   0.832  0.8403  2.5809 -1.5103
  108MOL    H4534499   6.727   5.604   0.676 -2.0014  0.7771 -2.1551
  108MOL    H4634500   6.578   5.617   0.782 -0.8756  0.6327 -1.9303
  108MOL    H4734501   6.489   5.865   0.817  0.3724 -1.5676 -0.7055
  108MOL    H4834502   6.651   5.922   0.861  0.0350  0.8322 -0.1120
  108MOL    H4934503   6.566   5.997   0.719  1.4501 -0.0528 -0.0350
  108MOL    C5034504   6.833   6.054   0.572 -0.5355 -0.2622  0.5136
  108MOL    C5134505   6.822   6.196   0.509 -0.1494 -0.2767  0.0398
  108MOL    O5234506   6.928   6.272   0.571  0.1424 -0.0621 -0.1997
  108MOL    C5334507   6.988   6.368   0.486  0.1630  0.1624  0.7510
  108MOL    C5434508   7.118   6.318   0.425 -0.5819  0.6447 -0.3173
  108MOL    C5534509   7.002   6.489   0.576 -0.2953  0.0311 -0.0305
  108MOL    H5634510   6.802   6.048   0.676  0.1872 -3.8233  0.5759
  108MOL    H5734511   6.935   6.018   0.562 -0.4871  0.3020 -1.1835
  108MOL    H5834512   6.814   6.170   0.404 -0.4258  2.8050 -0.7512
  108MOL    H5934513   6.916   6.385   0.406 -0.6279  1.0218  1.6426
  108MOL    H6034514   7.206   6.320   0.490 -0.8635  0.9735  0.0623
  108MOL    H6134515   7.149   6.378   0.339  0.7867  1.8247  0.9471
  108MOL    H6234516   7.107   6.214   0.398 -2.4747  1.0974 -1.3636
  108MOL    H6334517   6.909   6.519   0.624  0.2647 -1.2090  1.8841
  108MOL    H6434518   7.052   6.566   0.518  2.3755 -1.0355  0.7619
  108MOL    H6534519   7.076   6.479   0.656  0.4696  0.0576 -0.7319
  108MOL    C6634520   6.682   6.248   0.557  0.0039 -0.0404  0.0663
  108MOL    C6734521   6.633   6.376   0.493  0.3771  0.7539  0.2428
  108MOL    O6834522   6.504   6.411   0.555  0.3424  0.1089 -0.2550
  108MOL    C6934523   6.499   6.513   0.651  0.0456  0.2155 -0.1294
  108MOL    C7034524   6.348   6.541   0.658 -0.7255  0.0147  0.1766
  108MOL    C7134525   6.562   6.479   0.784 -0.0456  0.3941  0.2875
  108MOL    H7234526   6.613   6.167   0.533 -0.0483 -0.7497  2.4434
  108MOL    H7334527   6.671   6.242   0.665  0.2332 -0.3647  0.0734
  108MOL    H7434528   6.711   6.451   0.504  1.4091  0.0592 -2.0961
  108MOL    H7534529   6.554   6.592   0.600  0.1614  0.2813  0.0961
  108MOL    H7634530   6.298   6.455   0.702 -0.7303 -0.2291 -0.3034
  108MOL    H7734531   6.322   6.627   0.719  1.1497  0.2746  0.6458
  108MOL    H7834532   6.314   6.566   0.558  2.2393 -1.7314 -1.3301
  108MOL    H7934533   6.661   6.437   0.766 -0.4588  0.1721 -1.5319
  108MOL    H8034534   6.513   6.397   0.837  0.3948  0.0717  0.2002
  108MOL    H8134535   6.553   6.561   0.855 -0.9819 -0.1584  0.8085
  108MOL    C8234536   6.618   6.370   0.338  0.3038  0.2869  0.0125
  108MOL    C8334537   6.620   6.507   0.269  0.3613 -0.3656  0.2589
  108MOL    O8434538   6.750   6.558   0.281  0.2517  0.5036  0.1512
  108MOL    C8534539   6.769   6.692   0.253 -0.4109 -0.4922  0.4312
  108MOL    C8634540   6.909   6.722   0.207 -0.5566 -0.1123 -0.4176
  108MOL    C8734541   6.751   6.771   0.384 -0.5707  0.9096  0.9863
  108MOL    H8834542   6.688   6.301   0.290  0.1404  0.8713 -1.0838
  108MOL    H8934543   6.520   6.326   0.318  1.1357 -0.9338 -1.5162
  108MOL    H9034544   6.542   6.560   0.323  0.4426 -1.5021  1.5065
  108MOL    H9134545   6.692   6.737   0.191 -0.0112  1.6265  1.4231
  108MOL    H9234546   6.995   6.676   0.256 -1.6239 -0.7919  0.8606
  108MOL    H9334547   6.914   6.692   0.102 -1.6335 -0.8074 -0.2707
  108MOL    H9434548   6.929   6.829   0.214  1.9434 -0.4406 -1.9396
  108MOL    H9534549   6.781   6.875   0.385  0.2140  0.6863  0.8553
  108MOL    H9634550   6.649   6.754   0.419 -0.4531 -2.9161 -0.2964
  108MOL    H9734551   6.822   6.729   0.456  0.1674 -1.1103 -0.8400
  108MOL    C9834552   6.584   6.490   0.115 -0.3036  0.3755 -0.0388
  108MOL    C9934553   6.431   6.516   0.082  0.4378 -0.0643  0.2081
  108MOL   O10034554   6.411   6.470   7.765  0.8955 -0.0874 -0.5599
  108MOL   C10134555   6.375   6.336   7.746 -0.1248 -0.2699 -0.2700
  108MOL   C10234556   6.423   6.295   7.608 -0.5924 -0.0660 -0.0242
  108MOL   C10334557   6.222   6.319   7.752 -0.0901  0.1280 -0.1757
  108MOL   H10434558   6.655   6.546   0.053  1.1494 -1.6439 -0.2605
  108MOL   H10534559   6.606   6.388   0.084 -0.4051  0.8251 -1.6441
  108MOL   H10634560   6.363   6.469   0.152  0.8915  1.8424  1.9550
  108MOL   H10734561   6.429   6.269   7.813 -0.1238 -1.4947 -1.4884
  108MOL   H10834562   6.373   6.208   7.565 -0.9772 -1.5728  3.3491
  108MOL   H10934563   6.532   6.291   7.604 -0.5578  1.8610 -1.8446
  108MOL   H11034564   6.384   6.374   7.544 -1.3680 -1.8618 -1.8249
  108MOL   H11134565   6.193   6.214   7.761 -0.9716  0.4811  1.4433
  108MOL   H11234566   6.186   6.367   7.661  1.7606  0.9910 -0.4905
  108MOL   H11334567   6.180   6.357   0.025 -0.3089 -2.3551  0.7841
  108MOL   C11434568   6.406   6.667   0.077 -0.3783  0.0345  0.2689
  108MOL   C11534569   6.258   6.711   0.077 -0.1706  0.6474  0.2964
  108MOL   O11634570   6.245   6.851   0.107  0.1487 -0.5586 -0.3032
  108MOL   C11734571   6.266   6.903   0.233  0.7644 -0.6382 -0.5994
  108MOL   C11834572   6.141   6.955   0.311 -0.0904 -0.6334  0.0590
  108MOL   C11934573   6.360   7.022   0.214 -0.3128 -0.5168 -0.2449
  108MOL   H12034574   6.455   6.720   7.814  1.6585  0.0559  1.4315
  108MOL   H12134575   6.455   6.708   0.165  1.1807  2.5857 -1.6870
  108MOL   H12234576   6.212   6.645   0.150  1.2919  0.5826  1.1778
  108MOL   H12334577   6.310   6.828   0.299 -0.1305  0.9387  1.8462
  108MOL   H12434578   6.088   7.033   0.257  0.3198  1.0090  1.9732
  108MOL   H12534579   6.168   6.986   0.412 -1.4776 -0.6287  0.4414
  108MOL   H12634580   6.056   6.887   0.315 -0.2830 -0.6814 -3.3017
  108MOL   H12734581   6.316   7.097   0.148 -0.5049  0.8805  1.4177
  108MOL   H12834582   6.452   6.984   0.169 -0.5865  0.1098 -1.3507
  108MOL   H12934583   6.388   7.071   0.308 -0.8358  0.7230 -0.7160
  108MOL   C13034584   6.184   6.694   7.764  0.3943  0.2310  0.4847
  108MOL   C13134585   6.024   6.700   7.777 -0.0262 -0.3190 -0.7247
  108MOL   O13234586   5.989   6.592   0.034  0.2290 -0.2090  0.1691
  108MOL   C13334587   5.931   6.622   0.158 -0.2092 -0.5186 -0.3314
  108MOL   C13434588   5.782   6.660   0.144 -0.7845  0.2301  0.5696
  108MOL   C13534589   5.955   6.502   0.248 -0.1425 -0.6140  0.4341
  108MOL   H13634590   6.215   6.604   7.713 -0.2892  0.5071 -0.4348
  108MOL   H13734591   6.213   6.770   7.691 -1.3824  1.4996  1.0401
  108MOL   H13834592   5.995   6.797   7.816 -1.5323 -1.2563  0.5295
  108MOL   H13934593   5.965   6.710   0.212  0.4904 -0.9562 -0.0560
  108MOL   H14034594   5.768   6.755   0.092  0.5786  0.0666 -0.1271
  108MOL   H14134595   5.731   6.676   0.238 -0.5202  1.4665  0.5111
  108MOL   H14234596   5.737   6.585   0.079  0.3727  0.7031 -0.8095
  108MOL   H14334597   6.059   6.474   0.265 -0.3069 -0.8301  1.0871
  108MOL   H14434598   5.917   6.509   0.350  3.1756  1.8385  1.5929
  108MOL   H14534599   5.902   6.417   0.206 -2.7415  0.2825  1.8028
  108MOL   C14634600   5.948   6.677   7.639 -0.0254  0.3132 -0.6363
  108MOL   C14734601   5.936   6.810   7.564 -0.5174  0.6788 -0.3977
  108MOL   O14834602   5.930   6.789   7.424  0.0033 -0.4658  0.1828
  108MOL   C14934603   6.059   6.781   7.354  0.3528  0.7571 -1.1537
  108MOL   C15034604   6.107   6.919   7.319  0.8228 -0.0597  0.6148
  108MOL   C15134605   6.046   6.694   7.228 -0.2200 -0.1332  0.6784
  108MOL   H15234606   5.855   6.625   7.659  1.7457 -2.0332  1.8968
  108MOL   H15334607   6.003   6.608   7.576  0.2551  1.2613 -1.4477
  108MOL   H15434608   6.022   6.868   7.595  1.1623 -2.0567  0.2835
  108MOL   H15534609   6.128   6.735   7.424 -2.0808 -0.3093  0.6294
  108MOL   H15634610   6.035   6.973   7.257  3.0022 -1.8264 -3.6741
  108MOL   H15734611   6.197   6.918   7.258  1.3137 -1.1574  1.3487
  108MOL   H15834612   6.120   6.978   7.410  0.3944  0.5859  0.2633
  108MOL   H15934613   6.141   6.685   7.176  1.1242 -1.2636  3.2432
  108MOL   H16034614   5.965   6.739   7.170 -0.1824  0.3137  0.9712
  108MOL   H16134615   6.023   6.590   7.252 -2.3375  0.8742  3.2540
  108MOL   C16234616   5.810   6.891   7.599 -0.4191  0.2648  0.3356
  108MOL   C16334617   5.801   7.031   7.539 -0.3815 -0.1872  0.0259
  108MOL   O16434618   5.675   7.087   7.559 -0.0259 -0.3656  0.3582
  108MOL   C16534619   5.600   7.155   7.457 -0.1763  0.3003  0.2224
  108MOL   C16634620   5.497   7.232   7.533  0.5397 -0.3595  0.5072
  108MOL   C16734621   5.543   7.062   7.348 -0.3537 -0.2046  0.1154
  108MOL   H16834622   5.728   6.820   7.584  0.6754 -1.1898  1.0650
  108MOL   H16934623   5.806   6.905   7.706  1.1555 -0.6014  0.5321
  108MOL   H17034624   5.817   7.025   7.431  0.7987 -1.7425  0.2750
  108MOL   H17134625   5.664   7.228   7.407 -1.4187  1.5914  0.4829
  108MOL   H17234626   5.444   7.298   7.464  0.1695 -0.9908  0.1883
  108MOL   H17334627   5.547   7.309   7.592  1.8388 -0.7940 -0.0064
  108MOL   H17434628   5.435   7.168   7.595  1.3600 -0.8287  0.8478
  108MOL   H17534629   5.471   6.997   7.397 -2.0385  1.1551 -0.5286
  108MOL   H17634630   5.628   7.011   7.301  0.3121  0.2537  0.8226
  108MOL   H17734631   5.479   7.128   7.289 -1.9954  0.7103  2.8480
  108MOL   C17834632   5.903   7.130   7.600  0.4464  0.5188  0.5188
  108MOL   C17934633   5.920   7.271   7.531  0.0581  0.0289  0.1179
  108MOL   O18034634   5.971   7.357   7.626 -0.0696 -0.2295  0.1822
  108MOL   C18134635   5.874   7.429   7.706  0.6848 -0.7391 -0.0582
  108MOL   C18234636   5.847   7.564   7.640 -0.2566  0.1713  0.1795
  108MOL   C18334637   5.948   7.438   0.020 -0.1203 -0.4802 -0.0486
  108MOL   H18434638   6.003   7.090   7.616  0.5781  0.7449  0.2607
  108MOL   H18534639   5.874   7.156   7.702 -0.1649  2.0850 -0.0335
  108MOL   H18634640   5.824   7.312   7.501  0.8153  2.5462  1.0669
  108MOL   H18734641   5.781   7.378   7.729  0.9855 -0.7216  1.2449
  108MOL   H18834642   5.841   7.562   7.531 -1.2846  3.1161  0.1398
  108MOL   H18934643   5.930   7.631   7.664 -1.3228 -0.2409  5.6386
  108MOL   H19034644   5.756   7.613   7.675 -0.3644  0.2803 -0.2550
  108MOL   H19134645   5.906   7.516   0.083  0.2141 -1.1554  1.0142
  108MOL   H19234646   6.049   7.465   7.810 -0.0651 -0.3152  0.2861
  108MOL   H19334647   5.956   7.341   0.070 -0.7085 -0.3108  0.3791
  108MOL   C19434648   6.026   7.265   7.411  0.4750  0.1754  0.7172
  108MOL   C19534649   6.075   7.397   7.342 -0.3099  0.0531  0.3994
  108MOL   O19634650   6.148   7.360   7.226  0.0056  0.5565  0.7816
  108MOL   C19734651   6.077   7.354   7.106 -0.0992 -0.2629  0.3262
  108MOL   C19834652   6.111   7.482   7.036  0.3262 -0.4275 -0.8703
  108MOL   C19934653   6.092   7.234   7.014  0.0523 -1.2302  0.3085
  108MOL   H20034654   6.102   7.191   7.436  0.4416  0.3007  1.1978
  108MOL   H20134655   5.962   7.207   7.345  0.3919 -0.8660  1.6951
  108MOL   H20234656   6.000   7.474   7.324  0.8974  0.4927 -3.0422
  108MOL   H20334657   5.973   7.345   7.140  0.1452 -1.7079  0.7473
  108MOL   H20434658   6.077   7.565   7.099  0.3130 -1.1603  0.1021
  108MOL   H20534659   6.220   7.491   7.036  0.2733  1.3231  2.5141
  108MOL   H20634660   6.070   7.498   6.937 -0.9816  0.7284 -0.1682
  108MOL   H20734661   6.021   7.237   6.932  0.0425  1.5390  0.3823
  108MOL   H20834662   6.197   7.219   6.988  0.3429  0.1109  0.6855
  108MOL   H20934663   6.066   7.147   7.075 -1.4237 -0.6882  0.4607
  108MOL   C21034664   6.181   7.469   7.420 -0.6405  0.2949  0.1566
  108MOL   C21134665   6.237   7.600   7.363  0.3942 -0.2297 -0.2652
  108MOL   O21234666   6.124   7.685   7.318 -0.0751  0.0921 -0.1092
  108MOL   C21334667   6.151   7.809   7.258  0.8908 -0.0569 -1.2059
  108MOL   C21434668   6.261   7.810   7.159 -0.8573 -0.2513  0.3200
  108MOL   C21534669   6.012   0.012   7.185 -0.5601  0.4145 -0.2377
  108MOL   H21634670   6.250   7.386   7.439 -2.4285 -1.6558 -1.6057
  108MOL   H21734671   6.139   7.490   7.519 -0.9804  1.1579 -0.1745
  108MOL   H21834672   6.288   7.575   7.270 -0.4466  0.7642 -1.0107
  108MOL   H21934673   6.155   0.066   7.335 -0.2271 -0.1433 -1.0640
  108MOL   H22034674   6.352   0.024   7.207 -0.1449 -0.2906 -0.9695
  108MOL   H22134675   6.249   0.065   7.081  2.0018 -0.6484 -0.5617
  108MOL   H22234676   6.279   7.726   7.092 -0.1678  0.6972 -0.7114
  108MOL   H22334677   6.025   0.110   7.140  1.6720  0.2853  0.0847
  108MOL   H22434678   5.926   0.022   7.251  0.3673  2.1098  0.7295
  108MOL   H22534679   5.986   7.746   7.123  1.4115 -0.8923  0.6911
  108MOL   C22634680   6.323   7.674   7.466  0.7457  0.4583 -0.0502
  108MOL   C22734681   6.445   7.591   7.514  0.0288  0.0676  0.2162
  108MOL   O22834682   6.387   7.516   7.627  0.1169 -0.4579  0.3012
  108MOL   C22934683   6.443   7.392   7.652 -0.8086 -0.3217 -0.2897
  108MOL   C23034684   6.336   7.294   7.699  0.0103  0.1095  0.0875
  108MOL   C23134685   6.557   7.418   7.758 -0.1733  0.2417  0.3564
  108MOL   H23234686   6.263   7.696   7.554 -1.7288 -1.4778 -1.1926
  108MOL   H23334687   6.362   7.768   7.426  0.6757  0.4761 -0.0757
  108MOL   H23434688   6.472   7.531   7.428 -0.9722  0.9365 -0.7286
  108MOL   H23534689   6.493   7.358   7.561 -0.4794  0.4494 -0.3958
  108MOL   H23634690   6.271   7.278   7.613  0.9548 -1.4763 -0.3464
  108MOL   H23734691   6.395   7.207   7.727  2.6430  1.8676  0.2508
  108MOL   H23834692   6.281   7.347   7.777  2.1768  2.1984  0.2706
  108MOL   H23934693   6.653   7.427   7.708 -0.7595  0.1597 -0.7896
  108MOL   H24034694   6.582   7.329   7.817 -0.7985  0.5697  1.1332
  108MOL   H24134695   6.546   7.507   7.820 -0.9488  0.4108 -0.0214
  108MOL   C24234696   6.566   7.674   7.557 -0.4016  0.0583 -0.4535
  108MOL   C24334697   6.699   7.667   7.472  0.9194  0.6338 -0.1475
  108MOL   O24434698   6.743   7.532   7.473  0.1606 -0.1274  0.2188
  108MOL   C24534699   6.853   7.495   7.397  0.0500 -0.6025 -0.1878
  108MOL   C24634700   6.957   7.440   7.501  0.3533  0.5660  0.1916
  108MOL   C24734701   6.804   7.395   7.288 -0.3215  0.6923  0.5507
  108MOL   H24834702   6.542   7.781   7.555 -1.0156 -0.0165  1.8563
  108MOL   H24934703   6.589   7.650   7.660 -1.3808  0.0272 -0.2405
  108MOL   H25034704   6.666   7.704   7.375 -1.1224  0.9499  0.6300
  108MOL   H25134705   6.884   7.586   7.344  0.5639  0.1894  1.4372
  108MOL   H25234706   7.044   7.406   7.445  0.3659  0.0148  0.5477
  108MOL   H25334707   6.988   7.515   7.573  0.7302  0.2552  0.3535
  108MOL   H25434708   6.939   7.345   7.551  0.9817  0.6004  0.4828
  108MOL   H25534709   6.723   7.437   7.228 -0.1759  1.1313  0.6524
  108MOL   H25634710   6.888   7.381   7.219  0.1536  1.2077  1.0148
  108MOL   H25734711   6.780   7.298   7.329 -0.1084 -0.2936 -1.5957
  108MOL   C25834712   6.808   7.756   7.529 -0.2444 -0.4914 -0.2699
  108MOL   C25934713   6.773   0.088   7.529  0.1620 -0.2607 -0.8792
  108MOL   O26034714   6.887   0.159   7.482 -0.1320  0.5208 -0.5953
  108MOL   C26134715   6.915   0.153   7.339 -0.4557  0.0621 -0.8931
  108MOL   C26234716   6.863   0.270   7.265 -0.0361  0.6587  0.1835
  108MOL   C26334717   7.071   0.140   7.314  0.4480  0.4231 -0.0691
  108MOL   H26434718   6.854   7.707   7.615  1.9712 -2.0214 -2.2638
  108MOL   H26534719   6.898   7.746   7.468 -0.6089  2.9478 -1.4951
  108MOL   H26634720   6.683   0.101   7.468  1.0506  0.2938 -2.0841
  108MOL   H26734721   6.864   0.063   7.304 -1.9363  0.4354  0.2203
  108MOL   H26834722   6.756   0.288   7.275  0.3803  2.9770  0.7342
  108MOL   H26934723   6.871   0.266   7.157  2.0369  1.3218  0.3056
  108MOL   H27034724   6.921   0.357   7.295  0.6195  1.3878 -3.0226
  108MOL   H27134725   7.114   0.044   7.343  0.2185 -0.0818 -1.3551
  108MOL   H27234726   7.087   0.149   7.207 -0.1925 -1.3356 -0.3439
  108MOL   H27334727   7.133   0.207   7.372 -0.0024 -0.7850  1.8639
  108MOL   C27434728   6.738   0.139   7.672  0.2947  0.0032  0.1383
  108MOL   C27534729   6.646   0.261   7.674  0.3266 -0.3263  0.4333
  108MOL   O27634730   6.515   0.223   7.619  0.5820 -0.0912 -0.3759
  108MOL   C27734731   6.437   0.327   7.559  1.0039  0.1686 -0.5347
  108MOL   C27834732   6.295   0.270   7.570 -0.5897 -0.3838  0.1027
  108MOL   C27934733   6.472   0.347   7.413 -0.1894  0.3736  0.3537
  108MOL   H28034734   6.682   0.061   7.723  1.3305 -1.8812 -1.4984
  108MOL   H28134735   6.821   0.163   7.739 -0.6471  0.2624  1.2211
  108MOL   H28234736   6.677   0.342   7.608  0.2568 -0.6686 -0.0182
  108MOL   H28334737   6.446   0.421   7.613  1.2186  1.0777 -2.1062
  108MOL   H28434738   6.302   0.175   7.517  2.4551 -0.0653 -0.1141
  108MOL   H28534739   6.262   0.252   7.672  0.0982  2.5010  0.8942
  108MOL   H28634740   6.223   0.338   7.524 -0.2988  0.1299  0.4024
  108MOL   H28734741   6.565   0.404   7.423 -0.0567  0.7132 -2.2322
  108MOL   H28834742   6.394   0.402   7.359 -0.6972 -1.9569 -1.3390
  108MOL   H28934743   6.482   0.254   7.357 -1.8225  0.6388 -0.4201
  108MOL   C29034744   6.630   0.312   7.818 -0.3222  0.0196 -0.0957
  108MOL   C29134745   6.751   0.387   0.052  0.7449 -0.1880  0.4956
  108MOL   O29234746   6.744   0.526   0.025  0.1395 -0.2508  0.0963
  108MOL   C29334747   6.770   0.588   7.722 -0.5796  0.5731 -0.2773
  108MOL   C29434748   6.887   0.674   7.746  0.1718 -0.4986 -0.1112
  108MOL   C29534749   6.644   0.661   7.675  0.0624 -0.5034  0.2732
  108MOL   H29634750   6.610   0.218   0.048  1.8726  0.1651  1.0655
  108MOL   H29734751   6.538   0.367   0.018 -0.5506 -0.2047 -0.5017
  108MOL   H29834752   6.848   0.354   0.013  0.6602 -1.0090  0.9685
  108MOL   H29934753   6.800   0.516   7.645 -1.3160 -0.5734  0.4935
  108MOL   H30034754   6.976   0.616   7.768  0.1914 -0.4056  0.0547
  108MOL   H30134755   6.916   0.741   7.665 -0.0665 -1.4999 -1.0373
  108MOL   H30234756   6.864   0.737   0.012 -0.3978  2.8966 -2.5949
  108MOL   H30334757   6.605   0.729   7.750  1.5549  1.5597 -0.7535
  108MOL   H30434758   6.665   0.724   7.589 -2.8026 -0.3499 -0.3418
  108MOL   H30534759   6.559   0.598   7.653 -2.1001  1.8469  1.6068
  108MOL   C30634760   6.755   0.375   0.204  0.5212 -0.8436 -0.4586
  108MOL   C30734761   6.897   0.418   0.253 -0.6985 -0.0686  0.4477
  108MOL   O30834762   6.913   0.426   0.391 -0.2123 -0.0195 -0.2826
  108MOL   C30934763   7.041   0.454   0.442 -0.3003  0.4682  0.0136
  108MOL   C31034764   7.060   0.601   0.455 -0.4637  0.0636 -0.0776
  108MOL   C31134765   7.042   0.375   0.570  0.1022  0.2786 -0.2585
  108MOL   H31234766   6.744   0.271   0.236 -0.2038 -1.7793 -3.5804
  108MOL   H31334767   6.677   0.435   0.251 -0.5467 -0.8516 -2.1676
  108MOL   H31434768   6.960   0.335   0.218  1.5470  1.5134  0.6356
  108MOL   H31534769   7.114   0.405   0.379  1.3209  1.5882  0.9820
  108MOL   H31634770   7.151   0.625   0.510 -1.0457  0.8384  0.5389
  108MOL   H31734771   6.975   0.645   0.507 -0.5842  1.7223 -1.6518
  108MOL   H31834772   7.066   0.646   0.356  1.9244 -0.0873 -0.0466
  108MOL   H31934773   7.014   0.274   0.541 -2.6416  1.4243 -1.7994
  108MOL   H32034774   6.957   0.394   0.637  1.2373  1.8514  0.7797
  108MOL   H32134775   7.134   0.377   0.628  1.2709  2.1357 -2.1079
  108MOL   H32234776   6.940   0.502   0.199  1.4106 -2.5454 -1.8711
  109MOL     C134777   3.823   7.699   3.644 -0.4826  0.2421  0.4829
  109MOL     C234778   3.828   7.764   3.782 -0.0690 -0.4196  0.8858
  109MOL     O334779   3.708   7.712   3.847 -0.0160 -0.1306  0.0647
  109MOL     C434780   3.624   7.812   3.900 -0.0242  0.3598  0.5332
  109MOL     C534781   3.534   7.734   4.003  0.5142  0.5068  0.1566
  109MOL     C634782   3.542   0.076   3.798  0.7337  0.2163  0.8952
  109MOL     H734783   3.899   7.752   3.586 -1.1672  1.9580  1.1184
  109MOL     H834784   3.844   7.593   3.661  1.4023  0.5508  0.1793
  109MOL     H934785   3.815   0.051   3.768  1.0670 -0.2552  1.0131
  109MOL    H1034786   3.684   0.062   3.958  1.9126  0.4194 -1.4690
  109MOL    H1134787   3.588   7.692   4.088 -1.5163  0.2054  1.3513
  109MOL    H1234788   3.445   7.796   4.014  0.1372  0.3819 -1.9944
  109MOL    H1334789   3.499   7.644   3.953  0.7109  1.1106 -1.0740
  109MOL    H1434790   3.474   0.141   3.854  1.0118 -0.5284  2.1197
  109MOL    H1534791   3.622   0.136   3.754  0.9993 -0.1731  0.8400
  109MOL    H1634792   3.510   0.014   3.715  0.5427 -0.0766  1.1863
  109MOL    H1734793   3.728   7.711   3.593  0.5434  1.3257 -1.2296
  109MOL    C1834794   3.959   7.723   3.846  0.5038 -0.6269  0.3681
  109MOL    C1934795   3.979   7.773   3.992  0.9216 -0.8308  0.0860
  109MOL    O2034796   4.115   7.769   4.024 -0.0453  0.3948  0.0701
  109MOL    C2134797   4.193   0.063   3.994 -0.3551 -0.6273  0.2581
  109MOL    C2234798   4.335   0.011   4.029  0.0309  0.6409 -0.3231
  109MOL    C2334799   4.154   0.189   4.077 -0.1976  0.1504 -0.6616
  109MOL    H2434800   3.981   7.617   3.849  0.5247 -0.7850 -3.4274
  109MOL    H2534801   4.035   7.758   3.776 -1.4438 -0.2612 -1.5968
  109MOL    H2634802   3.942   0.055   3.998 -0.7996 -1.4364  0.1865
  109MOL    H2734803   4.187   0.098   3.891  0.2650  0.5346  0.5990
  109MOL    H2834804   4.334   7.812   4.136 -0.3104 -1.6998 -0.7132
  109MOL    H2934805   4.378   7.742   3.983 -1.4747  0.7426 -1.9779
  109MOL    H3034806   4.402   0.096   4.024 -0.8628  1.5027  1.7287
  109MOL    H3134807   4.120   0.173   4.179  2.1780  0.0659  0.1568
  109MOL    H3234808   4.070   0.235   4.025 -2.1490 -0.5931  1.7476
  109MOL    H3334809   4.240   0.255   4.090  1.8360 -2.9462  2.5577
  109MOL    C3434810   3.915   7.680   4.098 -0.0333 -0.3075 -0.0904
  109MOL    C3534811   3.903   7.750   4.230 -0.4384  0.1067  0.1977
  109MOL    O3634812   3.780   7.819   4.219 -0.1760 -0.8137 -0.3367
  109MOL    C3734813   3.756   0.104   4.312  0.2131  0.3890  0.1128
  109MOL    C3834814   3.822   0.235   4.271 -0.3174 -0.0573 -0.7473
  109MOL    C3934815   3.597   0.112   4.316  0.3242  0.2576  0.0880
  109MOL    H4034816   3.973   7.588   4.102  1.0195  0.3494 -0.0513
  109MOL    H4134817   3.816   7.652   4.061 -1.3194  4.1657 -0.3284
  109MOL    H4234818   3.980   0.003   4.255  0.1447 -1.0841  1.9443
  109MOL    H4334819   3.788   0.076   4.413  3.3239 -0.5065 -1.0771
  109MOL    H4434820   3.826   0.262   4.166 -2.1907 -0.1812 -0.8717
  109MOL    H4534821   3.926   0.218   4.300 -1.8152 -2.3411  3.8203
  109MOL    H4634822   3.782   0.324   4.319  1.0692  0.1639  0.0316
  109MOL    H4734823   3.541   0.028   4.356 -2.5796  1.2658 -1.6571
  109MOL    H4834824   3.578   0.205   4.369 -1.1616  0.4778 -0.7813
  109MOL    H4934825   3.572   0.144   4.214 -0.1235 -0.1734  0.0560
  109MOL    C5034826   3.903   7.643   4.350  0.4952 -0.3010  0.0975
  109MOL    C5134827   4.033   7.561   4.385 -0.2847  0.3782  0.4160
  109MOL    O5234828   4.034   7.525   4.521  0.1101 -0.3083 -0.1535
  109MOL    C5334829   3.943   7.419   4.555  0.2738 -0.3056 -0.0157
  109MOL    C5434830   3.852   7.465   4.666 -0.2861 -0.3954  0.5201
  109MOL    C5534831   4.023   7.298   4.599 -0.7549  0.0576 -0.4472
  109MOL    H5634832   3.869   7.692   4.442  1.9786 -1.3395  1.2206
  109MOL    H5734833   3.818   7.580   4.325  0.9312 -1.1680  0.7675
  109MOL    H5834834   4.049   7.474   4.322 -1.5141 -0.1173  0.7737
  109MOL    H5934835   3.893   7.388   4.463  3.0166  0.7338 -1.9037
  109MOL    H6034836   3.792   7.546   4.625  1.0378 -0.5009 -1.7105
  109MOL    H6134837   3.911   7.498   4.752 -0.0857  2.2654 -0.5948
  109MOL    H6234838   3.786   7.381   4.689 -1.0726  0.2867  0.7589
  109MOL    H6334839   3.959   7.210   4.601 -1.0984  0.3199  0.2917
  109MOL    H6434840   4.085   7.320   4.685 -0.0018 -0.5159 -0.8325
  109MOL    H6534841   4.097   7.280   4.520  0.3050  0.3357  0.4736
  109MOL    C6634842   4.158   7.651   4.371  0.4828 -0.2062  0.3656
  109MOL    C6734843   4.299   7.600   4.408 -0.1146  0.5278  0.2768
  109MOL    O6834844   4.401   7.704   4.413 -0.0555 -0.3150  0.0293
  109MOL    C6934845   4.404   7.787   4.536 -0.0140  0.7573  0.0122
  109MOL    C7034846   4.541   7.765   4.614  0.4783  0.6747  0.1094
  109MOL    C7134847   4.390   0.117   4.498  0.4749  0.0449 -0.8239
  109MOL    H7234848   4.156   7.671   4.264 -1.5660 -0.4436  0.3419
  109MOL    H7334849   4.141   7.750   4.415  2.3072  0.3832 -0.1595
  109MOL    H7434850   4.291   7.560   4.509 -2.1153  0.4881  0.1147
  109MOL    H7534851   4.323   7.753   4.601  0.5317  0.0162  0.3141
  109MOL    H7634852   4.629   7.774   4.549  1.0087  1.0254  0.8591
  109MOL    H7734853   4.540   0.017   4.696 -0.3790 -0.0441  0.7296
  109MOL    H7834854   4.540   7.664   4.656  0.7643  0.7159  0.2214
  109MOL    H7934855   4.474   0.154   4.439 -0.2166  2.9161 -0.0791
  109MOL    H8034856   4.398   0.160   4.597  1.4113  1.4219 -1.4856
  109MOL    H8134857   4.301   0.134   4.437 -0.1089  0.6696  0.1933
  109MOL    C8234858   4.343   7.488   4.307 -0.3397  0.4386 -0.2473
  109MOL    C8334859   4.466   7.412   4.362 -0.1919 -0.4250  0.1653
  109MOL    O8434860   4.475   7.272   4.324 -0.5994 -0.3438 -0.9982
  109MOL    C8534861   4.389   7.180   4.392 -0.5611  0.3061 -0.8694
  109MOL    C8634862   4.464   7.110   4.509  0.0890 -0.4090 -0.0360
  109MOL    C8734863   4.347   7.084   4.277  0.2716 -0.6591  0.1822
  109MOL    H8834864   4.264   7.415   4.291  0.0407  0.4085 -2.2070
  109MOL    H8934865   4.353   7.541   4.212  2.6148 -1.0857 -0.8213
  109MOL    H9034866   4.470   7.430   4.469 -3.3566 -0.0763  0.2778
  109MOL    H9134867   4.300   7.234   4.425 -0.7287  1.2331 -2.7829
  109MOL    H9234868   4.489   7.188   4.581  2.3525 -0.8541 -0.3057
  109MOL    H9334869   4.405   7.035   4.560 -0.0474 -1.3110 -1.5130
  109MOL    H9434870   4.556   7.072   4.464 -0.7007  0.0746 -2.1293
  109MOL    H9534871   4.288   7.000   4.314  0.5439 -2.0074 -2.3218
  109MOL    H9634872   4.279   7.134   4.208  1.5437 -0.3090 -0.8372
  109MOL    H9734873   4.439   7.054   4.225  1.3986  0.9462  1.2117
  109MOL    C9834874   4.596   7.471   4.302  0.4888  0.5054 -0.0152
  109MOL    C9934875   4.726   7.402   4.366 -0.1229  0.5986 -0.0930
  109MOL   O10034876   4.743   7.461   4.493 -0.0127  0.4646 -0.0856
  109MOL   C10134877   4.771   7.372   4.600 -0.7861  0.3567 -0.7165
  109MOL   C10234878   4.723   7.442   4.736 -0.6203  0.2423 -0.3804
  109MOL   C10334879   4.918   7.322   4.612  0.3327 -0.3521  0.0425
  109MOL   H10434880   4.616   7.465   4.196  0.4615  0.5812 -0.0247
  109MOL   H10534881   4.602   7.580   4.310  0.7372  0.5636 -0.9588
  109MOL   H10634882   4.712   7.295   4.381 -0.2251  0.7695  1.0192
  109MOL   H10734883   4.713   7.280   4.601 -0.4865  0.1704  0.6982
  109MOL   H10834884   4.615   7.440   4.747 -0.6093  0.0977 -0.2970
  109MOL   H10934885   4.759   7.544   4.751 -0.7953 -0.0026  1.7813
  109MOL   H11034886   4.747   7.387   4.827  2.8811 -0.5119 -1.6642
  109MOL   H11134887   4.922   7.239   4.542  0.0437  0.5308 -1.0313
  109MOL   H11234888   4.940   7.278   4.710 -0.5630  0.8018  0.7865
  109MOL   H11334889   4.996   7.396   4.594  1.2142 -0.7283  2.1387
  109MOL   C11434890   4.854   7.413   4.283  0.4176  0.8668 -0.0331
  109MOL   C11534891   4.891   7.281   4.206  0.2739  0.6176  0.1645
  109MOL   O11634892   4.901   7.177   4.301 -0.4632 -0.7246 -0.1607
  109MOL   C11734893   4.993   7.072   4.259  0.4199 -0.0252  0.9443
  109MOL   C11834894   4.930   6.936   4.308  0.1483  0.5339 -0.0755
  109MOL   C11934895   5.123   7.095   4.335 -0.0278 -0.0743  0.3612
  109MOL   H12034896   4.941   7.427   4.347  0.8370  0.8974 -0.6081
  109MOL   H12134897   4.860   7.500   4.218  0.1843  0.0382 -1.1965
  109MOL   H12234898   4.986   7.295   4.154 -0.4669  1.9429 -0.8739
  109MOL   H12334899   5.022   7.065   4.154 -3.4990 -1.1580 -0.1728
  109MOL   H12434900   5.009   6.861   4.296 -0.2340 -0.0712  1.1171
  109MOL   H12534901   4.848   6.901   4.247  1.7284 -1.1614 -1.2901
  109MOL   H12634902   4.890   6.941   4.409  1.9348  0.6169  0.6584
  109MOL   H12734903   5.163   7.195   4.318  0.6385 -0.3210  0.4639
  109MOL   H12834904   5.203   7.034   4.292  1.5542  1.2697  1.3601
  109MOL   H12934905   5.121   7.084   4.443  1.6275  1.9870  0.6308
  109MOL   C13034906   4.779   7.228   4.111  0.5033  0.1025  0.5548
  109MOL   C13134907   4.804   7.263   3.965 -1.1735  0.3341  0.7851
  109MOL   O13234908   4.673   7.281   3.896  0.5840 -0.0348 -0.0176
  109MOL   C13334909   4.632   7.411   3.890 -0.0240 -0.4160 -0.4321
  109MOL   C13434910   4.687   7.473   3.752  0.6276 -0.3735  0.2584
  109MOL   C13534911   4.481   7.427   3.896  0.6415  0.3900  0.4606
  109MOL   H13634912   4.680   7.262   4.140  0.8886  2.8486 -1.1429
  109MOL   H13734913   4.745   7.125   4.122 -0.5195  0.0301 -2.7047
  109MOL   H13834914   4.857   7.356   3.944 -1.6313  0.4985  0.3374
  109MOL   H13934915   4.684   7.467   3.967  2.8290 -2.5076 -0.7482
  109MOL   H14034916   4.629   7.561   3.723 -1.9888 -2.1689 -0.2201
  109MOL   H14134917   4.676   7.401   3.671  1.9637  0.4592 -0.6829
  109MOL   H14234918   4.792   7.500   3.751  0.5876 -0.0987  1.9589
  109MOL   H14334919   4.447   7.385   3.991 -1.5726  2.9490  0.8748
  109MOL   H14434920   4.453   7.532   3.896  0.3360  0.3199  1.6841
  109MOL   H14534921   4.439   7.371   3.813 -1.9479 -0.4744  2.2753
  109MOL   C14634922   4.869   7.139   3.891 -0.2528  0.0280 -0.6367
  109MOL   C14734923   5.005   7.172   3.826  0.0918  0.2339  0.5654
  109MOL   O14834924   5.098   7.203   3.929  0.2293 -0.3005 -0.1559
  109MOL   C14934925   5.167   7.323   3.923 -0.1684  0.3800 -0.5394
  109MOL   C15034926   5.269   7.304   4.037  0.0164  0.0199 -1.2269
  109MOL   C15134927   5.084   7.448   3.925  0.1348  0.0581  0.1254
  109MOL   H15234928   4.800   7.110   3.811  0.3044 -0.8515 -0.8059
  109MOL   H15334929   4.869   7.046   3.946  0.5424 -0.2941 -1.1755
  109MOL   H15434930   5.004   7.262   3.764 -1.2718  0.7298  1.2910
  109MOL   H15534931   5.223   7.320   3.829 -0.7574  0.1808 -0.8837
  109MOL   H15634932   5.217   7.302   4.133 -0.5870  2.3502 -1.4673
  109MOL   H15734933   5.346   7.382   4.037  0.9479 -0.8204  1.5523
  109MOL   H15834934   5.315   7.206   4.029 -0.0655 -0.1183 -0.0841
  109MOL   H15934935   5.148   7.534   3.905 -0.6028  0.3209 -1.1385
  109MOL   H16034936   5.033   7.464   4.021  0.1975 -0.3762  0.2306
  109MOL   H16134937   5.004   7.452   3.851 -0.3628  1.1849  0.7040
  109MOL   C16234938   5.066   7.058   3.734  1.0246  0.1717  0.7186
  109MOL   C16334939   5.002   7.052   3.591 -0.0149  0.1066  1.2624
  109MOL   O16434940   5.039   7.166   3.513 -0.1388  0.2186 -0.0916
  109MOL   C16534941   4.932   7.255   3.503 -0.0435 -0.6126 -0.3309
  109MOL   C16634942   4.842   7.203   3.398 -0.0484  0.1488  0.5906
  109MOL   C16734943   4.994   7.394   3.459  0.0651  0.0801 -0.2799
  109MOL   H16834944   5.174   7.074   3.727  1.1260 -1.3359 -1.6057
  109MOL   H16934945   5.049   6.964   3.785  1.5758  1.2604  2.9456
  109MOL   H17034946   4.895   7.030   3.587 -0.5665  2.8848 -0.6779
  109MOL   H17134947   4.879   7.267   3.597 -0.1332 -2.4540 -0.1399
  109MOL   H17234948   4.748   7.254   3.379 -0.2894 -0.6500 -0.4263
  109MOL   H17334949   4.814   7.099   3.415  0.6584 -0.3324 -1.0224
  109MOL   H17434950   4.912   7.200   3.314  0.7143  1.6713  1.1450
  109MOL   H17534951   5.076   7.420   3.525 -0.3874  0.5244  0.1129
  109MOL   H17634952   4.927   7.480   3.465  1.1037  0.7293  3.0264
  109MOL   H17734953   5.041   7.400   3.361  1.3588 -0.4726  0.3029
  109MOL   C17834954   5.057   6.946   3.497 -0.6991 -0.2559  0.8025
  109MOL   C17934955   5.016   6.803   3.516  0.3434 -0.5064 -0.0577
  109MOL   O18034956   4.881   6.787   3.458  0.0428 -0.3551  0.0862
  109MOL   C18134957   4.786   6.696   3.520 -0.0333  1.1485 -0.7797
  109MOL   C18234958   4.733   6.601   3.415  0.0865 -0.1374 -0.3289
  109MOL   C18334959   4.692   6.773   3.613 -0.4236 -0.8989  0.8043
  109MOL   H18434960   5.166   6.955   3.489 -0.7752 -1.1249 -1.6037
  109MOL   H18534961   5.008   6.972   3.404  0.0561  0.3444  0.5649
  109MOL   H18634962   5.007   6.781   3.623  1.0030 -0.5481 -0.0080
  109MOL   H18734963   4.846   6.633   3.586  1.5124  2.5368 -0.8128
  109MOL   H18834964   4.809   6.544   3.361  1.1622  1.2945 -0.3853
  109MOL   H18934965   4.681   6.658   3.338 -2.6312 -2.2108 -0.0820
  109MOL   H19034966   4.661   6.536   3.464 -2.4905  2.5846 -0.3691
  109MOL   H19134967   4.631   6.705   3.672 -0.4490 -1.5631  0.0352
  109MOL   H19234968   4.619   6.831   3.557  1.9372  0.6186 -0.8021
  109MOL   H19334969   4.734   6.849   3.679 -0.2010 -1.2383  1.0515
  109MOL   C19434970   5.104   6.698   3.448  0.5085  0.0752 -0.2793
  109MOL   C19534971   5.234   6.664   3.522 -0.2507  0.3690 -0.4364
  109MOL   O19634972   5.344   6.630   3.433  0.0213  0.1907  0.1414
  109MOL   C19734973   5.412   6.738   3.365 -0.3226 -0.6238 -0.0705
  109MOL   C19834974   5.500   6.835   3.445  0.1839 -0.0515 -0.7734
  109MOL   C19934975   5.511   6.668   3.265  0.0950 -0.3012 -0.7524
  109MOL   H20034976   5.041   6.611   3.427  1.5608 -0.4054 -1.5437
  109MOL   H20134977   5.129   6.743   3.352  0.5581 -0.7307 -0.6483
  109MOL   H20234978   5.270   6.747   3.583 -3.2711 -0.8335  3.2372
  109MOL   H20334979   5.331   6.798   3.324  1.8918  1.6052 -1.3269
  109MOL   H20434980   5.578   6.889   3.392  2.5797 -1.5811  1.0612
  109MOL   H20534981   5.444   6.920   3.486  1.2156 -0.0191  0.6074
  109MOL   H20634982   5.549   6.774   3.521 -1.7872  0.7070  1.1616
  109MOL   H20734983   5.589   6.729   3.220  0.3696 -0.6487 -0.7432
  109MOL   H20834984   5.561   6.601   3.335  1.0708 -1.3184 -2.3959
  109MOL   H20934985   5.461   6.611   3.187 -4.1545  1.0772  0.8116
  109MOL   C21034986   5.207   6.536   3.607  0.1656  0.3001  0.2320
  109MOL   C21134987   5.299   6.530   3.735 -0.1000  0.1264  0.1193
  109MOL   O21234988   5.245   6.633   3.815 -0.0827  0.0452 -0.4545
  109MOL   C21334989   5.344   6.686   3.902  0.0600 -0.1557 -0.1558
  109MOL   C21434990   5.393   6.807   3.822  0.5150 -0.0297  0.0400
  109MOL   C21534991   5.290   6.732   4.043  0.1624 -0.9034 -0.3205
  109MOL   H21634992   5.193   6.444   3.551  0.5013  1.1080 -1.1970
  109MOL   H21734993   5.112   6.548   3.661  0.6850 -1.5369  1.6039
  109MOL   H21834994   5.403   6.544   3.706 -0.7884 -0.6899 -3.0167
  109MOL   H21934995   5.425   6.615   3.920 -1.3374 -2.9418 -4.1362
  109MOL   H22034996   5.445   6.759   3.739  1.1195 -0.5823  0.7325
  109MOL   H22134997   5.465   6.870   3.874  0.7062 -0.1795 -0.0462
  109MOL   H22234998   5.303   6.860   3.791  0.8240 -0.5374 -1.7776
  109MOL   H22334999   5.241   6.644   4.084  0.1537 -0.3529  0.8607
  109MOL   H22435000   5.213   6.809   4.036  0.9807 -0.0827 -0.4848
  109MOL   H22535001   5.371   6.772   4.104  0.2098 -2.0584  0.3837
  109MOL   C22635002   5.298   6.393   3.813  0.5691 -0.0312  0.2075
  109MOL   C22735003   5.406   6.290   3.776 -0.0042  0.3010  0.8382
  109MOL   O22835004   5.387   6.239   3.649  0.1781 -0.5578  0.2983
  109MOL   C22935005   5.486   6.275   3.543  0.5660 -0.4318  0.2390
  109MOL   C23035006   5.415   6.250   3.414  0.1792  0.3084 -0.1299
  109MOL   C23135007   5.592   6.168   3.564 -0.1409 -0.2195  0.5098
  109MOL   H23235008   5.195   6.358   3.817  0.3794  0.3790 -1.1121
  109MOL   H23335009   5.327   6.426   3.913 -0.4910 -0.4292  0.6549
  109MOL   H23435010   5.509   6.318   3.800  0.4552 -0.2929 -0.3937
  109MOL   H23535011   5.525   6.377   3.540 -0.7411  0.1499  2.2167
  109MOL   H23635012   5.326   6.312   3.408  0.8827  1.5415  1.7139
  109MOL   H23735013   5.479   6.257   3.325  0.1756  0.3309 -0.1306
  109MOL   H23835014   5.369   6.152   3.417 -0.2192  0.5196  0.8868
  109MOL   H23935015   5.645   6.169   3.660  1.1394 -0.4015 -0.1812
  109MOL   H24035016   5.678   6.177   3.498 -0.3829 -1.2687  0.0561
  109MOL   H24135017   5.561   6.067   3.539 -1.3159 -0.0004  1.0683
  109MOL   C24235018   5.383   6.152   3.848 -0.6039 -0.1435 -0.3073
  109MOL   C24335019   5.389   6.156   4.002  0.3634 -0.6717 -0.4845
  109MOL   O24435020   5.522   6.200   4.031  0.1265 -0.5316  0.2616
  109MOL   C24535021   5.548   6.270   4.157  0.4341  0.2279  0.7604
  109MOL   C24635022   5.684   6.212   4.205  0.0197 -0.1493  0.6370
  109MOL   C24735023   5.545   6.421   4.140  0.1034  0.2578  0.4041
  109MOL   H24835024   5.284   6.109   3.830 -1.0202  0.7677 -0.2574
  109MOL   H24935025   5.458   6.078   3.820 -0.9358 -1.0709  1.1525
  109MOL   H25035026   5.322   6.229   4.048  3.8311  1.7098  1.0422
  109MOL   H25135027   5.474   6.243   4.232  0.6233 -1.6249  0.3115
  109MOL   H25235028   5.671   6.107   4.230  2.5529 -0.4801  0.7397
  109MOL   H25335029   5.763   6.224   4.130  0.1934 -0.1655  0.8164
  109MOL   H25435030   5.721   6.266   4.292  0.0412  1.0904 -0.1156
  109MOL   H25535031   5.586   6.471   4.227 -1.1482  0.4147  0.9103
  109MOL   H25635032   5.600   6.452   4.051  0.1879  0.5221  0.5482
  109MOL   H25735033   5.449   6.462   4.110  0.0067 -0.6947 -0.6345
  109MOL   C25835034   5.363   6.022   4.068  0.5684  0.9524  0.1533
  109MOL   C25935035   5.217   5.978   4.071 -0.3159 -0.2039 -0.9248
  109MOL   O26035036   5.165   6.027   4.200 -0.2015 -0.4109  0.6394
  109MOL   C26135037   5.028   6.052   4.215 -0.0714  0.1031  0.1531
  109MOL   C26235038   4.994   6.041   4.363  0.2745  0.7959 -0.6912
  109MOL   C26335039   4.995   6.189   4.164  0.0371 -0.6164  0.7390
  109MOL   H26435040   5.424   5.949   4.015 -0.1348  0.7106 -0.3288
  109MOL   H26535041   5.405   6.032   4.168 -2.0559 -1.1594  1.5286
  109MOL   H26635042   5.163   6.029   3.992  2.1273  0.4137 -2.2377
  109MOL   H26735043   4.967   5.982   4.157  0.0322  0.9990 -1.0513
  109MOL   H26835044   5.027   5.944   4.399 -1.3308  0.8872  1.1002
  109MOL   H26935045   4.888   6.042   4.391 -0.2838  2.0583 -2.7352
  109MOL   H27035046   5.035   6.121   4.425 -0.1208  0.0662  0.5326
  109MOL   H27135047   5.075   6.256   4.197  1.0742 -1.1528 -0.6260
  109MOL   H27235048   4.998   6.181   4.055 -1.3166 -1.0888  0.7329
  109MOL   H27335049   4.902   6.229   4.204  0.8250  0.8177  1.1987
  109MOL   C27435050   5.200   5.822   4.064  0.4331 -0.0470 -0.7544
  109MOL   C27535051   5.221   5.745   3.926  0.1631 -1.0811 -0.1034
  109MOL   O27635052   5.199   5.612   3.948 -0.4631  0.6304  0.3089
  109MOL   C27735053   5.310   5.539   4.004 -0.5249 -0.3747  0.9741
  109MOL   C27835054   5.391   5.470   3.891 -0.0572  0.2367  0.6252
  109MOL   C27935055   5.247   5.428   4.092 -0.0908 -0.0714 -0.2599
  109MOL   H28035056   5.265   5.781   4.142 -0.2790  0.0452 -0.1117
  109MOL   H28135057   5.100   5.800   4.099 -0.8103  3.7340 -1.7124
  109MOL   H28235058   5.323   5.765   3.893  0.0201  0.3667  0.3164
  109MOL   H28335059   5.374   5.604   4.064 -1.5226 -0.4566  2.1530
  109MOL   H28435060   5.387   5.517   3.793  0.7268  1.4923  1.1852
  109MOL   H28535061   5.496   5.463   3.919  0.2150  0.6077 -0.2900
  109MOL   H28635062   5.354   5.368   3.878  1.0271 -0.0519 -0.2454
  109MOL   H28735063   5.209   5.352   4.024  1.2062 -0.6480 -0.3539
  109MOL   H28835064   5.171   5.453   4.166 -0.7457  0.7106 -1.1783
  109MOL   H28935065   5.319   5.369   4.148  0.3235 -0.8261 -1.5807
  109MOL   C29035066   5.129   5.801   3.813  0.5789 -0.0855 -0.0601
  109MOL   C29135067   5.158   5.736   3.675 -0.2458 -0.1170  0.3955
  109MOL   O29235068   5.048   5.749   3.588 -0.3042 -0.3386 -0.4854
  109MOL   C29335069   4.995   5.633   3.530  0.0684  0.0375  0.8081
  109MOL   C29435070   4.904   5.698   3.422 -0.0491 -0.4834 -0.3484
  109MOL   C29535071   4.930   5.540   3.632 -0.6452  0.6275  0.6221
  109MOL   H29635072   5.148   5.907   3.800  2.5806 -0.2512  1.2277
  109MOL   H29735073   5.023   5.781   3.832  0.1744  0.1820 -1.9998
  109MOL   H29835074   5.185   5.630   3.678 -1.7183 -0.5922 -1.6901
  109MOL   H29935075   5.076   5.578   3.483 -0.1492  1.3512 -1.1450
  109MOL   H30035076   4.853   5.616   3.371 -1.5855  0.0765  0.2447
  109MOL   H30135077   4.832   5.759   3.477  2.3446  2.0955  0.0273
  109MOL   H30235078   4.958   5.759   3.350 -0.9224  0.5563 -0.1412
  109MOL   H30335079   4.884   5.450   3.592  3.2557 -1.3160  0.3778
  109MOL   H30435080   4.995   5.526   3.718 -2.4552 -1.1381  1.7450
  109MOL   H30535081   4.845   5.597   3.670  0.0102  2.8121 -1.0322
  109MOL   C30635082   5.270   5.803   3.596 -0.0164 -0.4053  0.3827
  109MOL   C30735083   5.325   5.737   3.474  0.6532  0.0374  0.2454
  109MOL   O30835084   5.377   5.609   3.503  0.6544 -0.0579 -0.5128
  109MOL   C30935085   5.401   5.529   3.387 -0.1319 -0.0876 -0.5022
  109MOL   C31035086   5.540   5.557   3.323  0.2026 -0.2579  0.4047
  109MOL   C31135087   5.396   5.379   3.431 -0.7134 -0.9351  0.2824
  109MOL   H31235088   5.353   5.815   3.667  0.4611  1.5531 -0.4524
  109MOL   H31335089   5.243   5.907   3.577 -2.9436 -0.8490  1.8947
  109MOL   H31435090   5.242   5.725   3.404 -0.0351 -1.3670  1.2777
  109MOL   H31535091   5.324   5.546   3.311 -0.5664  2.5426  0.4671
  109MOL   H31635092   5.560   5.487   3.242 -1.4544 -2.1947  1.6251
  109MOL   H31735093   5.618   5.541   3.397  0.3303 -0.7151  0.1752
  109MOL   H31835094   5.536   5.660   3.287 -0.6018 -0.2315  0.5534
  109MOL   H31935095   5.305   5.359   3.488  0.1703 -0.1930  1.9873
  109MOL   H32035096   5.479   5.363   3.500  0.1995 -0.8219 -0.7811
  109MOL   H32135097   5.395   5.315   3.343 -0.3945 -2.3786  1.3125
  109MOL   H32235098   5.402   5.800   3.431  0.0349  0.7760  0.2109
  110MOL     C135099   1.441   6.101   5.639 -0.2079 -0.1690  0.0697
  110MOL     C235100   1.459   6.038   5.501 -0.2914 -0.0652  0.4472
  110MOL     O335101   1.591   6.072   5.453  0.7920  0.1588  0.3550
  110MOL     C435102   1.600   6.205   5.402 -0.0970  0.0427  0.4841
  110MOL     C535103   1.538   6.209   5.260  0.3521 -0.0825  0.4946
  110MOL     C635104   1.747   6.240   5.392 -0.2894 -0.2110 -0.3440
  110MOL     H735105   1.472   6.205   5.643 -2.9758  0.8140 -1.9309
  110MOL     H835106   1.333   6.095   5.657 -0.1562 -1.4631 -0.0370
  110MOL     H935107   1.386   6.077   5.431 -0.7239  0.3695  1.1412
  110MOL    H1035108   1.546   6.271   5.469  1.4330  1.4571  0.3568
  110MOL    H1135109   1.524   6.312   5.229  1.8787 -0.2248 -0.7550
  110MOL    H1235110   1.605   6.151   5.196 -1.8161  0.3735 -2.3071
  110MOL    H1335111   1.437   6.168   5.249 -0.3776  1.2468  2.0280
  110MOL    H1435112   1.798   6.168   5.328 -1.0595 -1.8581  0.8505
  110MOL    H1535113   1.757   6.339   5.349  0.7519 -0.4203 -0.6054
  110MOL    H1635114   1.804   6.239   5.484 -1.0040  2.1561  0.1602
  110MOL    H1735115   1.489   6.043   5.717 -1.4932 -0.1255  0.9037
  110MOL    C1835116   1.448   5.883   5.499  0.4318  0.4458  0.3399
  110MOL    C1935117   1.387   5.815   5.375  0.1154  0.0409 -0.1133
  110MOL    O2035118   1.276   5.735   5.417 -0.4499 -0.2541  0.3001
  110MOL    C2135119   1.152   5.757   5.353  0.0456 -0.1807  0.8558
  110MOL    C2235120   1.067   5.853   5.434  0.6317 -0.1683 -0.3968
  110MOL    C2335121   1.088   5.620   5.351  0.3617 -0.1173  0.0831
  110MOL    H2435122   1.544   5.838   5.523 -0.0028 -0.6273  0.1325
  110MOL    H2535123   1.391   5.857   5.589 -0.0252  0.2142 -0.0088
  110MOL    H2635124   1.347   5.883   5.300  0.6684 -1.9272 -2.2552
  110MOL    H2735125   1.162   5.798   5.253 -0.5812 -1.3586  0.2958
  110MOL    H2835126   0.958   5.855   5.428  0.5790  1.4447  0.7048
  110MOL    H2935127   1.087   5.838   5.540 -0.3587 -1.9966 -0.4411
  110MOL    H3035128   1.100   5.954   5.409  1.8127 -0.5761 -0.5086
  110MOL    H3135129   1.145   5.565   5.277  1.5664 -0.1021  0.9895
  110MOL    H3235130   0.984   5.619   5.318  0.0917  1.3218  0.8536
  110MOL    H3335131   1.109   5.573   5.447  1.5367  3.7805  1.8152
  110MOL    C3435132   1.482   5.726   5.300 -0.3141  0.4188  0.5464
  110MOL    C3535133   1.554   5.795   5.179  0.0282  0.0906 -0.6972
  110MOL    O3635134   1.686   5.736   5.161  0.0254 -0.0108  0.5251
  110MOL    C3735135   1.792   5.783   5.252 -1.2633  0.1506  0.1656
  110MOL    C3835136   1.893   5.659   5.261  0.4266 -0.2570  0.4724
  110MOL    C3935137   1.867   5.904   5.193 -0.1298 -0.1415  1.3477
  110MOL    H4035138   1.430   5.637   5.264  1.3810 -1.3593  2.3548
  110MOL    H4135139   1.561   5.687   5.364 -0.0575  0.1848  0.0939
  110MOL    H4235140   1.567   5.898   5.214  1.8573  0.3535 -2.0618
  110MOL    H4335141   1.758   5.821   5.348  2.0523  2.0214  0.6728
  110MOL    H4435142   1.931   5.639   5.160  3.3153  1.2268  1.2216
  110MOL    H4535143   1.842   5.576   5.311  0.7664 -0.0874  1.0985
  110MOL    H4635144   1.977   5.681   5.325  1.5793 -0.3781 -0.9653
  110MOL    H4735145   1.892   5.879   5.090  0.4783 -1.3321  1.7652
  110MOL    H4835146   1.813   5.998   5.194  0.4801  0.2166  3.0510
  110MOL    H4935147   1.955   5.933   5.251  1.4469  0.8253 -1.4625
  110MOL    C5035148   1.450   5.818   5.062 -0.4963  0.7174  0.1025
  110MOL    C5135149   1.525   5.846   4.938 -0.0707 -0.5382 -0.0929
  110MOL    O5235150   1.609   5.963   4.944 -0.7670  0.0088 -0.5178
  110MOL    C5335151   1.680   6.026   4.842 -0.6402  1.2101 -0.5215
  110MOL    C5435152   1.784   5.929   4.791  0.1225  0.7342 -0.2165
  110MOL    C5535153   1.729   6.156   4.901  0.3314  0.2186 -0.1900
  110MOL    H5635154   1.400   5.721   5.053  0.2079  0.3036  0.6087
  110MOL    H5735155   1.379   5.899   5.081  0.7455  1.8208  0.0961
  110MOL    H5835156   1.593   5.762   4.920  0.2720 -0.4773  0.8731
  110MOL    H5935157   1.623   6.046   4.751  1.2786  0.0959 -1.9936
  110MOL    H6035158   1.840   5.898   4.878 -1.4805 -0.4413  0.4174
  110MOL    H6135159   1.852   5.971   4.717  2.0493 -1.7094  0.1331
  110MOL    H6235160   1.749   5.840   4.739  0.4328 -1.6179  3.4977
  110MOL    H6335161   1.810   6.147   4.973 -2.1778 -1.1710  2.5895
  110MOL    H6435162   1.657   6.216   4.957  0.3631  0.8596 -0.8153
  110MOL    H6535163   1.766   6.227   4.826  2.5591  0.2808  0.9476
  110MOL    C6635164   1.439   5.849   4.810 -0.5185  0.5066  0.5223
  110MOL    C6735165   1.347   5.725   4.788 -0.3776 -0.1816  0.2025
  110MOL    O6835166   1.332   5.720   4.647  0.4360  0.3968  0.3999
  110MOL    C6935167   1.336   5.594   4.590  1.1114  0.4509 -0.1286
  110MOL    C7035168   1.238   5.594   4.469 -0.0165  0.4435 -0.6996
  110MOL    C7135169   1.478   5.564   4.540 -0.6141  0.1729  0.4911
  110MOL    H7235170   1.374   5.936   4.819 -4.0865 -2.0274  0.2961
  110MOL    H7335171   1.498   5.858   4.718  2.7037  0.4105  2.4842
  110MOL    H7435172   1.399   5.636   4.825 -0.7416  0.4843  2.3910
  110MOL    H7535173   1.318   5.522   4.670 -0.8582 -0.9651 -1.7914
  110MOL    H7635174   1.135   5.608   4.504  0.0811  1.8475 -0.9505
  110MOL    H7735175   1.255   5.681   4.405 -3.7478  0.7989 -1.3401
  110MOL    H7835176   1.250   5.506   4.406  2.3206  0.5695 -0.4498
  110MOL    H7935177   1.496   5.457   4.531  0.3246  0.2801  1.0194
  110MOL    H8035178   1.549   5.603   4.613 -2.0351  3.4508  0.2371
  110MOL    H8135179   1.507   5.618   4.450  1.5569  0.8824  1.5793
  110MOL    C8235180   1.200   5.748   4.844 -0.2321  0.4539 -0.1852
  110MOL    C8335181   1.113   5.627   4.859 -0.5096 -0.6277  0.0878
  110MOL    O8435182   1.171   5.557   4.971  0.9317  0.5164 -0.0212
  110MOL    C8535183   1.183   5.416   4.970  0.2488 -0.8833  0.3803
  110MOL    C8635184   1.053   5.355   5.020  0.0802  0.4759  0.1238
  110MOL    C8735185   1.305   5.388   5.070 -0.0717 -0.3891 -0.5181
  110MOL    H8835186   1.204   5.813   4.931 -1.7383  0.3770 -0.0487
  110MOL    H8935187   1.147   5.815   4.777 -0.8158  2.2300  1.9892
  110MOL    H9035188   1.119   5.568   4.767  0.6713  1.0954 -0.9741
  110MOL    H9135189   1.209   5.380   4.870  0.2467 -0.4138  0.2129
  110MOL    H9235190   1.018   5.414   5.105 -0.6690 -1.1883  0.9957
  110MOL    H9335191   0.987   5.377   4.936  0.9382 -1.0261 -0.9695
  110MOL    H9435192   1.062   5.248   5.040 -1.0598  0.2262 -0.6634
  110MOL    H9535193   1.343   5.286   5.071  1.0994  0.0292 -1.1323
  110MOL    H9635194   1.392   5.449   5.046  2.0517 -2.2499  2.0755
  110MOL    H9735195   1.274   5.426   5.167  1.6824 -1.1230  0.3556
  110MOL    C9835196   0.972   5.662   4.889 -0.3032 -0.1472 -0.2510
  110MOL    C9935197   0.878   5.694   4.775  0.9263 -0.2891  0.0259
  110MOL   O10035198   0.871   5.838   4.762 -0.1593 -0.1747 -0.0379
  110MOL   C10135199   0.834   5.875   4.626  0.3056  0.4794  0.0710
  110MOL   C10235200   0.966   5.910   4.556  0.0152  0.0123  0.1473
  110MOL   C10335201   0.754   6.003   4.621  0.1993 -0.4311  0.4419
  110MOL   H10435202   0.934   5.576   4.943  1.0276 -0.3397  0.4086
  110MOL   H10535203   0.979   5.742   4.961 -1.1517 -1.9432  1.8703
  110MOL   H10635204   0.914   5.653   4.681  0.1540  1.2562 -0.9669
  110MOL   H10735205   0.781   5.797   4.572  0.2708  1.9632 -2.0874
  110MOL   H10835206   0.956   5.926   4.449  2.2465 -1.7539 -0.3668
  110MOL   H10935207   1.035   5.826   4.564 -0.7890 -0.5472  1.3363
  110MOL   H11035208   1.007   5.997   4.607 -0.8319 -0.1387  1.1175
  110MOL   H11135209   0.656   5.998   4.668 -0.1869  1.8711 -0.0381
  110MOL   H11235210   0.724   6.017   4.517 -0.8121 -3.0662  0.3424
  110MOL   H11335211   0.805   6.090   4.661 -0.2381 -0.0364  0.1523
  110MOL   C11435212   0.731   5.649   4.803 -0.5759  0.2224 -0.3008
  110MOL   C11535213   0.709   5.497   4.816  0.1635 -0.2529 -0.5797
  110MOL   O11635214   0.629   5.486   4.940  0.6255  0.0728  0.8742
  110MOL   C11735215   0.682   5.426   5.060 -0.3218 -0.0781  0.3968
  110MOL   C11835216   0.713   5.276   5.033  0.0941 -0.1951 -0.0838
  110MOL   C11935217   0.575   5.435   5.169  0.2958  0.1779 -0.0447
  110MOL   H12035218   0.667   5.685   4.723  2.4326 -0.3276 -3.0396
  110MOL   H12135219   0.693   5.690   4.897  0.8953 -0.7835  0.7479
  110MOL   H12235220   0.796   5.434   4.830 -0.4975 -1.3845 -1.5088
  110MOL   H12335221   0.772   5.484   5.079 -0.4917 -0.4052  2.2847
  110MOL   H12435222   0.740   5.228   5.127 -1.5064  1.1609  1.1204
  110MOL   H12535223   0.784   5.259   4.952  1.3131  0.3672  0.8417
  110MOL   H12635224   0.619   5.229   5.003  0.4647 -1.5952  0.9045
  110MOL   H12735225   0.534   5.534   5.188 -0.3823  0.0614 -0.8517
  110MOL   H12835226   0.592   5.391   5.267 -1.6039 -0.1942  0.1356
  110MOL   H12935227   0.487   5.384   5.130  0.1214  0.8557 -0.5470
  110MOL   C13035228   0.613   5.442   4.698 -0.0371 -0.2450 -0.3743
  110MOL   C13135229   0.633   5.291   4.675 -0.2558  0.1202  0.4352
  110MOL   O13235230   0.764   5.280   4.612  0.2658  0.2771 -0.2829
  110MOL   C13335231   0.850   5.186   4.670 -0.5242  0.1313 -0.1237
  110MOL   C13435232   0.845   5.054   4.595 -0.2801  0.6704 -0.8349
  110MOL   C13535233   0.986   5.257   4.652 -0.4350 -0.0294  0.4356
  110MOL   H13635234   0.634   5.490   4.602  3.3244 -0.4411  0.1740
  110MOL   H13735235   0.514   5.475   4.727  0.5614 -0.7406  2.3874
  110MOL   H13835236   0.622   5.228   4.764 -3.9261 -0.6977 -0.5341
  110MOL   H13935237   0.825   5.162   4.773  0.9558 -0.2973  0.1457
  110MOL   H14035238   0.916   4.982   4.637  0.9001  1.9052 -0.6927
  110MOL   H14135239   0.865   5.058   4.488  0.8022 -0.6630 -0.7060
  110MOL   H14235240   0.747   5.007   4.601  0.9653 -1.9959 -0.5453
  110MOL   H14335241   0.985   5.363   4.679 -0.6090  0.0547  0.0967
  110MOL   H14435242   1.065   5.200   4.703 -2.1195 -1.5242  1.4343
  110MOL   H14535243   1.016   5.263   4.548  1.6139  1.5550  1.0698
  110MOL   C14635244   0.533   5.239   4.577  0.5280  0.0283 -0.2986
  110MOL   C14735245   0.393   5.197   4.638 -0.4308 -0.2164  0.4096
  110MOL   O14835246   0.303   5.306   4.671  0.0766 -0.1976 -0.0287
  110MOL   C14935247   0.202   5.284   4.772  0.8760  0.4847 -0.4170
  110MOL   C15035248   0.075   5.347   4.733 -0.0036  0.3589  0.0809
  110MOL   C15135249   0.248   5.347   4.899 -0.6546 -0.4407  0.2482
  110MOL   H15235250   0.585   5.152   4.538  1.5470  0.7628 -0.5940
  110MOL   H15335251   0.535   5.300   4.487 -0.1757  0.7755  0.1879
  110MOL   H15435252   0.409   5.162   4.740  0.5896  1.3253  0.7856
  110MOL   H15535253   0.170   5.180   4.785 -0.5074  0.7216 -1.8441
  110MOL   H15635254   7.820   5.370   4.808 -0.4961  1.2988 -0.6908
  110MOL   H15735255   0.027   5.296   4.649  0.1247  1.2414 -0.5325
  110MOL   H15835256   0.109   5.445   4.700 -0.4517  0.2108 -0.8551
  110MOL   H15935257   0.174   5.356   4.979  2.1363 -0.6892  2.9233
  110MOL   H16035258   0.283   5.449   4.882  0.8552 -1.0455 -0.3402
  110MOL   H16135259   0.333   5.311   4.956  0.3838 -1.9017 -2.1516
  110MOL   C16235260   0.312   5.098   4.550 -0.9773 -0.4043  0.0169
  110MOL   C16335261   0.357   4.946   4.575  0.2032  0.0993  0.1262
  110MOL   O16435262   0.350   4.918   4.715 -0.0861  0.4979 -0.1539
  110MOL   C16535263   0.473   4.897   4.787  0.2840 -0.2684  0.6149
  110MOL   C16635264   0.528   4.759   4.753  0.2907 -0.1137  0.4158
  110MOL   C16735265   0.439   4.928   4.933 -0.1945 -0.2338 -0.7754
  110MOL   H16835266   0.205   5.104   4.569 -0.9926 -1.4186  0.2755
  110MOL   H16935267   0.306   5.124   4.444 -1.2972  0.9885  0.3687
  110MOL   H17035268   0.460   4.940   4.542  0.8838  0.0120  2.1660
  110MOL   H17135269   0.552   4.966   4.760  0.5102 -0.3800  0.9860
  110MOL   H17235270   0.552   4.751   4.647  0.2369  0.8403  0.3318
  110MOL   H17335271   0.463   4.672   4.772  0.6767 -0.4603  0.1629
  110MOL   H17435272   0.622   4.737   4.804  0.7429 -0.1527 -0.4271
  110MOL   H17535273   0.371   4.857   4.981 -0.1726  1.6488  2.1198
  110MOL   H17635274   0.396   5.027   4.948  3.0661  1.1895 -0.4945
  110MOL   H17735275   0.526   4.932   4.999 -1.6055  1.7768  1.0364
  110MOL   C17835276   0.279   4.839   4.500 -0.4531  0.0322  0.2427
  110MOL   C17935277   0.318   4.817   4.355 -1.0058  0.9280 -0.3631
  110MOL   O18035278   0.431   4.739   4.363  0.1626 -0.5326  0.6021
  110MOL   C18135279   0.536   4.774   4.279  0.1727 -0.1230 -0.3408
  110MOL   C18235280   0.607   4.639   4.244  0.3562  0.2370 -0.1680
  110MOL   C18335281   0.630   4.857   4.355 -0.2883  0.1234 -0.3719
  110MOL   H18435282   0.175   4.868   4.510 -0.2114  1.1150 -0.3415
  110MOL   H18535283   0.293   4.743   4.551 -1.3658  0.2382  0.8874
  110MOL   H18635284   0.341   4.915   4.313  1.0035  0.1270 -1.1675
  110MOL   H18735285   0.501   4.822   4.188  0.3270  2.1897  0.7852
  110MOL   H18835286   0.633   4.590   4.338  1.1313 -0.2799 -0.6539
  110MOL   H18935287   0.690   4.661   4.177 -0.1804  1.4839 -0.4536
  110MOL   H19035288   0.545   4.573   4.183  0.8755  1.2842 -1.8696
  110MOL   H19135289   0.580   4.951   4.380 -1.2680 -0.4313 -0.2386
  110MOL   H19235290   0.709   4.905   4.297 -1.6263  0.2576 -2.1013
  110MOL   H19335291   0.675   4.817   4.446  0.7839 -0.1545 -1.0119
  110MOL   C19435292   0.201   4.745   4.289 -0.1762 -0.5321 -0.1684
  110MOL   C19535293   0.196   4.720   4.133 -0.1775  0.5538  0.9316
  110MOL   O19635294   0.299   4.622   4.116  0.5709  0.6172  0.7374
  110MOL   C19735295   0.287   4.528   4.014 -0.0721  0.5190 -0.2420
  110MOL   C19835296   0.409   4.528   3.918  0.3369 -0.2329 -0.5506
  110MOL   C19935297   0.293   4.389   4.080  0.3188  0.0011 -0.6785
  110MOL   H20035298   0.186   4.650   4.340 -0.5344  0.3045  1.3352
  110MOL   H20135299   0.105   4.794   4.309 -0.4897  0.0107 -2.8183
  110MOL   H20235300   0.104   4.663   4.124  0.5499 -0.2647 -1.8715
  110MOL   H20335301   0.190   4.541   3.966  0.3025 -0.0336 -1.1648
  110MOL   H20435302   0.504   4.507   3.967  1.3173 -1.9788 -3.0474
  110MOL   H20535303   0.397   4.438   3.857  1.8887 -0.9143  0.1034
  110MOL   H20635304   0.424   4.619   3.860  0.7987  0.8084  1.1924
  110MOL   H20735305   0.392   4.357   4.111 -0.2197 -1.1737 -0.1431
  110MOL   H20835306   0.221   4.382   4.161 -1.4424  1.5469 -2.0389
  110MOL   H20935307   0.259   4.321   4.002 -0.5743  0.3459 -0.5921
  110MOL   C21035308   0.220   4.837   4.030 -0.4012 -0.8207  0.1525
  110MOL   C21135309   0.098   4.938   4.027  0.2598 -0.5304 -0.1346
  110MOL   O21235310   0.083   5.000   4.152 -0.1905 -0.0190  0.1076
  110MOL   C21335311   7.781   5.061   4.184 -0.3176 -0.4148  0.2871
  110MOL   C21435312   7.703   4.965   4.279  0.3854 -0.0570 -0.3264
  110MOL   C21535313   7.801   5.190   4.267 -0.0070  0.0956 -0.7462
  110MOL   H21635314   0.243   4.785   3.937 -0.5931  0.7492 -0.7918
  110MOL   H21735315   0.311   4.891   4.056 -0.4954 -1.2012  1.3036
  110MOL   H21835316   0.004   4.888   4.007 -0.3851  1.1073 -1.3688
  110MOL   H21935317   7.733   5.072   4.088  1.3548 -1.3618 -0.6909
  110MOL   H22035318   7.602   5.000   4.301 -0.7181 -1.1684 -3.3947
  110MOL   H22135319   7.752   4.956   4.376 -3.0585 -0.8361  1.4579
  110MOL   H22235320   7.699   4.867   4.231  0.6959  0.3942 -1.2788
  110MOL   H22335321   0.048   5.266   4.230  2.2348 -1.2386  0.5005
  110MOL   H22435322   0.017   5.164   4.366 -0.1280 -0.4010 -0.8293
  110MOL   H22535323   7.704   5.238   4.281  0.8395  2.6850 -3.4479
  110MOL   C22635324   0.115   5.042   3.915 -0.0886  0.2660  0.2681
  110MOL   C22735325   0.061   5.005   3.777 -0.2074  0.0752  0.2022
  110MOL   O22835326   0.130   4.886   3.739  0.1773 -0.1151 -0.5974
  110MOL   C22935327   0.052   4.811   3.647  0.7320 -0.1747 -0.3484
  110MOL   C23035328   7.813   4.698   3.728  0.1114  0.2190 -0.0534
  110MOL   C23135329   0.157   4.755   3.555  0.5230 -0.2882  0.2475
  110MOL   H23235330   0.220   5.071   3.904 -0.2075 -0.1488 -2.2364
  110MOL   H23335331   0.064   5.133   3.947 -0.7932  0.6710 -1.9356
  110MOL   H23435332   7.777   4.976   3.784 -0.5529 -0.0354 -4.0761
  110MOL   H23535333   7.808   4.876   3.588  1.4714  0.4257 -0.5030
  110MOL   H23635334   7.732   4.726   3.796  1.4978  1.0634  1.2854
  110MOL   H23735335   7.768   4.624   3.662 -2.6398  1.5782  0.2280
  110MOL   H23835336   0.069   4.646   3.785 -0.5953 -0.8996 -0.1134
  110MOL   H23935337   0.188   4.843   3.500 -0.9978 -0.4760 -0.9325
  110MOL   H24035338   0.125   4.676   3.487 -1.1734 -0.6116  1.3836
  110MOL   H24135339   0.247   4.715   3.604 -0.8116 -0.4723  2.6355
  110MOL   C24235340   0.079   5.116   3.676 -0.4484 -0.1721  0.3182
  110MOL   C24335341   7.789   5.215   3.677  0.3007 -0.6343 -0.0501
  110MOL   O24435342   7.688   5.139   3.614 -0.0977 -0.2045  0.7081
  110MOL   C24535343   7.557   5.154   3.659 -0.1454  0.1272 -0.4117
  110MOL   C24635344   7.479   5.120   3.535 -0.1304  0.1003 -0.2415
  110MOL   C24735345   7.514   5.081   3.788 -0.1434 -0.1608 -0.2063
  110MOL   H24835346   0.177   5.161   3.696 -0.4110 -0.4855  0.8573
  110MOL   H24935347   0.094   5.081   3.574  2.2846 -0.6499  0.8454
  110MOL   H25035348   7.767   5.249   3.778 -0.3053 -0.0017 -0.3947
  110MOL   H25135349   7.552   5.260   3.684 -0.9739  0.2251 -0.9829
  110MOL   H25235350   7.484   5.014   3.508  1.4331  0.4525 -1.4317
  110MOL   H25335351   7.377   5.156   3.542  0.1977  0.8243  0.8998
  110MOL   H25435352   7.522   5.188   3.462  1.0909  1.0717  1.3549
  110MOL   H25535353   7.568   5.119   3.874  0.7034  0.8995 -1.1796
  110MOL   H25635354   7.409   5.107   3.800  0.6739  4.5279 -1.9344
  110MOL   H25735355   7.517   4.972   3.784 -1.3245 -0.3077  2.1707
  110MOL   C25835356   7.803   5.350   3.596 -0.0182  0.3839  0.1379
  110MOL   C25935357   0.071   5.455   3.659  0.8566  0.2073  0.2521
  110MOL   O26035358   7.811   5.498   3.763  0.4017  0.1339  0.3516
  110MOL   C26135359   0.040   5.579   3.872 -0.6261  0.2744  0.2188
  110MOL   C26235360   7.752   5.672   3.927  0.1891 -0.5723 -0.0976
  110MOL   C26335361   0.097   5.478   3.974  0.3926 -0.4793 -0.5614
  110MOL   H26435362   0.025   5.324   3.499  0.8980  1.5503  0.2132
  110MOL   H26535363   7.704   5.390   3.575  1.0753  1.7707 -2.5742
  110MOL   H26635364   0.161   5.412   3.702  0.0132 -2.0361 -0.1765
  110MOL   H26735365   0.129   5.627   3.830 -0.4167 -0.9256 -0.7310
  110MOL   H26835366   7.667   5.617   3.965  2.1167 -2.0807  2.1404
  110MOL   H26935367   7.724   5.756   3.863 -0.5067  0.7768  1.9591
  110MOL   H27035368   7.783   5.722   4.019 -1.5054  1.7497 -0.7588
  110MOL   H27135369   0.146   5.524   4.060  0.0673  1.3245 -1.3113
  110MOL   H27235370   0.014   5.415   4.007 -1.4179  1.8470 -0.5698
  110MOL   H27335371   0.169   5.410   3.929 -1.8873 -3.6639  0.4557
  110MOL   C27435372   0.106   5.575   3.568 -1.3194 -0.5657  0.3818
  110MOL   C27535373   7.813   5.643   3.486 -0.4473  0.5375 -0.0332
  110MOL   O27635374   0.026   5.779   3.470  0.4320  0.0534 -0.0539
  110MOL   C27735375   7.815   5.878   3.570  0.3953  0.1063  0.0974
  110MOL   C27835376   7.715   5.979   3.525  0.3356  0.0031  0.0559
  110MOL   C27935377   0.122   5.953   3.607  0.2091  0.2534  0.3376
  110MOL   H28035378   0.161   5.644   3.632 -0.2828 -2.3628  1.4628
  110MOL   H28135379   0.184   5.542   3.500  0.4719 -2.2950  3.1402
  110MOL   H28235380   7.717   5.637   3.538 -0.1534  2.4171  0.8020
  110MOL   H28335381   7.781   5.826   3.660  2.2852 -1.3397  0.0127
  110MOL   H28435382   7.617   5.932   3.527  1.7538 -3.0215  1.1591
  110MOL   H28535383   7.708   6.069   3.586 -1.2624  0.2902 -0.5176
  110MOL   H28635384   7.751   6.014   3.428  2.3129 -0.4623  0.5994
  110MOL   H28735385   0.199   5.896   3.660  0.0796  0.2617  0.5365
  110MOL   H28835386   0.101   6.047   3.658  1.3927  0.5304  0.3367
  110MOL   H28935387   0.164   5.986   3.512  0.8890  0.7124  0.7856
  110MOL   C29035388   7.794   5.588   3.337  0.3994 -0.0787 -0.4396
  110MOL   C29135389   7.679   5.656   3.269  0.4344  0.1854  0.1484
  110MOL   O29235390   7.685   5.602   3.142  0.2096 -0.3066  0.1959
  110MOL   C29335391   7.755   5.687   3.052 -0.0066 -0.0748 -0.7724
  110MOL   C29435392   7.650   5.778   2.982  0.4232 -0.2707 -0.0058
  110MOL   C29535393   0.000   5.584   2.964 -0.2233  0.1149 -0.1654
  110MOL   H29635394   7.774   5.482   3.349  2.3274 -0.4067  0.0816
  110MOL   H29735395   0.058   5.609   3.270 -0.2086  2.1298 -0.5637
  110MOL   H29835396   7.700   5.763   3.277  0.9179  0.1587 -0.6445
  110MOL   H29935397   0.017   5.742   3.099  0.1642 -0.7772 -0.2352
  110MOL   H30035398   7.612   5.848   3.056  2.0682 -0.8402  1.4421
  110MOL   H30135399   7.703   5.836   2.906  0.5561 -1.3199 -0.7233
  110MOL   H30235400   7.564   5.730   2.936  1.4270 -1.7718 -0.3857
  110MOL   H30335401   7.745   5.527   2.911 -1.8467  1.9074  0.1673
  110MOL   H30435402   0.049   5.640   2.884  0.5533  0.4888  0.5493
  110MOL   H30535403   0.082   5.534   3.016  0.9177 -0.4512 -2.4305
  110MOL   C30635404   7.539   5.608   3.327  0.2765 -0.6377  0.3509
  110MOL   C30735405   7.414   5.664   3.253 -0.3103 -0.1186  0.1231
  110MOL   O30835406   7.292   5.626   3.318 -0.5682  0.0997  0.0477
  110MOL   C30935407   7.212   5.529   3.253  0.0503  0.0807 -0.9238
  110MOL   C31035408   7.295   5.414   3.209  0.0795 -0.3635 -0.0123
  110MOL   C31135409   7.104   5.494   3.360  0.2469  0.1149 -0.3956
  110MOL   H31235410   7.522   5.638   3.431 -0.7083  0.9096 -0.2464
  110MOL   H31335411   7.541   5.499   3.319 -0.3798 -0.6363  0.1992
  110MOL   H31435412   7.425   5.772   3.245  2.8787 -0.3726  0.5111
  110MOL   H31535413   7.164   5.586   3.173  1.1060  1.6001 -0.5055
  110MOL   H31635414   7.372   5.446   3.138 -0.5007  1.9861  0.3837
  110MOL   H31735415   7.236   5.328   3.175 -1.1497 -0.2254  1.7348
  110MOL   H31835416   7.353   5.379   3.294  0.0774  1.8953  0.9305
  110MOL   H31935417   7.057   5.397   3.348  1.0401 -0.1947 -1.1108
  110MOL   H32035418   7.028   5.571   3.357 -0.6313 -0.7420 -0.2063
  110MOL   H32135419   7.130   5.493   3.466 -2.3801 -1.4846  0.2626
  110MOL   H32235420   7.421   5.640   3.147 -1.2075 -0.7157  0.1930
  111MOL     C135421   0.933   4.604   4.754  0.0035  0.6595 -0.5844
  111MOL     C235422   1.040   4.535   4.842 -0.5798  0.2785  0.1239
  111MOL     O335423   1.075   4.418   4.767 -0.3840 -0.1424  0.5825
  111MOL     C435424   1.170   4.322   4.818  0.0924 -0.7053  0.0347
  111MOL     C535425   1.307   4.341   4.756  0.2503 -0.3475 -0.5377
  111MOL     C635426   1.112   4.190   4.775  0.6094 -0.9332  0.1440
  111MOL     H735427   0.979   4.628   4.659 -0.3141 -1.1234 -1.2153
  111MOL     H835428   0.851   4.534   4.736  2.0307 -1.6231 -1.0962
  111MOL     H935429   0.990   4.499   4.932  1.5459 -0.8665  0.8877
  111MOL    H1035430   1.165   4.328   4.926  1.8152 -0.9920  0.1397
  111MOL    H1135431   1.299   4.358   4.649  0.6600 -0.5210 -0.5999
  111MOL    H1235432   1.345   4.440   4.783 -0.1805 -0.6358  1.2334
  111MOL    H1335433   1.384   4.267   4.779  0.5667 -0.1092 -0.8239
  111MOL    H1435434   1.009   4.186   4.811  0.3105 -1.3577 -0.7481
  111MOL    H1535435   1.109   4.189   4.666 -1.1618  0.3229  0.1449
  111MOL    H1635436   1.167   4.100   4.802 -1.8066 -1.9726  1.7820
  111MOL    H1735437   0.893   4.696   4.797  1.6490  1.2430 -0.2667
  111MOL    C1835438   1.162   4.632   4.871 -0.2069 -0.0748 -0.7159
  111MOL    C1935439   1.125   4.762   4.954  0.2497 -0.4659  0.4985
  111MOL    O2035440   1.229   4.862   4.923 -0.0244 -0.2755 -0.1258
  111MOL    C2135441   1.197   4.970   4.837 -0.5062 -0.5106 -0.2661
  111MOL    C2235442   1.208   4.935   4.687  0.6393 -0.1193  0.3660
  111MOL    C2335443   1.311   5.072   4.877  0.0958  0.0705  0.6145
  111MOL    H2435444   1.233   4.576   4.931 -0.1752  0.2217 -0.4717
  111MOL    H2535445   1.206   4.655   4.774  2.2429 -1.2289  0.0950
  111MOL    H2635446   1.025   4.794   4.925  1.2111  0.6061 -1.7736
  111MOL    H2735447   1.103   5.016   4.867  0.5081  1.0370  0.6113
  111MOL    H2835448   1.310   4.909   4.659  0.8744  1.3855 -0.1999
  111MOL    H2935449   1.142   4.853   4.659  2.5598 -1.0701 -1.5214
  111MOL    H3035450   1.188   5.024   4.627 -2.2354 -0.5622  0.6227
  111MOL    H3135451   1.288   5.174   4.846 -3.4679 -1.2980 -1.6363
  111MOL    H3235452   1.416   5.044   4.862  0.2293  1.4007 -1.1702
  111MOL    H3335453   1.307   5.077   4.985  3.2709  1.2788  0.7145
  111MOL    C3435454   1.127   4.755   5.104  0.2612  0.0998 -0.2739
  111MOL    C3535455   1.055   4.882   5.171 -0.8046  0.5465 -0.0979
  111MOL    O3635456   0.910   4.860   5.153  0.4560 -0.5579  0.4248
  111MOL    C3735457   0.830   4.967   5.122 -0.3443 -0.1599  0.0021
  111MOL    C3835458   0.807   4.945   4.973  0.5789 -0.1064 -0.3805
  111MOL    C3935459   0.708   4.961   5.207 -0.1558  0.2416  0.0642
  111MOL    H4035460   1.229   4.745   5.140  0.3047 -0.6756 -0.5968
  111MOL    H4135461   1.074   4.663   5.130 -0.0510 -0.2308 -2.0048
  111MOL    H4235462   1.098   4.974   5.132  0.9717  0.2629  1.1353
  111MOL    H4335463   0.881   5.061   5.138 -0.6245  0.2025 -1.1716
  111MOL    H4435464   0.730   5.017   4.943  0.2778  0.2222  1.1735
  111MOL    H4535465   0.765   4.849   4.945 -0.0581 -0.3056  1.2672
  111MOL    H4635466   0.894   4.963   4.909  0.5528  1.9540  0.1084
  111MOL    H4735467   0.625   5.027   5.180  1.2936  2.4226  0.8800
  111MOL    H4835468   0.668   4.860   5.196  0.9656 -0.1951 -0.0400
  111MOL    H4935469   0.738   4.992   5.306 -1.7044  0.6646  0.4192
  111MOL    C5035470   1.068   4.904   5.325 -1.3200 -0.3704 -0.1200
  111MOL    C5135471   1.222   4.927   5.365 -0.0067  0.5187  0.0447
  111MOL    O5235472   1.232   4.911   5.512  0.2876  0.1048  0.3154
  111MOL    C5335473   1.315   4.800   5.552 -0.0566 -0.1207 -0.1890
  111MOL    C5435474   1.234   4.674   5.550 -0.0170  0.0871  0.3011
  111MOL    C5535475   1.371   4.835   5.693  0.9591 -0.4682 -0.0091
  111MOL    H5635476   1.009   4.991   5.354  1.2202  1.0881  0.8195
  111MOL    H5735477   1.054   4.808   5.376  0.3213 -0.1488  0.7771
  111MOL    H5835478   1.284   4.844   5.331 -0.4712  0.2452 -0.1488
  111MOL    H5935479   1.401   4.802   5.486 -0.3348 -1.0305 -0.5884
  111MOL    H6035480   1.138   4.687   5.601  0.3276  0.5641  0.8438
  111MOL    H6135481   1.289   4.583   5.571  0.2613  0.0702 -0.4897
  111MOL    H6235482   1.198   4.653   5.450  0.7398  2.1355 -0.4337
  111MOL    H6335483   1.428   4.929   5.691 -0.9650  0.7152 -1.6831
  111MOL    H6435484   1.439   4.761   5.733  0.2218 -0.4609  1.2654
  111MOL    H6535485   1.290   4.853   5.763  0.9843 -0.4430  0.0136
  111MOL    C6635486   1.278   5.063   5.312  0.2745 -0.1964 -0.4063
  111MOL    C6735487   1.427   5.096   5.354  0.3353  0.5270  0.6880
  111MOL    O6835488   1.463   5.230   5.328  0.5583 -0.0893  0.5802
  111MOL    C6935489   1.491   5.316   5.440 -0.3073  0.1939  0.2080
  111MOL    C7035490   1.601   5.412   5.390 -0.9890 -0.1967 -0.2052
  111MOL    C7135491   1.368   5.395   5.475  0.3017  0.1628  0.3696
  111MOL    H7235492   1.268   5.088   5.206 -0.1648  0.0110 -0.3176
  111MOL    H7335493   1.217   5.135   5.367 -0.1638 -1.8410  1.3120
  111MOL    H7435494   1.434   5.077   5.461 -1.5896 -0.0403  0.7449
  111MOL    H7535495   1.540   5.274   5.528  3.5214 -0.8319 -2.2575
  111MOL    H7635496   1.583   5.458   5.293 -0.9083  1.1418  0.3976
  111MOL    H7735497   1.613   5.494   5.461  1.3238  0.9974 -1.8956
  111MOL    H7835498   1.695   5.361   5.371 -1.0746 -1.0867  1.6993
  111MOL    H7935499   1.288   5.332   5.516  0.5392  0.2659  0.9994
  111MOL    H8035500   1.324   5.454   5.395 -1.8417 -1.3600  0.3756
  111MOL    H8135501   1.387   5.467   5.554 -1.1417  0.7853  0.1648
  111MOL    C8235502   1.512   5.009   5.260  0.1203 -0.2335 -0.2745
  111MOL    C8335503   1.667   4.995   5.285  0.2693  0.0791 -0.7695
  111MOL    O8435504   1.684   4.925   5.406 -0.2410 -0.3551 -0.7316
  111MOL    C8535505   1.807   4.931   5.471  0.2106  0.0888 -0.1604
  111MOL    C8635506   1.836   4.810   5.558  0.3451  0.0118  0.4591
  111MOL    C8735507   1.782   5.045   5.572  0.0542 -0.1936 -0.4676
  111MOL    H8835508   1.470   4.909   5.253  1.4864 -0.8028 -0.5767
  111MOL    H8935509   1.498   5.056   5.162  2.4640  1.9342  0.3600
  111MOL    H9035510   1.714   5.093   5.293  0.8809 -0.3583  1.1022
  111MOL    H9135511   1.895   4.958   5.413  1.4033  1.2715  2.0888
  111MOL    H9235512   1.753   4.776   5.620  0.2724 -1.2318 -0.2956
  111MOL    H9335513   1.845   4.721   5.495  1.3103  1.0164 -0.8441
  111MOL    H9435514   1.922   4.826   5.624  2.2886  0.4460 -2.0849
  111MOL    H9535515   1.756   5.134   5.516  0.7419 -1.1340 -2.3259
  111MOL    H9635516   1.704   5.027   5.646  0.4051  1.1286  0.2384
  111MOL    H9735517   1.873   5.071   5.625 -2.3284  3.2282  2.1486
  111MOL    C9835518   1.726   4.897   5.182 -0.1967  0.3260  0.3246
  111MOL    C9935519   1.720   4.932   5.031 -0.0149  0.1653 -0.1126
  111MOL   O10035520   1.745   4.818   4.960  0.3513 -0.0389 -0.3120
  111MOL   C10135521   1.636   4.728   4.918  0.2955 -0.5480 -0.2734
  111MOL   C10235522   1.702   4.593   4.904  0.5268 -0.5009  0.5983
  111MOL   C10335523   1.569   4.782   4.797  0.0443  0.7456  0.1458
  111MOL   H10435524   1.826   4.864   5.210  0.3776  2.9952  1.6390
  111MOL   H10535525   1.671   4.804   5.184  2.7614 -1.5375 -1.3054
  111MOL   H10635526   1.621   4.965   5.001 -0.4712 -0.7976  0.3566
  111MOL   H10735527   1.573   4.734   5.007  1.6839 -1.9258  0.8315
  111MOL   H10835528   1.733   4.546   4.997 -0.9001 -1.0794  0.7963
  111MOL   H10935529   1.787   4.589   4.836 -0.1725  0.3324 -0.3451
  111MOL   H11035530   1.614   4.536   4.873 -1.4924  0.6891  3.9362
  111MOL   H11135531   1.644   4.820   4.727 -0.2078 -0.8385 -1.0219
  111MOL   H11235532   1.511   4.871   4.824 -0.3907  1.3834 -2.6458
  111MOL   H11335533   1.493   4.718   4.750 -1.2283  1.4868  1.1628
  111MOL   C11435534   1.814   5.048   4.992  0.3938  0.6816 -0.0956
  111MOL   C11535535   1.785   5.102   4.848 -0.1261 -0.5346 -0.4786
  111MOL   O11635536   1.825   5.232   4.835  0.5137  0.8546 -0.3162
  111MOL   C11735537   1.728   5.322   4.892 -0.2236 -0.5588  0.0866
  111MOL   C11835538   1.608   5.346   4.802 -0.3195 -0.1304 -0.0996
  111MOL   C11935539   1.808   5.446   4.932  0.4901 -0.4335 -0.9548
  111MOL   H12035540   1.916   5.012   5.004  0.1141 -0.4675 -1.1572
  111MOL   H12135541   1.810   5.122   5.073  0.2209  0.3959  0.1596
  111MOL   H12235542   1.678   5.087   4.834 -0.1660 -1.2401  0.5385
  111MOL   H12335543   1.701   5.271   4.985 -0.4366  0.5537  0.6362
  111MOL   H12435544   1.521   5.372   4.861 -0.0852 -0.8317  0.5564
  111MOL   H12535545   1.564   5.263   4.747  0.6294  0.5073 -1.8565
  111MOL   H12635546   1.628   5.423   4.728 -0.6767  1.1608  1.1316
  111MOL   H12735547   1.875   5.411   5.010 -2.0825 -1.6776  0.7697
  111MOL   H12835548   1.739   5.524   4.967  1.3288 -0.1431  0.0859
  111MOL   H12935549   1.855   5.495   4.847  0.9099 -0.0258 -0.4897
  111MOL   C13035550   1.864   5.017   4.745 -0.8549  0.1634  0.8386
  111MOL   C13135551   1.816   5.023   4.599  0.1805  0.4583 -0.9635
  111MOL   O13235552   1.896   4.931   4.519  0.4138  0.3167  0.1289
  111MOL   C13335553   1.860   4.790   4.530 -0.2405  0.6354  0.4253
  111MOL   C13435554   1.734   4.758   4.460 -0.5640 -0.2358  0.2510
  111MOL   C13535555   1.983   4.724   4.472 -0.6372  0.2549 -0.1201
  111MOL   H13635556   1.863   4.916   4.785  0.0210  0.7030  2.2573
  111MOL   H13735557   1.971   5.034   4.756 -0.0282 -3.6268 -0.6601
  111MOL   H13835558   1.710   5.000   4.595  0.2808 -0.2062 -0.0090
  111MOL   H13935559   1.857   4.758   4.634 -0.0038 -2.1679 -0.3865
  111MOL   H14035560   1.650   4.822   4.487  0.7916  0.8672  1.9766
  111MOL   H14135561   1.704   4.657   4.434 -1.8935 -0.1156  1.2713
  111MOL   H14235562   1.740   4.791   4.356 -0.0827 -0.5113  0.1925
  111MOL   H14335563   2.073   4.753   4.527 -1.2533 -1.2902  1.7560
  111MOL   H14435564   1.974   4.615   4.473 -1.4858  0.3286  0.4159
  111MOL   H14535565   2.013   4.749   4.371 -0.0287 -0.0653 -0.0218
  111MOL   C14635566   1.827   5.165   4.527  0.0966  0.0879 -0.2625
  111MOL   C14735567   1.772   5.148   4.379 -0.0590  0.9173  0.0635
  111MOL   O14835568   1.633   5.107   4.386 -0.7935  0.3492  0.0184
  111MOL   C14935569   1.560   5.089   4.264  0.2841 -0.0046  0.2550
  111MOL   C15035570   1.423   5.030   4.299  0.5487 -0.2840  0.3671
  111MOL   C15135571   1.632   5.001   4.160  0.3210 -0.1958 -1.0206
  111MOL   H15235572   1.933   5.191   4.530  0.7961 -2.2751 -2.2967
  111MOL   H15335573   1.776   5.249   4.574  0.7574 -0.0392  0.7028
  111MOL   H15435574   1.812   5.060   4.328 -1.5078  0.3417 -0.0922
  111MOL   H15535575   1.541   5.189   4.224 -1.8901 -0.7929 -0.7847
  111MOL   H15635576   1.379   5.092   4.377 -0.5501  0.3437 -0.7513
  111MOL   H15735577   1.444   4.935   4.348  1.7319  0.3771  1.2058
  111MOL   H15835578   1.355   5.026   4.215  0.3440  2.6882  0.3436
  111MOL   H15935579   1.727   5.050   4.142  1.3448 -1.5978  0.4483
  111MOL   H16035580   1.583   5.002   4.063  0.8515  0.7295 -1.2831
  111MOL   H16135581   1.643   4.901   4.202 -1.6022 -0.8550 -2.0369
  111MOL   C16235582   1.794   5.276   4.302 -0.1342 -0.5566 -0.0021
  111MOL   C16335583   1.940   5.296   4.257  0.2277  0.3170 -0.5163
  111MOL   O16435584   1.965   5.211   4.140 -0.1769 -0.1026  0.2557
  111MOL   C16535585   2.096   5.159   4.125 -0.9045  0.1028  0.5745
  111MOL   C16635586   2.101   5.159   3.974 -0.0648 -0.8123  0.0755
  111MOL   C16735587   2.121   5.017   4.179 -0.3729 -0.8990  0.3493
  111MOL   H16835588   1.748   5.287   4.203 -2.9430  1.2804  1.4465
  111MOL   H16935589   1.751   5.361   4.355 -0.1422 -0.1153 -0.7018
  111MOL   H17035590   2.016   5.271   4.331 -0.8737 -1.7953 -0.0387
  111MOL   H17135591   2.176   5.227   4.154 -0.4467  0.3554 -1.2362
  111MOL   H17235592   2.102   5.263   3.940  2.2227 -1.1716 -1.0213
  111MOL   H17335593   2.006   5.118   3.939 -0.7863  2.1031 -1.6403
  111MOL   H17435594   2.194   5.120   3.935  0.4474  0.4424  0.0238
  111MOL   H17535595   2.079   4.931   4.125  1.7896 -0.4712 -2.1068
  111MOL   H17635596   2.095   5.015   4.285  3.1420 -0.9096  1.2857
  111MOL   H17735597   2.228   4.999   4.168 -0.3113 -0.9902  1.0784
  111MOL   C17835598   1.974   5.446   4.222  0.5679 -0.1543  0.1735
  111MOL   C17935599   1.961   5.547   4.342  0.8305  0.2859  0.0285
  111MOL   O18035600   2.056   5.512   4.442 -0.6413 -0.1765 -0.0839
  111MOL   C18135601   2.024   5.491   4.582  0.0978 -0.4039 -0.3859
  111MOL   C18235602   2.003   5.628   4.643  0.1090  1.3515 -0.1030
  111MOL   C18335603   2.149   5.424   4.633 -0.3539 -0.0249 -0.0497
  111MOL   H18435604   1.931   5.476   4.126 -0.9537  3.0734  1.7820
  111MOL   H18535605   2.077   5.434   4.190  0.6692 -0.1589  0.5000
  111MOL   H18635606   1.864   5.549   4.393  0.3920 -4.1842 -0.4407
  111MOL   H18735607   1.935   5.432   4.601  0.2417 -1.1075 -1.8404
  111MOL   H18835608   1.980   5.614   4.749 -1.5731  0.2599 -0.5973
  111MOL   H18935609   1.917   5.680   4.601  0.4216  1.4108 -0.6782
  111MOL   H19035610   2.084   5.701   4.630  1.8570 -0.6677 -0.8050
  111MOL   H19135611   2.235   5.483   4.604  0.2675 -1.8476 -2.0511
  111MOL   H19235612   2.147   5.326   4.585  0.3505  0.3667 -0.8791
  111MOL   H19335613   2.137   5.407   4.740 -1.3380  0.0578 -0.1379
  111MOL   C19435614   1.988   5.698   4.309  0.1429  0.9576 -0.0104
  111MOL   C19535615   1.872   5.762   4.223 -0.5891  0.6611  0.2546
  111MOL   O19635616   1.935   5.856   4.143 -0.1348 -0.3605 -0.5025
  111MOL   C19735617   1.988   5.819   4.012  0.5994  0.5235 -0.3154
  111MOL   C19835618   1.881   5.833   3.908  0.1860 -0.0817 -0.2639
  111MOL   C19935619   2.101   5.918   3.988  0.1019  0.2670  0.5266
  111MOL   H20035620   2.023   5.766   4.386  1.8276 -0.8137  0.8399
  111MOL   H20135621   2.083   5.695   4.255  0.1739  0.2101  0.0847
  111MOL   H20235622   1.821   5.686   4.164 -0.5324  0.3531  0.6066
  111MOL   H20335623   2.030   5.719   4.011 -2.3520 -0.7887  1.6382
  111MOL   H20435624   1.798   5.766   3.929  1.2432 -1.5207 -0.6478
  111MOL   H20535625   1.839   5.934   3.913  0.6157  0.2535 -2.6284
  111MOL   H20635626   1.921   5.815   3.808 -0.3417 -0.2617 -0.4475
  111MOL   H20735627   2.192   5.906   4.048  0.4969 -0.2804 -0.1794
  111MOL   H20835628   2.126   5.909   3.882 -1.3334 -0.8127  0.2694
  111MOL   H20935629   2.068   6.021   4.004 -0.3587  0.2603 -0.3991
  111MOL   C21035630   1.762   5.826   4.311  0.1341 -0.4946 -1.1258
  111MOL   C21135631   1.621   5.830   4.242 -0.3110 -0.2552  0.1769
  111MOL   O21235632   1.589   5.691   4.216  0.1994 -0.6394 -0.3136
  111MOL   C21335633   1.474   5.651   4.133 -0.3169 -0.0455 -0.1983
  111MOL   C21435634   1.495   5.697   3.989  1.0943 -0.0542  1.0184
  111MOL   C21535635   1.455   5.504   4.167  0.1436  0.3081 -0.3088
  111MOL   H21635636   1.784   5.922   4.358  2.6070 -1.0812 -1.0187
  111MOL   H21735637   1.747   5.765   4.401 -1.3728 -1.1044 -1.7719
  111MOL   H21835638   1.647   5.875   4.146  0.9822 -0.1594  0.5559
  111MOL   H21935639   1.384   5.692   4.178  0.1204  2.0272 -1.1844
  111MOL   H22035640   1.421   5.648   3.924  0.0545  2.3371  0.3372
  111MOL   H22135641   1.596   5.681   3.952  0.3246 -0.2484 -1.0998
  111MOL   H22235642   1.487   5.806   3.985 -1.1898 -0.1874  1.2558
  111MOL   H22335643   1.362   5.469   4.122  1.2322 -0.7163 -1.8016
  111MOL   H22435644   1.443   5.491   4.274 -0.5334 -0.3168 -0.4556
  111MOL   H22535645   1.528   5.430   4.136 -1.0357 -0.4262 -1.3951
  111MOL   C22635646   1.512   5.908   4.313 -0.3038  0.6392  0.3999
  111MOL   C22735647   1.535   6.069   4.324 -0.1638  0.4561  0.1393
  111MOL   O22835648   1.431   6.125   4.401  0.0997 -0.1975 -0.2199
  111MOL   C22935649   1.460   6.118   4.536  0.1041 -0.5616  0.0339
  111MOL   C23035650   1.313   6.121   4.582 -0.3299  0.1435  0.3728
  111MOL   C23135651   1.539   6.239   4.584 -0.8700  0.5857  0.9458
  111MOL   H23235652   1.511   5.863   4.412  3.6544 -1.3676 -0.4150
  111MOL   H23335653   1.416   5.890   4.265 -0.1554 -0.1681  0.3992
  111MOL   H23435654   1.630   6.081   4.375 -0.6852  1.0061  0.9877
  111MOL   H23535655   1.511   6.026   4.565  2.1724  0.3424 -0.7147
  111MOL   H23635656   1.262   6.194   4.519  1.5670  1.5134  0.3831
  111MOL   H23735657   1.253   6.033   4.561  0.4295 -0.0573 -1.0617
  111MOL   H23835658   1.302   6.145   4.687  1.3799 -0.4360  0.7112
  111MOL   H23935659   1.552   6.242   4.693  0.4711 -3.6965  1.0003
  111MOL   H24035660   1.496   6.333   4.548 -1.0983 -0.2125 -0.8802
  111MOL   H24135661   1.640   6.233   4.543 -1.5639  0.2947 -0.7378
  111MOL   C24235662   1.545   6.141   4.189 -0.3985  0.4951  0.1454
  111MOL   C24335663   1.571   6.293   4.214 -0.6679  0.1094 -0.5608
  111MOL   O24435664   1.510   6.372   4.116  0.5740  0.3063  0.1910
  111MOL   C24535665   1.371   6.408   4.119 -0.3665 -0.3996  0.3687
  111MOL   C24635666   1.344   6.525   4.216  0.5032 -0.3329  0.3483
  111MOL   C24735667   1.331   6.439   3.977  0.1969  0.4220  0.0405
  111MOL   H24835668   1.628   6.092   4.137 -1.2167  0.0567 -0.7702
  111MOL   H24935669   1.448   6.128   4.141  0.1871 -1.9954 -0.4457
  111MOL   H25035670   1.523   6.320   4.308 -0.3195  0.1747 -0.4017
  111MOL   H25135671   1.313   6.319   4.142  2.2292 -2.0686  0.6476
  111MOL   H25235672   1.380   6.506   4.317  1.1957  1.9646  0.5731
  111MOL   H25335673   1.406   6.608   4.182  1.4930 -0.0748  2.7204
  111MOL   H25435674   1.238   6.551   4.228  0.6220  1.2437 -1.7063
  111MOL   H25535675   1.225   6.465   3.977  0.0951  0.0159 -0.2857
  111MOL   H25635676   1.387   6.522   3.934  0.7293  1.0676  1.9160
  111MOL   H25735677   1.347   6.360   3.904  0.5258 -0.3910  0.9903
  111MOL   C25835678   1.723   6.336   4.217  0.2294  0.3766  0.6428
  111MOL   C25935679   1.755   6.483   4.243  0.4256  0.2455  0.7574
  111MOL   O26035680   1.895   6.515   4.203  0.3010  0.5028  0.6022
  111MOL   C26135681   1.932   6.514   4.062  0.2461 -0.1070 -0.1051
  111MOL   C26235682   1.930   6.660   4.022  0.2240 -0.6157  0.2016
  111MOL   C26335683   2.063   6.439   4.059  0.5102  0.0816 -0.1476
  111MOL   H26435684   1.779   6.279   4.292 -0.3647 -0.9344  0.1135
  111MOL   H26535685   1.762   6.307   4.120 -0.2153  0.4624  0.4394
  111MOL   H26635686   1.690   6.550   4.188  1.2317 -0.5748 -1.2722
  111MOL   H26735687   1.855   6.456   4.012 -0.2490  1.3349 -1.0623
  111MOL   H26835688   1.992   6.689   3.938  1.2793  0.5943  1.3812
  111MOL   H26935689   1.978   6.724   4.096 -1.1073  0.7625 -0.1125
  111MOL   H27035690   1.829   6.696   4.005  1.4099  1.1803 -3.4988
  111MOL   H27135691   2.127   6.482   4.136  1.3195 -2.3067  0.5459
  111MOL   H27235692   2.050   6.334   4.084  1.2469  0.3666  1.4702
  111MOL   H27335693   2.114   6.438   3.963 -0.0988 -1.3248 -0.4611
  111MOL   C27435694   1.728   6.510   4.387 -0.4286 -1.5214 -0.4851
  111MOL   C27535695   1.745   6.660   4.424  0.1292  0.2267 -0.2140
  111MOL   O27635696   1.618   6.703   4.370 -0.0932 -0.2602  0.0346
  111MOL   C27735697   1.614   6.845   4.343  0.1265  0.2760 -0.5057
  111MOL   C27835698   1.473   6.911   4.360 -0.4178 -0.0475  0.3436
  111MOL   C27935699   1.651   6.855   4.194  0.6845  0.0482 -0.7736
  111MOL   H28035700   1.631   6.472   4.419 -0.1612 -2.1608 -0.4137
  111MOL   H28135701   1.804   6.463   4.449 -0.2178 -0.2394  0.2361
  111MOL   H28235702   1.827   6.714   4.376 -0.3792  1.2803  0.0750
  111MOL   H28335703   1.689   6.896   4.403  2.8569 -3.7347 -0.2692
  111MOL   H28435704   1.448   6.936   4.463 -2.7328  0.9140 -0.4318
  111MOL   H28535705   1.479   7.002   4.302 -0.0569 -0.1565  0.2056
  111MOL   H28635706   1.398   6.839   4.329 -0.9098 -0.0342  1.4786
  111MOL   H28735707   1.665   6.959   4.167 -0.7845  1.0147  1.9523
  111MOL   H28835708   1.575   6.818   4.125  0.1514  0.2509 -0.2962
  111MOL   H28935709   1.746   6.805   4.176  0.1751 -0.6965 -1.4291
  111MOL   C29035710   1.741   6.693   4.576  0.4149 -0.2519 -0.3980
  111MOL   C29135711   1.860   6.645   4.663 -0.0544 -0.1462 -0.4974
  111MOL   O29235712   1.974   6.736   4.655 -0.7615  0.1968  0.3847
  111MOL   C29335713   2.099   6.688   4.607 -0.1251 -0.3500 -0.0976
  111MOL   C29435714   2.204   6.802   4.638 -0.1295 -0.4774 -0.5078
  111MOL   C29535715   2.101   6.679   4.453  0.1079 -0.2087  0.3574
  111MOL   H29635716   1.650   6.646   4.613  1.2404 -0.4965  1.3586
  111MOL   H29735717   1.739   6.801   4.588  1.7335 -0.4003  1.2934
  111MOL   H29835718   1.884   6.541   4.638 -1.1657 -0.2762 -1.0316
  111MOL   H29935719   2.136   6.595   4.651  2.0948 -0.0610 -1.2447
  111MOL   H30035720   2.163   6.902   4.644  1.3881  0.0847  1.0462
  111MOL   H30135721   2.239   6.786   4.740 -2.9748 -2.0138  0.2903
  111MOL   H30235722   2.295   6.816   4.580  0.6221  1.0352  1.0082
  111MOL   H30335723   2.205   6.661   4.426  0.4508  1.3292  0.5823
  111MOL   H30435724   2.049   6.586   4.432  0.0912  0.0465 -0.7377
  111MOL   H30535725   2.056   6.757   4.392  3.2789  1.4707  0.0318
  111MOL   C30635726   1.820   6.655   4.811 -0.0009 -0.2818  0.1411
  111MOL   C30735727   1.917   6.614   4.919  0.4293 -0.5099 -0.1722
  111MOL   O30835728   1.836   6.586   5.027  0.1584 -0.0867  0.1912
  111MOL   C30935729   1.900   6.555   5.150 -0.6639 -0.2296 -0.2260
  111MOL   C31035730   1.806   6.587   5.264  0.0729  0.0378  0.2606
  111MOL   C31135731   1.939   6.406   5.150 -0.2517 -0.6072  0.3355
  111MOL   H31235732   1.721   6.612   4.824  0.8252 -1.6751  1.9642
  111MOL   H31335733   1.789   6.758   4.830  0.1604 -0.3020  0.5167
  111MOL   H31435734   1.975   6.528   4.887  1.1031 -1.1348  2.5690
  111MOL   H31535735   1.993   6.612   5.147  0.5824 -2.1899  0.1060
  111MOL   H31635736   1.867   6.560   5.350  1.0222 -2.1193 -1.0225
  111MOL   H31735737   1.712   6.532   5.267  0.1527 -0.0784  0.5891
  111MOL   H31835738   1.788   6.694   5.269  0.8324  0.1221  1.1608
  111MOL   H31935739   2.008   6.380   5.071  0.7929  0.9335  0.7131
  111MOL   H32035740   1.857   6.342   5.119 -0.5857  0.5872 -1.3512
  111MOL   H32135741   1.989   6.371   5.240  0.4368  0.5744  0.4284
  111MOL   H32235742   1.996   6.688   4.929 -0.9209  1.4364 -3.1266
  112MOL     C135743   1.606   0.826   4.627  0.2401  0.1484  0.1020
  112MOL     C235744   1.696   0.776   4.757  0.3285  0.1076  0.3171
  112MOL     O335745   1.635   0.654   4.788  0.1530  0.4072 -0.6987
  112MOL     C435746   1.513   0.673   4.856  0.1309 -0.0572  0.2476
  112MOL     C535747   1.550   0.617   4.999  0.0559  0.6825 -0.0557
  112MOL     C635748   1.413   0.574   4.801 -0.5101 -0.3641 -0.2492
  112MOL     H735749   1.512   0.870   4.661 -0.3521 -1.6550  0.8635
  112MOL     H835750   1.661   0.900   4.568 -0.6563  0.0837 -0.8380
  112MOL     H935751   1.693   0.840   4.845  0.6432  0.0455  0.3745
  112MOL    H1035752   1.463   0.770   4.852 -0.0178 -0.1255  0.4742
  112MOL    H1135753   1.626   0.681   5.044  0.1460  2.1025 -2.1506
  112MOL    H1235754   1.466   0.623   5.068 -0.4652 -0.5200 -0.5750
  112MOL    H1335755   1.589   0.517   4.981  2.1918  1.6312 -0.8364
  112MOL    H1435756   1.330   0.567   4.872  1.6997 -2.5565  2.2237
  112MOL    H1535757   1.378   0.616   4.706 -1.4219  2.9277  1.4516
  112MOL    H1635758   1.458   0.476   4.793 -0.8286 -0.6016  0.8339
  112MOL    H1735759   1.591   0.744   4.557  1.3220 -1.5571  1.8147
  112MOL    C1835760   1.843   0.749   4.717  0.3011  0.1259 -0.7675
  112MOL    C1935761   1.932   0.744   4.843  0.4474  0.0848 -0.0248
  112MOL    O2035762   1.941   0.874   4.900 -0.2345 -0.6103 -0.2799
  112MOL    C2135763   1.898   0.883   5.035  0.1349  0.0457  0.9726
  112MOL    C2235764   1.907   1.028   5.078 -0.2047 -0.0799  0.2892
  112MOL    C2335765   1.998   0.806   5.122 -0.4871 -0.2940  0.1485
  112MOL    H2435766   1.833   0.645   4.684  0.6944  0.0386 -0.6259
  112MOL    H2535767   1.880   0.805   4.631 -0.4551  1.6704 -0.0839
  112MOL    H2635768   1.891   0.674   4.916  0.9043 -1.5440 -1.3098
  112MOL    H2735769   1.796   0.847   5.043  0.5385 -1.3957 -0.1749
  112MOL    H2835770   2.006   1.072   5.065 -0.5534  1.1244  1.5744
  112MOL    H2935771   1.846   1.086   5.009  0.2702  1.8049  1.4320
  112MOL    H3035772   1.882   1.046   5.182  2.2321 -1.6874  1.2086
  112MOL    H3135773   2.000   0.833   5.227  0.2970 -0.2190  0.1239
  112MOL    H3235774   2.099   0.824   5.085 -0.7761 -0.8313 -0.9414
  112MOL    H3335775   1.979   0.699   5.108 -0.4292 -0.0322 -2.1352
  112MOL    C3435776   2.072   0.696   4.787 -0.0761 -0.0815  0.0167
  112MOL    C3535777   2.082   0.551   4.731  0.0007 -0.2545 -0.4351
  112MOL    O3635778   2.214   0.523   4.711 -0.9694 -0.2224 -0.1209
  112MOL    C3735779   2.277   0.577   4.595 -0.4498 -0.8758  0.4943
  112MOL    C3835780   2.430   0.582   4.607 -0.1011 -0.3700  0.3090
  112MOL    C3935781   2.249   0.496   4.469  0.3893  0.1665 -0.0544
  112MOL    H4035782   2.145   0.726   4.862 -0.9755  2.7451 -0.1792
  112MOL    H4135783   2.091   0.766   4.705  0.0352  0.7833  0.7795
  112MOL    H4235784   2.021   0.555   4.641 -1.1429  0.3423  0.3519
  112MOL    H4335785   2.244   0.678   4.568 -0.3009 -1.3464 -1.5056
  112MOL    H4435786   2.462   0.646   4.689 -0.6265  1.6297 -1.0233
  112MOL    H4535787   2.469   0.626   4.515  0.2393 -0.4616  0.4111
  112MOL    H4635788   2.477   0.486   4.629  0.3351 -0.1360  0.4082
  112MOL    H4735789   2.293   0.525   4.374 -0.3692  0.7062 -0.2486
  112MOL    H4835790   2.279   0.393   4.489 -0.6681 -0.8575 -3.4526
  112MOL    H4935791   2.141   0.483   4.458  0.3935  0.3851 -0.3444
  112MOL    C5035792   2.018   0.448   4.824  0.2085 -0.0247 -0.2837
  112MOL    C5135793   2.012   0.312   4.764  0.4691  0.2872 -0.2700
  112MOL    O5235794   1.925   0.231   4.849  0.0156  0.0220 -0.0262
  112MOL    C5335795   1.805   0.180   4.792 -0.1659 -0.8812 -0.9054
  112MOL    C5435796   1.691   0.283   4.781  0.2750 -0.3149 -0.4668
  112MOL    C5535797   1.767   0.075   4.894  0.8525  0.6330  0.0446
  112MOL    H5635798   2.064   0.445   4.923 -0.1496  0.5671 -0.0958
  112MOL    H5735799   1.913   0.471   4.840  0.8121  3.0069 -0.3632
  112MOL    H5835800   1.975   0.323   4.662 -1.1865 -2.4665 -0.0129
  112MOL    H5935801   1.833   0.132   4.698  1.3586 -1.4776 -0.1638
  112MOL    H6035802   1.594   0.246   4.749  1.0098 -0.9612 -1.9846
  112MOL    H6135803   1.714   0.368   4.717  2.1755 -0.3005  0.2036
  112MOL    H6235804   1.673   0.314   4.884  0.6085 -2.1160  0.1468
  112MOL    H6335805   1.683   0.013   4.862  0.7951  0.6187  0.2213
  112MOL    H6435806   1.743   0.132   4.984  1.7462  1.4042 -0.2002
  112MOL    H6535807   1.847   0.004   4.918  0.8271  0.5191 -0.2079
  112MOL    C6635808   2.146   0.239   4.757  0.4332  0.4927  0.1483
  112MOL    C6735809   2.137   0.093   4.696  0.2710 -0.3119 -0.1184
  112MOL    O6835810   2.258   0.022   4.717  0.4581 -0.2660  0.0959
  112MOL    C6935811   2.289   7.808   4.857 -0.4676 -0.0277 -0.3448
  112MOL    C7035812   2.207   7.681   4.884 -0.1367 -0.0951  0.1232
  112MOL    C7135813   2.436   7.783   4.866  0.2048 -0.0552 -0.2026
  112MOL    H7235814   2.220   0.291   4.696 -0.9132  0.5706 -1.4758
  112MOL    H7335815   2.179   0.237   4.861  0.8225  1.2530  0.0462
  112MOL    H7435816   2.057   0.031   4.737  0.0299  0.3596  0.4244
  112MOL    H7535817   2.259   0.065   4.928  0.1094 -0.6416  0.5659
  112MOL    H7635818   2.260   7.632   4.965  0.9682  0.1219 -0.4619
  112MOL    H7735819   2.102   7.705   4.904 -0.0059  1.1358 -0.6173
  112MOL    H7835820   2.210   7.609   4.802  1.8183 -0.3685  0.4192
  112MOL    H7935821   2.497   0.047   4.832  1.2581 -0.7034  0.0406
  112MOL    H8035822   2.461   7.687   4.822  0.9384  0.4187 -0.8461
  112MOL    H8135823   2.467   7.781   4.971 -2.8066  0.9695  0.7511
  112MOL    C8235824   2.103   0.093   4.547  0.7427 -0.9146  0.2703
  112MOL    C8335825   2.075   7.777   4.480 -0.1407 -0.5331 -0.2993
  112MOL    O8435826   1.936   7.745   4.507  0.2610 -0.2110  0.2301
  112MOL    C8535827   1.922   7.608   4.532  0.5556  0.1930 -0.3176
  112MOL    C8635828   1.788   7.554   4.474 -0.0834 -0.1732  0.1426
  112MOL    C8735829   1.916   7.593   4.682  0.1943  0.2838  0.7592
  112MOL    H8835830   2.019   0.158   4.524  2.5737  0.3174 -3.2999
  112MOL    H8935831   2.178   0.139   4.483 -3.1978  2.2120 -2.4072
  112MOL    H9035832   2.147   7.712   4.530 -0.8960 -2.0301 -1.1317
  112MOL    H9135833   1.998   7.543   4.490 -0.1767 -1.1229  0.3590
  112MOL    H9235834   1.704   7.623   4.492 -0.6963 -0.9262  0.1851
  112MOL    H9335835   1.785   7.549   4.365  0.4751 -1.9370  0.2050
  112MOL    H9435836   1.761   7.461   4.523  0.4905 -0.3135  0.1912
  112MOL    H9535837   1.832   7.648   4.722 -1.7037 -2.5461  0.8408
  112MOL    H9635838   1.899   7.490   4.714 -0.6837 -0.2843 -1.4253
  112MOL    H9735839   2.009   7.623   4.730  0.8565 -2.8018  1.5355
  112MOL    C9835840   2.090   7.779   4.332  0.9031  0.2475  0.0141
  112MOL    C9935841   2.239   7.748   4.290 -0.7430  0.0953 -0.8351
  112MOL   O10035842   2.298   0.052   4.278 -0.0253  0.2093 -0.5534
  112MOL   C10135843   2.443   0.041   4.288 -0.6048  0.4615  0.7040
  112MOL   C10235844   2.490   0.063   4.432 -0.5389 -0.0426  0.6386
  112MOL   C10335845   2.489   0.153   4.190  0.0561  0.7556 -1.1751
  112MOL   H10435846   2.028   7.715   4.269 -0.5689 -0.1938  1.8542
  112MOL   H10535847   2.055   0.056   4.298 -0.8890  0.9341  3.6515
  112MOL   H10635848   2.293   7.706   4.375 -2.3509  1.8833  1.1480
  112MOL   H10735849   2.487   7.767   4.255 -2.6551  0.8772 -3.5563
  112MOL   H10835850   2.440   0.148   4.479  0.0196  0.1935  0.8139
  112MOL   H10935851   2.595   0.094   4.430  0.2109 -2.5804 -2.0971
  112MOL   H11035852   2.477   7.794   4.493 -1.0127 -1.8822 -2.0624
  112MOL   H11135853   2.597   0.160   4.178  0.4842  3.1165  2.8998
  112MOL   H11235854   2.447   0.250   4.219 -0.8018 -0.2675  1.1173
  112MOL   H11335855   2.437   0.141   4.095  1.9255 -2.5227 -1.8503
  112MOL   C11435856   2.254   7.657   4.170 -0.0265  0.1297 -0.7867
  112MOL   C11535857   2.223   7.510   4.189  0.4571  0.0430  0.4469
  112MOL   O11635858   2.198   7.448   4.059 -0.3870  0.2793 -0.5076
  112MOL   C11735859   2.073   7.489   3.991 -0.1907  0.0687 -0.7678
  112MOL   C11835860   1.948   7.428   4.064 -0.4231  0.2858 -0.2051
  112MOL   C11935861   2.097   7.426   3.854  0.3654 -0.3986 -0.6010
  112MOL   H12035862   2.358   7.668   4.138  0.0040  2.0535 -0.1410
  112MOL   H12135863   2.186   7.699   4.096 -2.8591 -1.6974  0.7203
  112MOL   H12235864   2.126   7.504   4.238 -0.2213  0.6102 -0.7787
  112MOL   H12335865   2.073   7.597   3.976  0.0370  0.4973  2.1033
  112MOL   H12435866   1.962   7.322   4.082 -0.8643  0.3524  0.5640
  112MOL   H12535867   1.865   7.437   3.995 -0.7671 -1.9009 -0.0869
  112MOL   H12635868   1.928   7.482   4.157 -1.9208 -1.3552  0.4500
  112MOL   H12735869   2.085   7.318   3.864  2.0574 -0.5070  0.4550
  112MOL   H12835870   2.195   7.440   3.809  0.8150 -2.6798 -0.4187
  112MOL   H12935871   2.028   7.465   3.779 -0.3895 -0.7997 -0.1151
  112MOL   C13035872   2.320   7.419   4.266  0.5558 -0.4705  0.5146
  112MOL   C13135873   2.275   7.280   4.314 -0.0585 -0.1760  0.4858
  112MOL   O13235874   2.369   7.246   4.419 -0.4457 -0.1575 -0.0135
  112MOL   C13335875   2.300   7.187   4.527 -0.9141 -0.2073 -0.9266
  112MOL   C13435876   2.410   7.113   4.605 -1.1026  0.5128 -0.6949
  112MOL   C13535877   2.238   7.292   4.626 -0.6475  0.3333  0.7505
  112MOL   H13635878   2.353   7.474   4.355 -0.0196  2.8956 -1.2659
  112MOL   H13735879   2.408   7.419   4.201  0.1917  0.4979  0.0071
  112MOL   H13835880   2.178   7.300   4.359  0.2715  1.4200  0.5478
  112MOL   H13935881   2.224   7.120   4.485  0.0700 -0.8325 -1.7444
  112MOL   H14035882   2.493   7.179   4.629 -1.8904  1.4471 -0.5036
  112MOL   H14135883   2.446   7.035   4.538 -0.7325  0.2423 -0.1874
  112MOL   H14235884   2.357   7.053   4.680 -0.8492 -1.2251 -1.8850
  112MOL   H14335885   2.164   7.350   4.572 -0.7491 -0.9475 -0.5336
  112MOL   H14435886   2.186   7.240   4.707 -1.8830 -0.3407 -0.4419
  112MOL   H14535887   2.316   7.361   4.657  1.0430 -0.3628 -1.7195
  112MOL   C14635888   2.278   7.167   4.205  0.1040  0.0773  0.5529
  112MOL   C14735889   2.171   7.063   4.231  0.4500  0.1124 -0.6096
  112MOL   O14835890   2.046   7.131   4.252 -0.2549  0.7606  0.2109
  112MOL   C14935891   1.939   7.058   4.322  0.4465 -0.5519  0.7823
  112MOL   C15035892   1.824   7.154   4.323 -0.3360  0.4855  0.7762
  112MOL   C15135893   1.988   7.027   4.463 -0.4295  0.7561  0.4445
  112MOL   H15235894   2.375   7.116   4.205 -0.7688 -1.6734 -1.1152
  112MOL   H15335895   2.264   7.227   4.115  1.1207  1.3507  1.2271
  112MOL   H15435896   2.201   6.995   4.311  1.2995  0.5453 -0.5557
  112MOL   H15535897   1.902   6.966   4.277 -0.6178 -0.0617  0.6643
  112MOL   H15635898   1.797   7.172   4.219  0.3183 -1.8033  0.1869
  112MOL   H15735899   1.849   7.251   4.367 -1.6420  1.1897  0.0008
  112MOL   H15835900   1.733   7.122   4.376 -0.4466  1.5835  1.2688
  112MOL   H15935901   1.908   6.982   4.522 -1.9607  0.9855 -1.4363
  112MOL   H16035902   2.016   7.119   4.515  1.5149  0.2831  0.2961
  112MOL   H16135903   2.064   6.949   4.458  0.0349  1.2280  0.1406
  112MOL   C16235904   2.150   6.979   4.108  0.5372  0.7834  0.2313
  112MOL   C16335905   2.271   6.886   4.082 -0.5292  0.2769  0.5186
  112MOL   O16435906   2.289   6.785   4.183 -0.2271 -0.1283 -0.4842
  112MOL   C16535907   2.419   6.729   4.195  0.3217 -0.0845  0.1107
  112MOL   C16635908   2.411   6.584   4.241 -0.1341 -0.3889  0.0550
  112MOL   C16735909   2.484   6.830   4.294 -0.2412  0.1488  0.2149
  112MOL   H16835910   2.057   6.924   4.120  2.5769 -2.4496  1.8764
  112MOL   H16935911   2.142   7.044   4.021  2.0452  0.9431  0.1867
  112MOL   H17035912   2.364   6.941   4.094  0.1058 -0.7292  0.3238
  112MOL   H17135913   2.469   6.740   4.098 -0.3519  2.2872  0.0142
  112MOL   H17235914   2.491   6.522   4.201  1.5132 -0.0285  2.6816
  112MOL   H17335915   2.322   6.536   4.201 -0.3729  0.7433 -0.7922
  112MOL   H17435916   2.406   6.574   4.350 -2.8824 -1.1792 -0.0859
  112MOL   H17535917   2.576   6.797   4.343  1.1970  1.2961 -1.6583
  112MOL   H17635918   2.412   6.845   4.375  1.2556 -1.5123  1.9143
  112MOL   H17735919   2.515   6.925   4.252 -0.2152  0.9770  2.0719
  112MOL   C17835920   2.261   6.808   3.951  0.0339 -0.6801  0.1317
  112MOL   C17935921   2.318   6.885   3.828 -0.1274 -0.1881  0.6844
  112MOL   O18035922   2.454   6.894   3.849 -0.1283 -0.2406  0.5443
  112MOL   C18135923   2.524   7.017   3.807  0.5107  0.1430  0.1272
  112MOL   C18235924   2.666   6.989   3.754  0.8054 -0.3279  0.0037
  112MOL   C18335925   2.520   7.114   3.921  0.2447 -0.8236 -0.0142
  112MOL   H18435926   2.155   6.791   3.934 -0.6493  2.1831  1.1378
  112MOL   H18535927   2.312   6.712   3.957  1.2018 -0.0351  0.7425
  112MOL   H18635928   2.272   6.980   3.800  0.1673 -0.2316  0.0574
  112MOL   H18735929   2.470   7.059   3.722  0.5074 -0.8117 -0.3442
  112MOL   H18835930   2.669   6.909   3.680 -1.4235 -1.0049  0.6296
  112MOL   H18935931   2.728   6.962   3.839 -0.0617  0.0835  0.7729
  112MOL   H19035932   2.722   7.076   3.717 -2.1957  0.5060 -2.8192
  112MOL   H19135933   2.584   7.077   4.001  0.5384 -2.0470 -0.8062
  112MOL   H19235934   2.416   7.126   3.952 -0.2557 -2.1928 -1.0945
  112MOL   H19335935   2.554   7.211   3.882 -0.0720 -0.7018  0.0159
  112MOL   C19435936   2.306   6.794   3.704  0.3540  0.5071  0.5361
  112MOL   C19535937   2.161   6.785   3.652  0.6374  0.4517 -0.2250
  112MOL   O19635938   2.161   6.676   3.562 -0.6320  0.5358  0.0918
  112MOL   C19735939   2.149   6.546   3.616  0.1151  0.2759  0.1982
  112MOL   C19835940   2.004   6.491   3.607  0.8072 -0.2562  0.3233
  112MOL   C19935941   2.246   6.466   3.520 -0.4322 -0.1071 -0.6270
  112MOL   H20035942   2.364   6.833   3.620  0.2692 -1.0920 -0.2958
  112MOL   H20135943   2.338   6.694   3.731  1.4531  1.1847  1.7919
  112MOL   H20235944   2.091   6.768   3.734  2.1630 -2.1158  0.6002
  112MOL   H20335945   2.186   6.537   3.719 -2.4331  0.2112  1.1447
  112MOL   H20435946   1.996   6.389   3.646 -1.3846 -0.8938 -1.6105
  112MOL   H20535947   1.935   6.553   3.665  1.6561  0.6337  0.3831
  112MOL   H20635948   1.975   6.488   3.502  0.9374 -2.2142  0.3121
  112MOL   H20735949   2.244   6.359   3.536  0.3037 -0.0140  0.1224
  112MOL   H20835950   2.223   6.478   3.414 -1.8998  1.9022 -0.1163
  112MOL   H20935951   2.349   6.499   3.538 -0.3674 -0.5718 -0.1435
  112MOL   C21035952   2.108   6.911   3.576  0.3348  0.0054 -0.1536
  112MOL   C21135953   1.951   6.929   3.578 -0.3799 -0.7870  0.8813
  112MOL   O21235954   1.934   6.965   3.715 -0.2425 -0.0833 -0.8518
  112MOL   C21335955   1.798   6.982   3.760 -0.4167 -0.3447 -0.0810
  112MOL   C21435956   1.729   6.840   3.745 -1.0617 -0.0005 -0.0276
  112MOL   C21535957   1.789   7.043   3.907  0.4008 -0.1212 -0.7701
  112MOL   H21635958   2.143   6.901   3.474 -0.5746  0.7862 -0.5575
  112MOL   H21735959   2.155   7.002   3.615 -0.4745 -0.1573  1.2611
  112MOL   H21835960   1.903   6.836   3.548  0.5390 -0.6122 -1.2623
  112MOL   H21935961   1.753   7.060   3.699 -1.2609 -0.2652  0.6273
  112MOL   H22035962   1.705   6.828   3.640 -0.2117  0.1747 -0.2443
  112MOL   H22135963   1.636   6.837   3.802 -0.3400 -1.9595  1.0936
  112MOL   H22235964   1.789   6.756   3.780 -0.5726  0.6242  0.6822
  112MOL   H22335965   1.837   6.966   3.967  2.0340  2.3600  1.2174
  112MOL   H22435966   1.688   7.054   3.948  0.8921  0.3978  0.3210
  112MOL   H22535967   1.851   7.128   3.936 -0.4925 -0.4325  2.2585
  112MOL   C22635968   1.922   7.048   3.480 -0.3777  0.0340  0.2579
  112MOL   C22735969   1.937   7.006   3.332  0.4814  0.3177 -0.4382
  112MOL   O22835970   2.065   7.059   3.281  0.6708  0.3121 -0.3932
  112MOL   C22935971   2.111   6.995   3.160  0.0188  0.1431 -1.2431
  112MOL   C23035972   2.195   6.873   3.188  0.2889 -0.0490 -0.1087
  112MOL   C23135973   2.190   7.099   3.092 -0.2585  0.1478 -0.5862
  112MOL   H23235974   1.988   7.132   3.499  0.0063 -0.5454  1.5052
  112MOL   H23335975   1.817   7.073   3.494 -0.9655 -1.9152 -0.4273
  112MOL   H23435976   1.942   6.897   3.330  1.2999  0.3567 -2.0332
  112MOL   H23535977   2.021   6.976   3.101 -1.6809  0.8716  1.0348
  112MOL   H23635978   2.292   6.897   3.231 -0.6455 -0.1846  2.1233
  112MOL   H23735979   2.138   6.807   3.253  2.5664 -0.2336  1.7950
  112MOL   H23835980   2.228   6.824   3.096 -1.5479 -0.5049 -0.5326
  112MOL   H23935981   2.214   7.078   2.988  1.5087  2.4993 -0.7041
  112MOL   H24035982   2.289   7.112   3.136 -0.4571  0.8303 -0.3306
  112MOL   H24135983   2.134   7.192   3.094 -1.0278 -0.3096 -0.9108
  112MOL   C24235984   1.811   7.035   3.245 -0.0805 -0.0525  0.2158
  112MOL   C24335985   1.705   6.925   3.244 -0.3196 -0.8516  0.4027
  112MOL   O24435986   1.756   6.822   3.161  0.1476 -0.6567  0.2611
  112MOL   C24535987   1.731   6.687   3.190 -0.5372 -0.1942  0.0738
  112MOL   C24635988   1.743   6.608   3.056 -0.5936 -0.0311 -0.3504
  112MOL   C24735989   1.837   6.639   3.288  0.4803 -0.5058 -0.5888
  112MOL   H24835990   1.769   7.132   3.272  0.0239 -0.2983  1.2784
  112MOL   H24935991   1.835   7.046   3.139  3.2923  1.1937  1.0346
  112MOL   H25035992   1.688   6.889   3.346  1.1987  0.4993  1.1593
  112MOL   H25135993   1.632   6.661   3.227 -0.3518 -1.0731 -0.0340
  112MOL   H25235994   1.836   6.629   3.004 -0.5030  1.9677  0.5625
  112MOL   H25335995   1.743   6.499   3.065  1.3194 -0.0378 -0.3498
  112MOL   H25435996   1.672   6.646   2.983  1.2820  1.8225 -1.2410
  112MOL   H25535997   1.817   6.535   3.312  1.4395 -0.7711 -0.8982
  112MOL   H25635998   1.940   6.645   3.251  0.4832 -2.6241 -0.9428
  112MOL   H25735999   1.837   6.693   3.383 -1.0555  0.1849 -0.9636
  112MOL   C25836000   1.578   6.973   3.167 -0.1109  0.0730 -0.6590
  112MOL   C25936001   1.448   6.889   3.202  0.0123  0.3573 -0.0274
  112MOL   O26036002   1.343   6.919   3.104 -0.6883 -0.1816  0.3877
  112MOL   C26136003   1.353   6.850   2.985  0.1740 -0.2971  0.0817
  112MOL   C26236004   1.296   6.710   2.988 -0.0277  0.0903  0.2409
  112MOL   C26336005   1.279   6.936   2.873 -0.9483 -0.3875  0.4619
  112MOL   H26436006   1.550   7.074   3.196 -0.7323 -0.8014  1.9952
  112MOL   H26536007   1.595   6.975   3.060 -0.4055 -1.7845 -0.7683
  112MOL   H26636008   1.467   6.782   3.202  1.8552  0.6643 -0.9796
  112MOL   H26736009   1.454   6.844   2.944  0.6538 -1.3186  1.3952
  112MOL   H26836010   1.345   6.646   3.062 -0.5717  0.0193  0.5457
  112MOL   H26936011   1.301   6.654   2.895  2.2060  0.2734  0.2158
  112MOL   H27036012   1.201   6.720   3.040  1.4050  1.0193  2.7684
  112MOL   H27136013   1.308   6.908   2.772 -1.9129  2.1343 -0.5500
  112MOL   H27236014   1.170   6.931   2.872 -1.0663  1.3991  2.3581
  112MOL   H27336015   1.297   7.043   2.877  0.2130 -0.5353 -0.5097
  112MOL   C27436016   1.386   6.923   3.340  0.0793 -0.2706  0.7547
  112MOL   C27536017   1.330   6.802   3.426 -0.8600 -0.1509 -0.4369
  112MOL   O27636018   1.436   6.742   3.503 -0.0251  0.1404 -0.4590
  112MOL   C27736019   1.442   6.593   3.502 -0.6146  1.1005 -0.6495
  112MOL   C27836020   1.320   6.533   3.575  0.7930  0.3407 -0.1473
  112MOL   C27936021   1.575   6.537   3.564  0.1188  0.3191  1.0587
  112MOL   H28036022   1.449   6.982   3.406  0.1071 -0.3852  0.8308
  112MOL   H28136023   1.306   6.992   3.315  2.7832  1.9116 -2.1187
  112MOL   H28236024   1.280   6.738   3.354  0.3246 -0.4675 -0.9938
  112MOL   H28336025   1.426   6.567   3.397 -1.3305 -1.5971  0.0907
  112MOL   H28436026   1.222   6.571   3.545 -0.2195 -0.9129  1.5185
  112MOL   H28536027   1.312   6.425   3.561 -0.3516  0.2224  1.2839
  112MOL   H28636028   1.332   6.560   3.680  0.7510 -0.5729  0.0922
  112MOL   H28736029   1.572   6.549   3.672 -0.4457  1.5678  0.9064
  112MOL   H28836030   1.671   6.581   3.536 -0.1291  1.1546  1.5126
  112MOL   H28936031   1.586   6.430   3.545  2.4444  0.2985  2.2274
  112MOL   C29036032   1.240   6.856   3.545 -0.1671 -0.1500 -0.6404
  112MOL   C29136033   1.097   6.889   3.491 -0.3349 -0.1899  0.2228
  112MOL   O29236034   1.023   6.766   3.464 -0.2808  0.0664 -0.4208
  112MOL   C29336035   0.909   6.787   3.380  0.2894 -0.1429  0.4668
  112MOL   C29436036   0.793   6.724   3.450  0.5015 -1.1527  0.2180
  112MOL   C29536037   0.944   6.716   3.253  0.3089 -0.2968 -0.5524
  112MOL   H29636038   1.292   6.944   3.582 -1.2795  0.3986 -0.3671
  112MOL   H29736039   1.235   6.788   3.630  1.4706  0.5965  0.0774
  112MOL   H29836040   1.109   6.950   3.402  0.0475 -0.5288  0.0403
  112MOL   H29936041   0.895   6.894   3.363  1.2847 -0.1147 -0.2068
  112MOL   H30036042   0.767   6.771   3.545  1.6106  0.2469 -0.1623
  112MOL   H30136043   0.700   6.742   3.395  0.7378 -0.2935  0.1084
  112MOL   H30236044   0.788   6.615   3.448  0.1451 -1.2520  3.4641
  112MOL   H30336045   1.040   6.748   3.214 -0.1660  1.8127 -0.0690
  112MOL   H30436046   0.944   6.609   3.274  3.2438 -0.1903  0.2596
  112MOL   H30536047   0.875   6.737   3.171 -0.4360  1.2836  0.4616
  112MOL   C30636048   1.023   6.997   3.590 -0.2190 -0.4077  0.0328
  112MOL   C30736049   1.050   7.146   3.573 -0.6408  0.1894 -0.1847
  112MOL   O30836050   1.184   7.169   3.619 -0.3390  0.3062 -0.3076
  112MOL   C30936051   1.227   7.301   3.607 -0.4737  0.1771  0.9150
  112MOL   C31036052   1.188   7.367   3.740 -0.1583  1.0177  0.0795
  112MOL   C31136053   1.381   7.287   3.574  0.6831 -0.0869 -0.4598
  112MOL   H31236054   1.027   6.988   3.699  1.1487  1.3644  0.1552
  112MOL   H31336055   0.920   6.973   3.565 -0.3310 -1.0353  1.0756
  112MOL   H31436056   1.044   7.184   3.471 -0.3035  0.9296  0.0708
  112MOL   H31536057   1.188   7.349   3.518  0.1480 -0.2057  0.4324
  112MOL   H31636058   1.224   7.469   3.749 -0.3466  1.0711  0.2092
  112MOL   H31736059   1.214   7.317   3.833  0.0687  1.2456  0.1404
  112MOL   H31836060   1.080   7.378   3.748  0.0919  1.7704  2.8044
  112MOL   H31936061   1.429   7.384   3.560  0.4389  0.0974 -0.0108
  112MOL   H32036062   1.404   7.222   3.490 -0.0985 -0.4713 -0.3776
  112MOL   H32136063   1.427   7.242   3.662 -1.2109 -1.8705 -0.3422
  112MOL   H32236064   0.981   7.212   3.626 -0.8159 -0.1471  0.0103
  113MOL     C136065   2.054   1.261   3.678  0.1961 -0.5272  0.4776
  113MOL     C236066   2.137   1.218   3.564 -0.5272 -0.7516  0.7198
  113MOL     O336067   2.133   1.079   3.569  0.1247  0.0466  0.0988
  113MOL     C436068   2.207   1.018   3.668 -0.7163 -0.2178  0.8325
  113MOL     C536069   2.344   0.980   3.611  0.3885  0.2323  0.0023
  113MOL     C636070   2.121   0.895   3.713  0.3247 -0.6852  0.0048
  113MOL     H736071   2.112   1.274   3.769  0.8194  1.3971 -0.1697
  113MOL     H836072   2.025   1.362   3.651  0.5944 -0.2760  0.9822
  113MOL     H936073   2.240   1.252   3.564 -0.7664 -0.0312  0.8191
  113MOL    H1036074   2.226   1.077   3.757  0.6306 -1.6903  1.5460
  113MOL    H1136075   2.390   0.909   3.679 -0.8195 -0.0453  0.5338
  113MOL    H1236076   2.337   0.920   3.520  5.2570  0.0204 -0.3755
  113MOL    H1336077   2.412   1.059   3.581 -1.7898  1.6556 -1.3416
  113MOL    H1436078   2.175   0.829   3.780 -0.1692 -0.0820  1.0014
  113MOL    H1536079   2.040   0.940   3.770  1.3256  0.0923  0.8220
  113MOL    H1636080   2.072   0.833   3.637 -0.0722 -0.4735  0.0875
  113MOL    H1736081   1.965   1.199   3.683  0.0227 -0.3200 -0.0470
  113MOL    C1836082   2.080   1.273   3.434  0.1296 -0.6610 -0.0551
  113MOL    C1936083   2.134   1.215   3.309 -0.2560 -0.3998 -1.0072
  113MOL    O2036084   2.262   1.271   3.288 -0.1829 -0.0761  0.1723
  113MOL    C2136085   2.347   1.204   3.200 -0.2558 -0.2235  0.5594
  113MOL    C2236086   2.416   1.080   3.272  0.7471 -0.4985  0.3392
  113MOL    C2336087   2.457   1.292   3.154  0.4881 -0.2293  0.2786
  113MOL    H2436088   1.972   1.258   3.434 -0.1947  1.5727  0.5491
  113MOL    H2536089   2.070   1.381   3.433  0.1009 -0.6594  0.3639
  113MOL    H2636090   2.153   1.109   3.329  0.8355 -0.3157 -1.5722
  113MOL    H2736091   2.290   1.164   3.116  0.6228  0.9523 -0.6194
  113MOL    H2836092   2.484   1.028   3.205  1.1399 -0.0528  0.3817
  113MOL    H2936093   2.449   1.106   3.373 -0.5335  2.9566 -0.0366
  113MOL    H3036094   2.343   1.001   3.286  0.0663 -0.1966 -1.3367
  113MOL    H3136095   2.507   1.353   3.230 -0.5606  1.1658 -0.1305
  113MOL    H3236096   2.414   1.366   3.086  1.7774 -0.4290 -0.7577
  113MOL    H3336097   2.530   1.227   3.108 -1.6941 -3.4081  1.1539
  113MOL    C3436098   2.052   1.238   3.182  0.1472  0.6809 -0.3898
  113MOL    C3536099   1.958   1.118   3.144 -0.0997  0.2456 -0.7282
  113MOL    O3636100   1.843   1.103   3.232 -0.1679  0.0204 -0.2586
  113MOL    C3736101   1.852   0.993   3.312 -0.0300  0.0707 -0.0460
  113MOL    C3836102   1.758   1.014   3.426  0.1942  0.0870  0.2775
  113MOL    C3936103   1.828   0.874   3.231 -0.1433  0.5695 -0.1632
  113MOL    H4036104   2.110   1.255   3.092 -1.7183  4.0711 -1.0292
  113MOL    H4136105   2.007   1.337   3.181 -0.7900  0.2673 -0.8104
  113MOL    H4236106   2.021   1.030   3.133  0.0365  0.5676 -2.5830
  113MOL    H4336107   1.949   0.982   3.360  0.5048  3.8101 -0.0592
  113MOL    H4436108   1.777   1.104   3.485 -1.0280  0.2757  0.4083
  113MOL    H4536109   1.753   0.937   3.504 -0.4580  1.0548  1.2150
  113MOL    H4636110   1.658   1.034   3.387  0.8069 -2.5334 -2.8506
  113MOL    H4736111   1.734   0.883   3.176  0.7389 -0.6447 -1.9205
  113MOL    H4836112   1.903   0.845   3.157 -2.1028 -2.4759 -1.0697
  113MOL    H4936113   1.804   0.790   3.296 -0.4231  0.6223 -0.1964
  113MOL    C5036114   1.894   1.151   3.007 -0.0474 -0.6047 -0.4053
  113MOL    C5136115   1.813   1.037   2.939  0.0611 -0.4367  0.0708
  113MOL    O5236116   1.907   0.940   2.911  0.4176 -0.0203 -0.0547
  113MOL    C5336117   1.849   0.823   2.839 -0.5571 -0.5292  0.3968
  113MOL    C5436118   1.905   0.694   2.898 -0.1291 -0.0293 -0.7146
  113MOL    C5536119   1.885   0.830   2.687  0.1693  0.0799  0.4650
  113MOL    H5636120   1.842   1.246   3.022 -0.1474 -0.7272  0.0432
  113MOL    H5736121   1.970   1.175   2.933  0.3556  0.1252  0.2358
  113MOL    H5836122   1.730   1.002   3.001 -0.1872  0.9138  0.5128
  113MOL    H5936123   1.743   0.809   2.861 -0.5468  0.0349  0.8046
  113MOL    H6036124   1.855   0.611   2.848  0.9637 -0.7823 -0.5776
  113MOL    H6136125   1.873   0.683   3.002 -1.7561  0.8265 -1.1035
  113MOL    H6236126   2.012   0.677   2.903  0.3205  2.9329  0.8928
  113MOL    H6336127   1.993   0.841   2.679  0.0635 -0.8525 -2.8591
  113MOL    H6436128   1.835   0.905   2.626  2.3171  0.5150 -0.7974
  113MOL    H6536129   1.870   0.735   2.637  0.2835  0.6735 -0.7101
  113MOL    C6636130   1.756   1.099   2.803 -0.0033  0.4413 -0.1508
  113MOL    C6736131   1.643   1.201   2.814 -0.1917 -0.3030  0.5809
  113MOL    O6836132   1.540   1.152   2.902 -0.2881  0.0277 -0.2473
  113MOL    C6936133   1.528   1.230   3.024  0.2071 -0.0492 -1.0267
  113MOL    C7036134   1.421   1.332   3.000  0.1192  0.1538  0.0993
  113MOL    C7136135   1.494   1.128   3.132 -0.6405 -0.1695 -0.2737
  113MOL    H7236136   1.833   1.139   2.738  0.0529 -0.9001 -0.9278
  113MOL    H7336137   1.700   1.022   2.749  0.9775  0.1583 -0.7827
  113MOL    H7436138   1.679   1.298   2.848 -0.8420 -0.3468  1.4251
  113MOL    H7536139   1.617   1.279   3.062  0.4331 -1.2017 -0.0504
  113MOL    H7636140   1.462   1.401   2.925 -1.6723  3.9826  2.4759
  113MOL    H7736141   1.339   1.286   2.944 -0.7444  2.0309 -0.2383
  113MOL    H7836142   1.383   1.384   3.087  1.8587  0.3910  0.7297
  113MOL    H7936143   1.392   1.089   3.131 -0.4003 -0.8054 -0.1740
  113MOL    H8036144   1.521   1.165   3.230 -1.3394 -0.6743  0.1129
  113MOL    H8136145   1.554   1.039   3.109 -0.8369 -0.1595 -0.8524
  113MOL    C8236146   1.572   1.237   2.682 -0.3122  0.2204  0.0421
  113MOL    C8336147   1.659   1.280   2.562  0.1849 -0.4423  0.1163
  113MOL    O8436148   1.566   1.325   2.466 -0.2953 -0.1566 -0.1027
  113MOL    C8536149   1.531   1.220   2.372 -0.0300 -0.1412 -0.4617
  113MOL    C8636150   1.608   1.245   2.243  0.1797  0.0225 -0.2817
  113MOL    C8736151   1.377   1.213   2.351 -0.9428  0.2678  0.3811
  113MOL    H8836152   1.507   1.153   2.657 -0.2569 -0.2047  1.2886
  113MOL    H8936153   1.494   1.306   2.711 -0.0070  1.0043 -0.9770
  113MOL    H9036154   1.721   1.194   2.536 -0.7164 -1.1889  0.3898
  113MOL    H9136155   1.561   1.122   2.408 -2.6770 -1.6578 -2.1845
  113MOL    H9236156   1.574   1.335   2.192 -1.0043 -0.0104  0.4143
  113MOL    H9336157   1.716   1.242   2.248  0.1405 -0.7687  0.2981
  113MOL    H9436158   1.590   1.160   2.177 -0.5292  1.0598 -1.4503
  113MOL    H9536159   1.326   1.195   2.445 -2.1929 -1.3305 -0.5685
  113MOL    H9636160   1.328   1.294   2.296  0.5656  1.3579  0.5927
  113MOL    H9736161   1.354   1.131   2.283 -0.1268 -0.2255  0.6928
  113MOL    C9836162   1.736   1.412   2.585  0.0179  0.5894  0.2169
  113MOL    C9936163   1.858   1.410   2.502 -0.3327 -0.6717  0.1639
  113MOL   O10036164   1.948   1.329   2.573 -0.2224  0.7518 -0.0311
  113MOL   C10136165   2.050   1.268   2.499  0.2765 -0.2708 -0.2341
  113MOL   C10236166   1.999   1.130   2.457 -0.3240 -0.7927 -0.1901
  113MOL   C10336167   2.177   1.259   2.584 -0.9144  0.2968 -0.1763
  113MOL   H10436168   1.666   1.493   2.564 -2.0240 -1.1727  0.1289
  113MOL   H10536169   1.764   1.426   2.690  0.0740 -3.3106  0.7889
  113MOL   H10636170   1.847   1.365   2.404 -2.3201 -0.8998  0.4677
  113MOL   H10736171   2.074   1.334   2.416  1.1348 -1.1499 -0.6943
  113MOL   H10836172   1.901   1.126   2.410 -0.7795  0.3226  0.6231
  113MOL   H10936173   2.012   1.073   2.549  3.8843 -0.5506 -0.5150
  113MOL   H11036174   2.082   1.086   2.401 -0.4315 -2.5561  1.0075
  113MOL   H11136175   2.245   1.193   2.531  0.6335  2.1650 -0.5988
  113MOL   H11236176   2.152   1.225   2.684  0.5549 -1.6301 -0.4333
  113MOL   H11336177   2.231   1.353   2.600  0.9436 -0.7722  0.0244
  113MOL   C11436178   1.914   1.550   2.480  0.2049  0.6392 -0.4689
  113MOL   C11536179   1.832   1.641   2.386 -0.6021 -0.2912 -0.0653
  113MOL   O11636180   1.792   1.754   2.468  0.5517 -0.1416  0.1888
  113MOL   C11736181   1.656   1.785   2.456  0.3152 -0.1874 -0.7582
  113MOL   C11836182   1.631   1.876   2.338 -0.8224 -0.0112  0.1548
  113MOL   C11936183   1.610   1.859   2.583  0.3434 -0.0214  0.5557
  113MOL   H12036184   2.021   1.547   2.461 -0.2222 -0.2774 -2.9069
  113MOL   H12136185   1.927   1.602   2.576  0.0099  1.7908 -1.0562
  113MOL   H12236186   1.745   1.586   2.350 -0.2876 -0.0428 -1.2112
  113MOL   H12336187   1.581   1.708   2.440 -0.6740  0.2118  1.7713
  113MOL   H12436188   1.662   1.828   2.245 -3.3485 -1.6435  0.0930
  113MOL   H12536189   1.683   1.971   2.344  0.8562 -0.8660 -0.3785
  113MOL   H12636190   1.523   1.891   2.331 -0.7841  0.2781  0.1946
  113MOL   H12736191   1.511   1.895   2.555  0.9348 -0.5261 -2.3559
  113MOL   H12836192   1.680   1.940   2.601  0.8445 -0.3047 -0.0629
  113MOL   H12936193   1.610   1.791   2.668 -4.8282 -0.0224  0.6817
  113MOL   C13036194   1.922   1.687   2.263 -0.7999 -0.1538  0.7164
  113MOL   C13136195   1.986   1.591   2.157 -0.0809  0.8510 -0.5785
  113MOL   O13236196   2.035   1.656   2.050  0.2911 -0.4897 -0.1569
  113MOL   C13336197   2.152   1.741   2.079  0.3484 -0.1321  0.1498
  113MOL   C13436198   2.273   1.685   1.998 -0.1500  0.1794 -0.1841
  113MOL   C13536199   2.127   1.883   2.038 -0.2147  1.1675 -0.3250
  113MOL   H13636200   1.999   1.752   2.305  0.8115 -2.0275  0.7388
  113MOL   H13736201   1.872   1.756   2.196 -1.1825 -1.6336 -0.5455
  113MOL   H13836202   2.060   1.529   2.207 -0.1381  1.2500  0.0118
  113MOL   H13936203   2.172   1.749   2.186  0.2001  1.4822  0.0627
  113MOL   H14036204   2.310   1.589   2.033 -2.4691 -0.5423  0.3600
  113MOL   H14136205   2.352   1.760   1.988 -0.7343  0.7481 -0.5522
  113MOL   H14236206   2.237   1.665   1.897 -3.4161 -3.5075  1.5671
  113MOL   H14336207   2.219   1.941   2.044 -0.5395  1.5435  1.3356
  113MOL   H14436208   2.080   1.906   1.942 -1.2628 -0.7258 -0.2946
  113MOL   H14536209   2.065   1.938   2.109 -0.6195  0.9728 -0.5267
  113MOL   C14636210   1.877   1.487   2.108 -0.3435 -0.5469 -0.7920
  113MOL   C14736211   1.914   1.391   1.992 -0.9302  0.3459  0.1474
  113MOL   O14836212   1.977   1.295   2.073 -0.2302 -0.0346  0.4272
  113MOL   C14936213   2.073   1.203   2.011 -0.3326 -0.2195 -0.0366
  113MOL   C15036214   2.105   1.115   2.131 -0.3711 -0.2211 -0.2178
  113MOL   C15136215   2.192   1.261   1.948  0.1781 -0.7915 -0.1234
  113MOL   H15236216   1.793   1.548   2.076 -1.1605 -1.8059 -1.0705
  113MOL   H15336217   1.838   1.445   2.200 -0.1101  0.6499 -0.1330
  113MOL   H15436218   1.978   1.429   1.913  0.1028 -1.9829 -0.1855
  113MOL   H15536219   2.030   1.143   1.930 -0.4297  0.4407 -0.4805
  113MOL   H15636220   2.017   1.064   2.169 -1.1156  0.3823 -1.1039
  113MOL   H15736221   2.142   1.170   2.217 -1.0131  1.6167 -1.0865
  113MOL   H15836222   2.176   1.036   2.107 -0.7719 -2.0970  4.2424
  113MOL   H15936223   2.163   1.321   1.861 -1.4452 -1.4276 -0.0496
  113MOL   H16036224   2.256   1.178   1.920 -1.9545 -1.7633 -2.3202
  113MOL   H16136225   2.263   1.311   2.014  0.0459 -0.4309 -0.2523
  113MOL   C16236226   1.801   1.317   1.912  0.0571  0.1374  0.2898
  113MOL   C16336227   1.730   1.414   1.814  0.5363 -0.4514 -0.3940
  113MOL   O16436228   1.827   1.430   1.707 -0.2590  0.3518 -0.5200
  113MOL   C16536229   1.820   1.559   1.640 -0.0466  0.3427 -0.7511
  113MOL   C16636230   1.803   1.541   1.485 -0.3842  0.2225 -0.3264
  113MOL   C16736231   1.931   1.654   1.682  0.3874 -0.2928 -0.6473
  113MOL   H16836232   1.839   1.232   1.855 -0.7964 -0.3206  0.3892
  113MOL   H16936233   1.732   1.275   1.985  0.6657 -1.0363  0.2048
  113MOL   H17036234   1.704   1.511   1.857  0.4783 -0.1677 -1.0652
  113MOL   H17136235   1.729   1.611   1.671  0.4719  1.2965 -0.7907
  113MOL   H17236236   1.875   1.466   1.450  0.4217 -1.3979  4.4005
  113MOL   H17336237   1.815   1.637   1.435 -2.1088  0.4740 -0.2835
  113MOL   H17436238   1.701   1.515   1.457 -1.3260  0.1309  2.9953
  113MOL   H17536239   2.028   1.632   1.638 -0.2150 -0.9078 -1.6774
  113MOL   H17636240   1.947   1.655   1.790 -2.2624 -1.9081 -0.2061
  113MOL   H17736241   1.907   1.758   1.661  0.0468 -0.4137 -0.8502
  113MOL   C17836242   1.596   1.367   1.754  0.2481  0.3074 -0.4555
  113MOL   C17936243   1.484   1.378   1.860  0.1894  0.6421  0.3688
  113MOL   O18036244   1.451   1.520   1.874  0.3093  0.3000 -0.4791
  113MOL   C18136245   1.381   1.569   1.988  0.3467  0.4622 -0.2750
  113MOL   C18236246   1.259   1.644   1.947 -0.3584 -0.0147 -0.4125
  113MOL   C18336247   1.477   1.663   2.052  0.1204 -0.0396  0.3088
  113MOL   H18436248   1.601   1.267   1.712 -0.4777  0.1254 -0.1181
  113MOL   H18536249   1.545   1.414   1.670  0.9572 -1.2251 -1.7563
  113MOL   H18636250   1.522   1.335   1.953 -0.1953 -0.3320  0.0850
  113MOL   H18736251   1.361   1.489   2.059 -2.0693  1.3832  0.1258
  113MOL   H18836252   1.203   1.677   2.035 -0.5324 -0.3221 -0.4088
  113MOL   H18936253   1.192   1.569   1.905  0.4080 -2.0179  1.8257
  113MOL   H19036254   1.281   1.728   1.881  1.9672  0.3877  0.8001
  113MOL   H19136255   1.424   1.712   2.133  1.3230 -0.2028  1.2054
  113MOL   H19236256   1.519   1.725   1.972  0.2959 -0.0465  0.3947
  113MOL   H19336257   1.560   1.611   2.100 -0.2142  0.9326  1.9731
  113MOL   C19436258   1.356   1.298   1.827  0.2076  0.3798 -0.6763
  113MOL   C19536259   1.361   1.144   1.841 -0.1634  0.2225  0.0733
  113MOL   O19636260   1.237   1.104   1.782  0.5974  0.7099  0.1980
  113MOL   C19736261   1.227   1.033   1.663 -0.5362 -0.1084 -0.1235
  113MOL   C19836262   1.277   0.884   1.681  0.0001 -0.5964 -0.7571
  113MOL   C19936263   1.083   1.050   1.605  0.4163  1.0645 -0.0640
  113MOL   H20036264   1.261   1.332   1.866  1.4079  0.9478  1.8427
  113MOL   H20136265   1.334   1.319   1.722 -0.1329  0.2428 -0.6326
  113MOL   H20236266   1.435   1.102   1.773 -1.6751 -0.6058 -1.0770
  113MOL   H20336267   1.280   1.077   1.579  0.6867 -3.1272 -0.9898
  113MOL   H20436268   1.272   0.849   1.578 -1.3699 -1.6323 -0.3412
  113MOL   H20536269   1.380   0.864   1.712 -0.6835  1.0181  2.7871
  113MOL   H20636270   1.205   0.823   1.735 -0.1962  0.2612 -0.0460
  113MOL   H20736271   1.078   1.031   1.498 -2.2945 -2.7237  0.6522
  113MOL   H20836272   1.006   0.991   1.655  0.9614 -0.3555 -0.8950
  113MOL   H20936273   1.036   1.148   1.618 -0.5253  0.7555 -1.0241
  113MOL   C21036274   1.392   1.101   1.984 -0.8049 -1.3116  0.6478
  113MOL   C21136275   1.355   0.963   2.042  0.0203 -0.4067  0.0593
  113MOL   O21236276   1.435   0.947   2.160 -0.2801 -0.0250 -0.4797
  113MOL   C21336277   1.533   0.845   2.154  1.1068 -0.3108 -0.6454
  113MOL   C21436278   1.628   0.838   2.026 -0.3391 -0.2749 -0.1044
  113MOL   C21536279   1.615   0.859   2.285 -0.7340  0.2755 -0.1132
  113MOL   H21636280   1.344   1.175   2.048 -0.3181 -0.9074  0.5511
  113MOL   H21736281   1.499   1.117   2.000 -1.0947 -0.5617  1.8810
  113MOL   H21836282   1.384   0.886   1.971 -0.8346 -1.3346  0.6898
  113MOL   H21936283   1.465   0.760   2.158  1.4383 -0.5807 -0.7178
  113MOL   H22036284   1.662   0.936   1.992 -0.2212 -0.7434 -1.3538
  113MOL   H22136285   1.597   0.785   1.936 -0.9988 -0.5518  0.2900
  113MOL   H22236286   1.715   0.784   2.066 -0.5559  0.2921  1.1521
  113MOL   H22336287   1.551   0.871   2.373 -0.9657 -1.1553 -0.0808
  113MOL   H22436288   1.682   0.945   2.288  2.4515 -2.1884  2.2984
  113MOL   H22536289   1.690   0.784   2.308 -0.1251  1.0007  0.2971
  113MOL   C22636290   1.210   0.946   2.089  0.6999  0.1565 -0.2025
  113MOL   C22736291   1.163   0.804   2.107 -0.1896  0.3191  0.3524
  113MOL   O22836292   1.169   0.741   1.980  0.1830  0.0015 -0.4612
  113MOL   C22936293   1.201   0.598   1.980  0.0048  0.1167  0.8073
  113MOL   C23036294   1.344   0.560   1.961  0.5527 -0.4349 -0.6729
  113MOL   C23136295   1.128   0.543   1.854  0.2905  0.4389  0.6190
  113MOL   H23236296   1.145   0.982   2.009  1.3470  0.9182 -0.3966
  113MOL   H23336297   1.194   0.992   2.187 -0.6673 -1.5030  0.3720
  113MOL   H23436298   1.227   0.752   2.177  1.7082  2.0559 -0.0602
  113MOL   H23536299   1.165   0.554   2.073  1.3594 -0.8073  0.9091
  113MOL   H23636300   1.392   0.622   1.885 -1.7784  1.3372 -0.7812
  113MOL   H23736301   1.413   0.577   2.044  0.6038 -1.3038 -0.5357
  113MOL   H23836302   1.375   0.462   1.927  0.2427 -0.1734 -1.7504
  113MOL   H23936303   1.176   0.577   1.762  1.4950  1.4421  1.5845
  113MOL   H24036304   1.028   0.587   1.860  1.0770  2.3535  0.0312
  113MOL   H24136305   1.123   0.435   1.846 -0.0306  0.4411  0.7534
  113MOL   C24236306   1.020   0.791   2.151 -0.0448 -0.8034 -0.5052
  113MOL   C24336307   0.993   0.818   2.298  0.1079 -0.4476  0.2597
  113MOL   O24436308   1.061   0.718   2.370  0.4044  0.1145  0.3908
  113MOL   C24536309   1.114   0.764   2.493  0.1727 -0.0478 -0.3904
  113MOL   C24636310   1.151   0.646   2.576 -0.4298  0.1697  0.1285
  113MOL   C24736311   1.240   0.852   2.476 -1.2332 -0.4986 -0.2560
  113MOL   H24836312   0.958   0.862   2.095 -1.9529 -0.1497  2.3448
  113MOL   H24936313   0.977   0.695   2.124 -0.5713 -1.0454  1.1974
  113MOL   H25036314   1.029   0.918   2.324 -2.6102  0.4090  0.9426
  113MOL   H25136315   1.032   0.814   2.543 -0.1618  0.6672 -1.6280
  113MOL   H25236316   1.073   0.572   2.593 -0.7082 -0.1350 -2.2944
  113MOL   H25336317   1.232   0.587   2.531  0.0295  2.0247 -1.5525
  113MOL   H25436318   1.190   0.673   2.675 -1.0835 -1.3446  0.8120
  113MOL   H25536319   1.321   0.792   2.435  0.3453  0.1188  1.9110
  113MOL   H25636320   1.234   0.924   2.394  1.5810 -0.7058 -0.6857
  113MOL   H25736321   1.269   0.891   2.574 -0.7415 -1.7005  0.0818
  113MOL   C25836322   0.846   0.796   2.344  1.6293 -0.2446  0.0069
  113MOL   C25936323   0.741   0.895   2.312  0.5080  0.4647 -0.1689
  113MOL   O26036324   0.736   0.906   2.173  0.0653 -0.0222 -0.3550
  113MOL   C26136325   0.655   0.805   2.112  0.4186 -0.3708  0.0956
  113MOL   C26236326   0.503   0.833   2.130  0.2227 -0.5219 -0.2354
  113MOL   C26336327   0.686   0.804   1.958  0.1155 -0.5126 -0.6412
  113MOL   H26436328   0.821   0.700   2.300  1.6141  0.5284 -1.7432
  113MOL   H26536329   0.849   0.782   2.451 -0.4998 -0.3264  0.0772
  113MOL   H26636330   0.653   0.854   2.361  0.5046 -0.9637 -1.3553
  113MOL   H26736331   0.680   0.705   2.148  2.3301 -0.0176 -0.2044
  113MOL   H26836332   0.461   0.824   2.230  0.3874  0.1795 -0.0963
  113MOL   H26936333   0.442   0.777   2.059 -2.7723 -0.9807  2.5694
  113MOL   H27036334   0.487   0.939   2.112 -1.8183 -0.6521  0.6868
  113MOL   H27136335   0.795   0.805   1.953  0.1848 -1.0779  0.7263
  113MOL   H27236336   0.652   0.708   1.919 -0.3344 -0.7545  0.3460
  113MOL   H27336337   0.654   0.899   1.915 -0.1707 -0.8323 -1.1405
  113MOL   C27436338   0.763   1.044   2.356 -0.1415  0.0487  0.5647
  113MOL   C27536339   0.806   1.062   2.504 -0.5110 -0.7772  1.1873
  113MOL   O27636340   0.834   1.200   2.522  0.1608  0.4079 -0.1583
  113MOL   C27736341   0.973   1.231   2.512 -0.1231 -0.0414 -0.1763
  113MOL   C27836342   1.062   1.164   2.626  0.6398  0.6429  0.2421
  113MOL   C27936343   0.975   1.383   2.510 -0.4591  0.5406  0.4989
  113MOL   H28036344   0.838   1.093   2.295  0.2220 -1.6839 -0.4304
  113MOL   H28136345   0.674   1.103   2.336 -0.8573 -1.6974 -1.6123
  113MOL   H28236346   0.897   1.003   2.517 -0.4109 -2.0040 -3.8044
  113MOL   H28336347   1.012   1.195   2.417 -1.4401 -0.0991 -0.6957
  113MOL   H28436348   1.164   1.203   2.625  1.4282 -1.3767 -0.0864
  113MOL   H28536349   1.026   1.190   2.726  1.4868 -0.6154  0.8821
  113MOL   H28636350   1.068   1.055   2.631  0.6953  0.6431  0.1881
  113MOL   H28736351   1.008   1.436   2.600 -0.5947 -1.4591  1.7578
  113MOL   H28836352   0.873   1.415   2.489 -0.2116  0.1170 -1.4237
  113MOL   H28936353   1.033   1.414   2.423 -0.8409 -0.7353 -0.2286
  113MOL   C29036354   0.697   1.026   2.609  0.2215 -0.3619 -0.6537
  113MOL   C29136355   0.743   1.016   2.755  0.1423 -0.1201 -0.3447
  113MOL   O29236356   0.631   1.014   2.846 -0.9868  0.9618  0.3575
  113MOL   C29336357   0.591   1.141   2.894 -1.5714 -0.0144  0.1185
  113MOL   C29436358   0.672   1.185   3.012 -0.6528 -0.0345 -0.5302
  113MOL   C29536359   0.439   1.139   2.926 -0.1640 -0.1541 -0.1849
  113MOL   H29636360   0.641   0.936   2.583  0.1708  0.2817 -2.8728
  113MOL   H29736361   0.627   1.110   2.609  0.2271 -0.3555 -1.1345
  113MOL   H29836362   0.816   1.091   2.787 -0.4698  0.3954 -0.1620
  113MOL   H29936363   0.603   1.213   2.813 -0.2219 -0.3292  0.0258
  113MOL   H30036364   0.670   1.096   3.074  0.7176  1.0981  1.2040
  113MOL   H30136365   0.780   1.197   3.003 -0.8937  0.5999 -3.0692
  113MOL   H30236366   0.632   1.275   3.058 -0.8483 -1.6364  2.5102
  113MOL   H30336367   0.387   1.079   2.852 -0.0820  1.1771 -1.3549
  113MOL   H30436368   0.419   1.097   3.025  0.5005 -2.4549 -0.9969
  113MOL   H30536369   0.398   1.240   2.921  0.6727  0.1541 -1.0351
  113MOL   C30636370   0.809   0.880   2.781  0.3553 -0.5142 -0.8951
  113MOL   C30736371   0.903   0.875   2.904  0.7121 -0.5855  0.3307
  113MOL   O30836372   1.029   0.925   2.873  0.6744 -0.1051  0.3227
  113MOL   C30936373   1.118   0.936   2.986 -0.1732  0.1926  0.2812
  113MOL   C31036374   1.260   0.885   2.953  0.2283 -0.8216  0.1238
  113MOL   C31136375   1.118   1.085   3.009  0.3720  0.9802  0.2078
  113MOL   H31236376   0.869   0.865   2.691  0.5796  1.7432 -1.1419
  113MOL   H31336377   0.747   0.790   2.790  1.4840 -1.0229  2.5342
  113MOL   H31436378   0.860   0.921   2.993 -0.2971 -0.8401 -0.0228
  113MOL   H31536379   1.089   0.878   3.073  0.9235  0.3039  0.7325
  113MOL   H31636380   1.327   0.900   3.037  1.7920 -0.5611 -1.1245
  113MOL   H31736381   1.302   0.944   2.871  0.2784 -1.0548 -0.0195
  113MOL   H31836382   1.261   0.777   2.939  1.7326 -0.4932 -2.7428
  113MOL   H31936383   1.133   1.139   2.916  0.8676  0.6004  0.0709
  113MOL   H32036384   1.189   1.116   3.086 -0.1532  0.8146  0.7616
  113MOL   H32136385   1.019   1.113   3.045 -0.3888  0.3391 -1.3592
  113MOL   H32236386   0.917   0.770   2.932  1.4003  0.2111  3.1843
  114MOL     C136387   5.040   4.422   6.655 -0.1245 -0.1818  0.5125
  114MOL     C236388   5.075   4.533   6.555 -0.1610 -0.0749  0.6346
  114MOL     O336389   5.029   4.649   6.618  0.6078 -0.0231  0.0277
  114MOL     C436390   4.918   4.705   6.551  0.3646  0.7960  0.4986
  114MOL     C536391   4.903   4.834   6.629  0.4554 -0.0047  0.3096
  114MOL     C636392   4.786   4.616   6.569  0.2306  0.4903  0.8588
  114MOL     H736393   5.064   4.323   6.617 -0.4033 -0.6609  1.5739
  114MOL     H836394   5.106   4.432   6.740  1.0853 -0.7762 -0.3438
  114MOL     H936395   5.027   4.521   6.457  0.5551 -2.9520  0.5778
  114MOL    H1036396   4.955   4.724   6.450 -0.6873  0.6855  0.0902
  114MOL    H1136397   4.882   4.826   6.736 -1.0304 -0.6698 -0.0199
  114MOL    H1236398   4.997   4.889   6.627  0.4963 -0.0754  0.3316
  114MOL    H1336399   4.829   4.898   6.581  1.3847  0.0905 -1.0244
  114MOL    H1436400   4.797   4.519   6.521 -0.6333  0.8841 -0.1357
  114MOL    H1536401   4.768   4.604   6.676  0.6366 -1.8882  0.6944
  114MOL    H1636402   4.707   4.662   6.512  1.3094  1.2178 -0.0717
  114MOL    H1736403   4.936   4.418   6.688  0.3304 -1.2571  1.8620
  114MOL    C1836404   5.225   4.539   6.542  0.0911 -0.0221 -0.2597
  114MOL    C1936405   5.276   4.615   6.420 -0.3340 -0.4195 -0.0607
  114MOL    O2036406   5.283   4.532   6.308 -0.1197  0.2453 -0.4239
  114MOL    C2136407   5.265   4.585   6.180  0.5881  0.2963  0.5276
  114MOL    C2236408   5.129   4.533   6.133 -0.1241  0.0024 -0.1863
  114MOL    C2336409   5.383   4.536   6.095 -0.7458  0.5828  0.4756
  114MOL    H2436410   5.249   4.589   6.636 -0.3907 -2.9132  1.4617
  114MOL    H2536411   5.266   4.438   6.548 -1.9065 -0.8218  0.4128
  114MOL    H2636412   5.211   4.700   6.399 -1.1497 -1.5134 -2.1960
  114MOL    H2736413   5.257   4.692   6.163 -0.4715  0.2369  0.6253
  114MOL    H2836414   5.053   4.561   6.205 -0.4570 -0.0306 -0.5263
  114MOL    H2936415   5.106   4.585   6.040  1.1867  1.5340  0.3266
  114MOL    H3036416   5.126   4.425   6.115  0.7090 -0.1316  0.4301
  114MOL    H3136417   5.473   4.570   6.146 -1.5109  1.5959  1.1819
  114MOL    H3236418   5.376   4.576   5.994  0.8518  2.5839  1.1325
  114MOL    H3336419   5.395   4.428   6.085  1.4497  0.9155 -0.6855
  114MOL    C3436420   5.419   4.669   6.445 -0.4569 -0.2572 -0.1602
  114MOL    C3536421   5.434   4.795   6.536  0.3372 -0.3032 -0.1891
  114MOL    O3636422   5.579   4.804   6.573 -0.2939 -0.0900  0.9373
  114MOL    C3736423   5.617   4.785   6.713 -0.3984 -0.1650  0.7874
  114MOL    C3836424   5.646   4.637   6.733 -0.1422  0.0373  0.1289
  114MOL    C3936425   5.735   4.880   6.740 -0.5499  0.0085 -0.0807
  114MOL    H4036426   5.473   4.686   6.351 -1.5178 -1.6301 -1.0451
  114MOL    H4136427   5.470   4.583   6.488  0.5324 -0.6104 -1.9524
  114MOL    H4236428   5.358   4.786   6.613  0.4001  1.0483  0.0440
  114MOL    H4336429   5.528   4.823   6.762  0.9167 -0.0769  3.1606
  114MOL    H4436430   5.734   4.602   6.680  0.6099  0.9511  0.7652
  114MOL    H4536431   5.558   4.581   6.702 -0.4685  1.1057 -0.9317
  114MOL    H4636432   5.646   4.618   6.840 -1.1015 -0.2803  0.0814
  114MOL    H4736433   5.835   4.850   6.706 -0.1924 -0.2207  1.1402
  114MOL    H4836434   5.723   4.986   6.721 -0.1604  0.1218  0.2935
  114MOL    H4936435   5.745   4.868   6.848  0.8834 -1.3344 -0.3451
  114MOL    C5036436   5.398   4.920   6.457  0.4170  0.0984 -0.0660
  114MOL    C5136437   5.392   5.057   6.534  0.3911  0.4153  0.2831
  114MOL    O5236438   5.284   5.057   6.630  0.2283 -0.7982 -0.1480
  114MOL    C5336439   5.322   5.074   6.766  0.4932  0.5973  0.2177
  114MOL    C5436440   5.199   5.053   6.855  0.7222 -0.5462 -0.3158
  114MOL    C5536441   5.387   5.210   6.802 -0.6489  0.1219 -0.3707
  114MOL    H5636442   5.461   4.932   6.369 -0.9455  0.3223 -1.0389
  114MOL    H5736443   5.300   4.897   6.415  0.6719  0.5269 -0.8956
  114MOL    H5836444   5.490   5.073   6.577  0.8195  1.2327 -0.9808
  114MOL    H5936445   5.403   5.005   6.790 -0.7353 -1.2512 -0.8317
  114MOL    H6036446   5.138   4.969   6.820 -1.1937  0.7430 -0.1052
  114MOL    H6136447   5.142   5.145   6.843 -1.1105 -1.4100  1.3397
  114MOL    H6236448   5.217   5.030   6.960 -1.1621  0.0763  0.1707
  114MOL    H6336449   5.316   5.291   6.786  0.6812  1.4038  0.0869
  114MOL    H6436450   5.474   5.234   6.741  0.7896 -3.1952  0.3037
  114MOL    H6536451   5.414   5.218   6.908 -1.0921  2.0421 -0.3825
  114MOL    C6636452   5.353   5.172   6.433  0.0829  0.0840 -0.1580
  114MOL    C6736453   5.441   5.290   6.405 -0.5314 -0.0147  0.2087
  114MOL    O6836454   5.361   5.383   6.336 -0.2799 -0.4063  0.2692
  114MOL    C6936455   5.353   5.513   6.396 -0.3585 -0.5120  0.5026
  114MOL    C7036456   5.295   5.604   6.284 -0.6401 -0.9836 -0.0390
  114MOL    C7136457   5.250   5.508   6.508  0.2615 -0.0515 -0.3769
  114MOL    H7236458   5.333   5.126   6.337  1.7435  0.6108 -0.7601
  114MOL    H7336459   5.255   5.212   6.461  0.3619  0.7895 -0.1585
  114MOL    H7436460   5.474   5.319   6.505 -0.1138 -0.6554  0.2590
  114MOL    H7536461   5.446   5.559   6.431 -1.4161  4.3851 -2.7078
  114MOL    H7636462   5.220   5.552   6.225 -1.3595  0.5659 -0.5357
  114MOL    H7736463   5.259   5.699   6.323  0.9368 -0.4718  0.2201
  114MOL    H7836464   5.384   5.627   6.226 -0.6823 -3.2363 -1.0550
  114MOL    H7936465   5.241   5.602   6.561  1.5289  0.1373 -0.4860
  114MOL    H8036466   5.271   5.432   6.583  0.3159  1.1167  0.8078
  114MOL    H8136467   5.150   5.479   6.475 -0.4704  1.7904  0.1600
  114MOL    C8236468   5.573   5.257   6.329  0.3750  0.0354 -0.1396
  114MOL    C8336469   5.687   5.365   6.327  0.7169  0.3564 -0.0198
  114MOL    O8436470   5.756   5.353   6.446 -0.7461  0.4137  0.1833
  114MOL    C8536471   5.724   5.448   6.549 -0.5272  0.1765 -0.1341
  114MOL    C8636472   5.791   5.580   6.523 -0.1513 -0.5915 -0.8536
  114MOL    C8736473   5.750   5.387   6.687 -0.1236  0.3185 -0.5054
  114MOL    H8836474   5.613   5.164   6.370 -2.1776 -1.5284 -1.0965
  114MOL    H8936475   5.555   5.235   6.223 -0.9477 -1.8501  0.4572
  114MOL    H9036476   5.658   5.468   6.305  1.6080  0.8261  0.9460
  114MOL    H9136477   5.617   5.464   6.544 -0.4223  0.2249 -2.7668
  114MOL    H9236478   5.756   5.648   6.600 -0.9789 -1.6953 -0.2409
  114MOL    H9336479   5.897   5.555   6.536 -0.2508  0.1077  1.6905
  114MOL    H9436480   5.761   5.625   6.429 -0.9319 -2.1917 -1.3805
  114MOL    H9536481   5.857   5.371   6.701 -0.3086 -2.1582 -1.7441
  114MOL    H9636482   5.734   5.453   6.773  0.0169 -1.9134  1.2792
  114MOL    H9736483   5.691   5.297   6.705 -0.0441  0.4688  0.5727
  114MOL    C9836484   5.790   5.334   6.222  0.3025  0.5283 -0.3021
  114MOL    C9936485   5.768   5.394   6.084 -0.1145 -0.3711  0.3981
  114MOL   O10036486   5.648   5.341   6.033  0.1938  0.2732 -0.3543
  114MOL   C10136487   5.583   5.417   5.932 -0.3880 -0.5231 -0.7396
  114MOL   C10236488   5.451   5.452   5.997  0.3732 -0.2354  0.5786
  114MOL   C10336489   5.574   5.337   5.806  0.3793  0.1165  1.0275
  114MOL   H10436490   5.885   5.373   6.259  0.5123  0.4985 -0.7987
  114MOL   H10536491   5.801   5.225   6.227 -0.7787  0.4875  1.7812
  114MOL   H10636492   5.753   5.502   6.095  1.9882 -0.2070  2.1188
  114MOL   H10736493   5.633   5.510   5.903  1.0203 -0.7041  1.0104
  114MOL   H10836494   5.465   5.481   6.102 -2.0527  2.1036  0.3052
  114MOL   H10936495   5.388   5.364   6.007 -0.4263  0.2963  0.1842
  114MOL   H11036496   5.407   5.533   5.939  2.0528  0.0665 -0.3109
  114MOL   H11136497   5.499   5.379   5.739 -1.6579 -2.0171  1.9337
  114MOL   H11236498   5.554   5.232   5.826 -1.2799 -0.1808 -1.9135
  114MOL   H11336499   5.666   5.343   5.748 -0.9880 -1.3410 -1.3852
  114MOL   C11436500   5.888   5.364   5.985 -0.6803 -0.3327  0.4956
  114MOL   C11536501   5.985   5.485   5.960 -0.2169 -0.6001 -0.1780
  114MOL   O11636502   6.066   5.486   6.082  0.0235 -0.3701  0.2203
  114MOL   C11736503   6.105   5.609   6.144  0.3927 -0.3915  1.0358
  114MOL   C11836504   6.207   5.555   6.238  0.0360 -0.0828  0.0487
  114MOL   C11936505   5.997   5.699   6.199 -0.0504 -0.4281  0.1067
  114MOL   H12036506   5.841   5.329   5.892  0.2065 -0.0212 -0.0727
  114MOL   H12136507   5.933   5.274   6.025 -1.5363 -1.7718 -1.6490
  114MOL   H12236508   5.928   5.578   5.955  0.7912  0.0900  0.8882
  114MOL   H12336509   6.171   5.660   6.074 -3.9793 -0.5327 -3.4247
  114MOL   H12436510   6.256   5.631   6.299 -1.4160  0.7432  0.2003
  114MOL   H12536511   6.287   5.506   6.182 -0.8635 -2.5732  0.8659
  114MOL   H12636512   6.171   5.476   6.303  2.7356  0.3768  2.2181
  114MOL   H12736513   6.039   5.799   6.201 -0.0843 -0.4042 -0.5239
  114MOL   H12836514   5.954   5.676   6.297 -0.5439 -2.9132 -0.6437
  114MOL   H12936515   5.919   5.690   6.125  0.1028 -3.1860  0.2072
  114MOL   C13036516   6.077   5.472   5.842  0.2491  0.6106  0.0730
  114MOL   C13136517   6.142   5.592   5.785 -0.3066  0.0473 -0.1354
  114MOL   O13236518   6.034   5.676   5.757 -0.0120  0.0252 -0.4897
  114MOL   C13336519   6.044   5.816   5.751 -0.8921 -0.7580  0.2686
  114MOL   C13436520   5.906   5.866   5.709  0.0279  0.5551  0.0385
  114MOL   C13536521   6.096   5.889   5.876 -0.8085 -0.8951 -0.1016
  114MOL   H13636522   6.017   5.439   5.758 -0.2176 -0.3689  0.7745
  114MOL   H13736523   6.161   5.404   5.860 -0.3160  0.0001  0.4450
  114MOL   H13836524   6.217   5.638   5.849  0.3231 -0.0698 -0.7856
  114MOL   H13936525   6.121   5.834   5.676  0.0394 -3.2446  0.5535
  114MOL   H14036526   5.831   5.841   5.783  0.0102 -1.4109 -0.6347
  114MOL   H14136527   5.868   5.826   5.615 -1.4182  1.5189  0.1897
  114MOL   H14236528   5.902   5.975   5.706 -0.1154  0.6117  1.7917
  114MOL   H14336529   6.121   5.994   5.858  0.3674 -1.0695  0.4636
  114MOL   H14436530   6.038   5.878   5.967  0.6467 -0.7122  0.8688
  114MOL   H14536531   6.192   5.853   5.914 -2.2077 -1.9469  2.5577
  114MOL   C14636532   6.210   5.549   5.648 -0.0668 -0.4608  0.0006
  114MOL   C14736533   6.354   5.492   5.643 -0.0601 -0.1433  0.0465
  114MOL   O14836534   6.362   5.470   5.501  0.0871  0.6281  0.3149
  114MOL   C14936535   6.454   5.372   5.452  0.3151 -0.5239 -0.8024
  114MOL   C15036536   6.507   5.407   5.309  0.3008 -0.1645  0.0921
  114MOL   C15136537   6.370   5.243   5.456  0.0111 -0.4603 -1.0946
  114MOL   H15236538   6.218   5.639   5.588  0.2903 -0.4062  0.1340
  114MOL   H15336539   6.150   5.477   5.593 -0.0837 -0.5380  0.1201
  114MOL   H15436540   6.366   5.397   5.696 -1.9868  0.5316  1.7679
  114MOL   H15536541   6.538   5.363   5.521 -1.5827  1.5018  1.8676
  114MOL   H15636542   6.587   5.341   5.275  0.2211 -0.2345  0.0429
  114MOL   H15736543   6.558   5.504   5.313  0.6656 -0.2560 -2.0652
  114MOL   H15836544   6.426   5.403   5.236  1.2348 -3.2239 -0.8512
  114MOL   H15936545   6.406   5.152   5.408  1.7643 -0.9122  0.9821
  114MOL   H16036546   6.275   5.271   5.412  0.2456  0.1061 -1.2421
  114MOL   H16136547   6.342   5.217   5.558  0.3774  1.3821 -0.5131
  114MOL   C16236548   6.467   5.588   5.686 -0.5159 -0.2497 -0.3215
  114MOL   C16336549   6.509   5.574   5.837 -0.6554 -0.1210  0.5489
  114MOL   O16436550   6.579   5.448   5.864  0.0907 -0.1359  0.0194
  114MOL   C16536551   6.553   5.393   5.990 -0.1554 -0.4706 -0.2328
  114MOL   C16636552   6.689   5.352   6.057  0.2955  0.7253  0.3476
  114MOL   C16736553   6.472   5.270   5.978  0.7967  0.1169 -0.3469
  114MOL   H16836554   6.560   5.560   5.636  0.0007  0.8290  0.0030
  114MOL   H16936555   6.435   5.690   5.663 -1.2011 -0.9492 -2.6235
  114MOL   H17036556   6.413   5.580   5.888 -0.8610 -0.9057  0.2686
  114MOL   H17136557   6.508   5.458   6.065 -0.7419 -1.9280  0.6944
  114MOL   H17236558   6.739   5.293   5.980 -0.1410 -0.2362  0.7979
  114MOL   H17336559   6.679   5.289   6.145 -0.2770  1.7597  1.0373
  114MOL   H17436560   6.758   5.434   6.078 -0.6085  1.4877  0.3718
  114MOL   H17536561   6.438   5.222   6.069 -0.9828 -0.4093 -1.2727
  114MOL   H17636562   6.532   5.195   5.926 -0.8438 -0.8462 -0.8748
  114MOL   H17736563   6.379   5.291   5.925 -0.6109 -1.4289  1.4393
  114MOL   C17836564   6.619   5.681   5.869  0.2882  0.6017  0.3508
  114MOL   C17936565   6.635   5.730   6.015 -0.6094 -0.5791 -0.5965
  114MOL   O18036566   6.737   5.831   6.015 -0.1622 -0.3022 -0.2993
  114MOL   C18136567   6.848   5.827   6.098  0.3222 -0.5875 -0.4252
  114MOL   C18236568   6.902   5.973   6.102  0.0124  0.0402  0.1481
  114MOL   C18336569   6.953   5.741   6.022  0.0014 -0.2996 -0.0342
  114MOL   H18436570   6.603   5.770   5.809 -3.0922 -0.2066 -0.0536
  114MOL   H18536571   6.715   5.636   5.841 -1.0237 -0.5605 -2.4499
  114MOL   H18636572   6.654   5.650   6.088 -0.3140 -2.2993 -2.5127
  114MOL   H18736573   6.819   5.775   6.188  1.9336 -1.7434 -0.5516
  114MOL   H18836574   6.956   5.999   6.011 -0.7035 -1.4663 -0.7363
  114MOL   H18936575   6.979   5.991   6.176  1.6687  1.1178 -1.7725
  114MOL   H19036576   6.818   6.041   6.119  1.2827  1.4040  1.0724
  114MOL   H19136577   6.919   5.645   5.985  0.3293 -0.0844 -0.8960
  114MOL   H19236578   7.029   5.704   6.091 -1.5355 -0.8891  1.3750
  114MOL   H19336579   6.995   5.784   5.931  0.3952  0.2214  0.3929
  114MOL   C19436580   6.505   5.794   6.057 -0.0021 -0.6401  0.0072
  114MOL   C19536581   6.492   5.812   6.209 -1.0263  0.0467  0.0103
  114MOL   O19636582   6.489   5.683   6.278  0.1079  0.0352 -0.4777
  114MOL   C19736583   6.554   5.674   6.403  0.5932 -0.3181 -0.2530
  114MOL   C19836584   6.454   5.724   6.519  0.2388  0.0835  0.1485
  114MOL   C19936585   6.596   5.531   6.415 -0.2541  0.5062  0.0529
  114MOL   H20036586   6.492   5.888   6.003 -1.6446  0.0044  1.4490
  114MOL   H20136587   6.420   5.731   6.031 -0.8283 -0.2460  1.6391
  114MOL   H20236588   6.580   5.865   6.245 -1.1260 -0.5048  1.0949
  114MOL   H20336589   6.650   5.725   6.394 -0.1958  1.0781 -1.0364
  114MOL   H20436590   6.503   5.724   6.616  2.0787 -0.7999 -0.7496
  114MOL   H20536591   6.443   5.832   6.506  1.0322 -0.0498 -1.8867
  114MOL   H20636592   6.356   5.676   6.525 -0.0194  0.6412  0.4359
  114MOL   H20736593   6.647   5.507   6.321 -0.0794  1.1619 -0.0238
  114MOL   H20836594   6.666   5.507   6.495 -1.5478 -4.0896 -0.0654
  114MOL   H20936595   6.523   5.451   6.427  2.2731 -1.7659  0.8118
  114MOL   C21036596   6.374   5.912   6.234 -0.1832  0.1996 -0.1447
  114MOL   C21136597   6.407   6.066   6.257 -0.4160 -0.2285  0.2245
  114MOL   O21236598   6.282   6.134   6.238  0.2359  0.3707 -0.2860
  114MOL   C21336599   6.246   6.184   6.106 -0.3333 -0.1856 -0.4870
  114MOL   C21436600   6.095   6.189   6.086 -0.4996  0.7891  0.1463
  114MOL   C21536601   6.310   6.321   6.088  0.2346  0.4489  0.3839
  114MOL   H21636602   6.322   5.885   6.326 -1.3452 -1.3151 -1.2223
  114MOL   H21736603   6.286   5.890   6.173 -1.2521  1.0546  1.0577
  114MOL   H21836604   6.489   6.092   6.190  0.4120 -0.3360  1.1903
  114MOL   H21936605   6.286   6.123   6.026 -0.3448 -0.3135 -0.3951
  114MOL   H22036606   6.066   6.087   6.108  2.1556  0.3105  1.6130
  114MOL   H22136607   6.062   6.210   5.984 -1.4246 -0.9173  0.0839
  114MOL   H22236608   6.036   6.253   6.153 -0.5859 -0.6010  1.4186
  114MOL   H22336609   6.418   6.312   6.071  0.1913  0.9957 -0.1878
  114MOL   H22436610   6.304   6.374   6.183  0.4779 -0.5933  0.9935
  114MOL   H22536611   6.270   6.381   6.006 -1.7778 -1.9004 -0.4025
  114MOL   C22636612   6.452   6.089   6.400  0.2396  0.3173 -0.0091
  114MOL   C22736613   6.509   6.228   6.430  0.1564  0.1220  0.0787
  114MOL   O22836614   6.633   6.236   6.359  0.9768 -0.3778 -0.2281
  114MOL   C22936615   6.662   6.352   6.286 -0.2839  0.0252  0.1174
  114MOL   C23036616   6.762   6.306   6.184 -1.3067  0.0253  0.9396
  114MOL   C23136617   6.713   6.465   6.365  0.5377  0.0215  0.2323
  114MOL   H23236618   6.535   6.020   6.418  0.0184 -0.1496 -0.7667
  114MOL   H23336619   6.374   6.059   6.470  1.1368  0.1179  0.9169
  114MOL   H23436620   6.438   6.301   6.392 -0.6091 -1.7250 -2.1690
  114MOL   H23536621   6.569   6.378   6.237  0.4777 -2.1422 -2.5840
  114MOL   H23636622   6.804   6.392   6.132 -3.1372  0.7569  0.6569
  114MOL   H23736623   6.852   6.257   6.221  0.0728  0.1458 -2.1485
  114MOL   H23836624   6.722   6.229   6.119 -1.0107  0.9795 -0.3882
  114MOL   H23936625   6.714   6.555   6.303 -1.8285 -1.0801 -1.4735
  114MOL   H24036626   6.816   6.441   6.391 -0.0829 -2.0142  0.8528
  114MOL   H24136627   6.650   6.493   6.449 -0.6580 -2.7784  0.3289
  114MOL   C24236628   6.537   6.250   6.577  0.1783  0.3539 -0.1503
  114MOL   C24336629   6.406   6.251   6.669  0.2352  0.2503 -0.1292
  114MOL   O24436630   6.313   6.354   6.632  0.3913  0.3285 -0.2340
  114MOL   C24536631   6.171   6.330   6.655 -0.5686 -0.1598  0.0468
  114MOL   C24636632   6.121   6.469   6.690  0.2537  0.3098  0.0627
  114MOL   C24736633   6.100   6.281   6.527 -0.2773  0.5396 -0.3066
  114MOL   H24836634   6.611   6.173   6.599  0.1607  0.2965 -0.2937
  114MOL   H24936635   6.591   6.343   6.591  2.7720 -1.0627 -0.4823
  114MOL   H25036636   6.372   6.148   6.657 -0.8615  0.4415  1.1717
  114MOL   H25136637   6.163   6.261   6.739  0.3273 -0.6906 -0.2974
  114MOL   H25236638   6.163   6.495   6.787  1.4604 -1.2635 -0.0264
  114MOL   H25336639   6.152   6.535   6.608 -0.9366  0.1936 -0.5001
  114MOL   H25436640   6.012   6.464   6.687  0.1502 -0.9940  4.0201
  114MOL   H25536641   6.080   6.358   6.452  3.2406  0.3459 -1.5523
  114MOL   H25636642   6.177   6.215   6.487 -0.4344  1.4331 -2.1712
  114MOL   H25736643   6.003   6.232   6.540 -0.2054 -0.0412 -1.8134
  114MOL   C25836644   6.447   6.293   6.811 -0.4805  0.1243 -0.0339
  114MOL   C25936645   6.424   6.198   6.923 -0.2865 -0.1087 -0.6766
  114MOL   O26036646   6.446   6.266   7.043 -0.8020  0.3704  0.4517
  114MOL   C26136647   6.348   6.235   7.142  0.0950 -0.2303  0.1252
  114MOL   C26236648   6.416   6.260   7.277  0.0143 -0.0460  0.2486
  114MOL   C26336649   6.243   6.334   7.108  0.2517 -0.9212 -0.7004
  114MOL   H26436650   6.556   6.298   6.800 -0.6459 -1.9007 -3.2769
  114MOL   H26536651   6.422   6.394   6.843  1.0344 -0.0514  1.8035
  114MOL   H26636652   6.320   6.166   6.914  0.0837 -1.4205 -0.3529
  114MOL   H26736653   6.316   6.131   7.143 -1.0037  0.1013  0.1102
  114MOL   H26836654   6.465   6.358   7.268  0.5264 -0.4692 -1.8088
  114MOL   H26936655   6.479   6.179   7.314 -0.3297 -0.4405 -0.0393
  114MOL   H27036656   6.344   6.269   7.359 -1.1512 -0.4750 -0.7297
  114MOL   H27136657   6.188   6.327   7.015 -1.1410 -0.1313  0.0485
  114MOL   H27236658   6.165   6.340   7.184 -0.3751  1.2620 -1.4704
  114MOL   H27336659   6.292   6.431   7.092 -2.0129  0.0539 -1.9548
  114MOL   C27436660   6.511   6.075   6.924 -0.0358 -1.1071  0.7189
  114MOL   C27536661   6.466   5.940   6.855  0.4950 -0.0649 -0.3709
  114MOL   O27636662   6.580   5.862   6.820 -0.0360 -0.1292 -0.7911
  114MOL   C27736663   6.675   5.817   6.922  0.1952  1.3196 -0.5248
  114MOL   C27836664   6.813   5.858   6.869  0.0328 -0.4815 -0.7717
  114MOL   C27936665   6.665   5.666   6.915 -0.0644  0.3551 -0.5984
  114MOL   H28036666   6.601   6.110   6.873 -1.1946 -1.9388 -2.0126
  114MOL   H28136667   6.542   6.054   7.027  2.4197 -4.1253 -0.5178
  114MOL   H28236668   6.434   5.970   6.755  1.0416 -0.2996 -0.6204
  114MOL   H28336669   6.653   5.849   7.024  0.3959 -0.1066 -0.0335
  114MOL   H28436670   6.835   5.827   6.766  1.6971  1.1613 -0.9478
  114MOL   H28536671   6.830   5.965   6.873  2.7059 -0.9032  0.5143
  114MOL   H28636672   6.888   5.802   6.925  0.2122 -1.6217 -2.1015
  114MOL   H28736673   6.723   5.610   6.989 -0.3518  1.0314  0.1508
  114MOL   H28836674   6.697   5.641   6.814  1.1777  0.1563 -0.1582
  114MOL   H28936675   6.561   5.631   6.913  0.0679 -0.0374 -0.6767
  114MOL   C29036676   6.365   5.857   6.945  0.2770  0.8173  0.6734
  114MOL   C29136677   6.221   5.836   6.885  0.3949  0.0346 -0.0174
  114MOL   O29236678   6.130   5.790   6.975 -0.1041  0.3688  0.3626
  114MOL   C29336679   6.122   5.651   6.997  0.4514 -0.4914 -0.0816
  114MOL   C29436680   6.027   5.595   6.902  0.1976  0.1108 -0.0902
  114MOL   C29536681   6.076   5.629   7.143 -0.1723  0.3962 -0.2627
  114MOL   H29636682   6.339   5.915   7.033 -2.7476 -0.8745  0.9539
  114MOL   H29736683   6.409   5.759   6.968  0.1346  1.5100  4.2813
  114MOL   H29836684   6.220   5.767   6.800 -0.2786  2.2029 -1.8196
  114MOL   H29936685   6.219   5.600   6.992  1.7067  1.6604  1.3492
  114MOL   H30036686   5.987   5.500   6.934 -1.2341  0.1428 -1.7294
  114MOL   H30136687   5.949   5.664   6.870  0.6668  1.7931  2.2613
  114MOL   H30236688   6.079   5.570   6.809 -0.2315 -2.4499  0.3425
  114MOL   H30336689   6.033   5.530   7.149 -0.1127  0.3436 -0.6908
  114MOL   H30436690   6.168   5.624   7.201 -0.2997  1.0201  0.0056
  114MOL   H30536691   6.016   5.709   7.186 -0.3781  1.0168 -1.6824
  114MOL   C30636692   6.152   5.969   6.829 -1.1376  0.4076 -0.3672
  114MOL   C30736693   6.019   5.950   6.763  0.3803  0.5224 -0.1351
  114MOL   O30836694   5.951   6.070   6.722 -0.6711 -0.2203 -0.0194
  114MOL   C30936695   5.812   6.085   6.740  0.4903  0.1466  0.0167
  114MOL   C31036696   5.775   6.227   6.733  0.1059  0.6938  0.0256
  114MOL   C31136697   5.741   5.994   6.648  0.8794  0.0372  0.5599
  114MOL   H31236698   6.213   6.025   6.758  1.0676  0.2796  1.3893
  114MOL   H31336699   6.134   6.033   6.915  0.6396  0.9336 -0.3729
  114MOL   H31436700   6.020   5.876   6.683 -1.8153 -0.1851  0.4630
  114MOL   H31536701   5.780   6.054   6.840 -1.2889  1.5202 -0.1037
  114MOL   H31636702   5.676   6.252   6.771 -0.1621 -0.3307  0.0051
  114MOL   H31736703   5.790   6.271   6.634  2.0744 -1.7404 -0.8238
  114MOL   H31836704   5.849   6.286   6.786 -0.0951  1.3732 -0.4483
  114MOL   H31936705   5.640   6.031   6.640  1.3653  1.2010 -0.2798
  114MOL   H32036706   5.743   5.890   6.683  1.2064  0.2299  1.1398
  114MOL   H32136707   5.796   5.990   6.554 -1.2002  2.1944 -0.7920
  114MOL   H32236708   5.950   5.908   6.836 -2.4974  1.5775 -2.1631
  115MOL     C136709   7.137   1.812   7.603  0.1428 -0.2378  0.4653
  115MOL     C236710   7.259   1.871   7.536 -0.8042 -0.3673 -0.0310
  115MOL     O336711   7.262   2.011   7.558 -1.0486  1.2632  0.1968
  115MOL     C436712   7.228   2.089   7.446  0.4636  0.2715  0.6990
  115MOL     C536713   7.302   2.230   7.461  0.0355 -0.1844  0.2775
  115MOL     C636714   7.075   2.100   7.429 -0.4363  1.0030 -0.5175
  115MOL     H736715   7.163   1.812   7.708 -3.0616 -1.2632  1.3024
  115MOL     H836716   7.049   1.876   7.592  0.9167  0.7426 -0.0803
  115MOL     H936717   7.249   1.839   7.432 -0.7222  0.9065 -0.4463
  115MOL    H1036718   7.268   2.042   7.357  0.6740  0.9716  0.4224
  115MOL    H1136719   7.411   2.226   7.456 -0.0967 -1.1732 -3.3378
  115MOL    H1236720   7.265   2.290   7.377  3.3256  2.4900  0.6289
  115MOL    H1336721   7.278   2.277   7.557 -0.0551 -0.2250  0.2747
  115MOL    H1436722   7.051   2.184   7.363  0.6206  1.5516 -0.2105
  115MOL    H1536723   7.051   2.003   7.387  0.3678  0.3628  0.4903
  115MOL    H1636724   7.026   2.115   7.525  2.6049  0.3584  1.1740
  115MOL    H1736725   7.111   1.710   7.574 -0.5860  0.2070 -0.5012
  115MOL    C1836726   7.394   1.807   7.586  0.0866 -0.0255  0.5242
  115MOL    C1936727   7.513   1.865   7.502 -0.6983 -0.0689  0.4173
  115MOL    O2036728   7.512   1.795   7.381  0.4383 -0.6310  0.1106
  115MOL    C2136729   7.579   1.841   7.271 -0.8751  0.3231  0.6215
  115MOL    C2236730   7.486   1.927   7.184  0.5335 -0.3161  0.7320
  115MOL    C2336731   7.620   1.709   7.206 -0.5328 -0.1029 -0.0689
  115MOL    H2436732   7.416   1.826   7.691 -1.7492  1.6317  0.6241
  115MOL    H2536733   7.379   1.700   7.569  0.4364  0.0166 -0.0767
  115MOL    H2636734   7.516   1.972   7.481 -0.3503 -0.0346  0.6333
  115MOL    H2736735   7.669   1.898   7.290 -0.5766 -0.6578  2.2839
  115MOL    H2836736   7.387   1.890   7.157  0.9324 -0.4623 -0.5462
  115MOL    H2936737   7.462   2.017   7.239 -1.3398  0.1120 -0.7353
  115MOL    H3036738   7.545   1.960   7.099  0.9080  0.7259  1.3970
  115MOL    H3136739   7.678   1.643   7.272 -1.1447 -0.2309  0.3447
  115MOL    H3236740   7.675   1.714   7.112 -0.7947  1.7664 -0.1370
  115MOL    H3336741   7.530   1.648   7.197  0.6677 -2.3356  2.2966
  115MOL    C3436742   7.638   1.835   7.577  0.5424  0.7422  0.0875
  115MOL    C3536743   7.694   1.952   7.653  0.3661  0.3217  0.0809
  115MOL    O3636744   7.595   1.999   7.748  0.0527 -0.3181 -0.3125
  115MOL    C3736745   7.573   2.139   7.749 -0.2891  0.5975  0.1851
  115MOL    C3836746   7.431   2.163   7.795  0.0061  0.5498  0.2384
  115MOL    C3936747   7.689   2.218   7.809 -0.1971 -0.1668 -0.3728
  115MOL    H4036748   7.717   1.811   7.506  2.6499  2.4262  1.7936
  115MOL    H4136749   7.619   1.752   7.644  0.3905  2.5173  2.3110
  115MOL    H4236750   7.726   2.027   7.582 -0.6993  1.3904  0.7092
  115MOL    H4336751   7.576   2.171   7.644  1.5602 -2.0491 -0.6291
  115MOL    H4436752   7.423   2.148   0.083  1.4625 -0.4300  0.2218
  115MOL    H4536753   7.374   2.090   7.737 -1.9226  0.9854  1.5318
  115MOL    H4636754   7.403   2.266   7.771  2.0954  1.4530  1.5079
  115MOL    H4736755   7.691   2.177   0.090  1.3106 -1.7578 -1.0084
  115MOL    H4836756   7.786   2.204   7.761  1.2079 -0.8611  2.5236
  115MOL    H4936757   7.662   2.323   7.817  0.6486  0.0534 -0.3140
  115MOL    C5036758   7.808   1.895   7.744 -0.5641 -0.9040  0.8117
  115MOL    C5136759   0.117   1.838   7.687  0.6651 -0.5625 -0.4757
  115MOL    O5236760   0.188   1.769   7.792 -0.3190  0.4578 -0.0733
  115MOL    C5336761   0.211   1.631   7.769  0.3523 -0.4768 -0.3708
  115MOL    C5436762   0.081   1.555   7.781  0.0184  0.4957 -1.0716
  115MOL    C5536763   0.300   1.587   0.061 -0.4032 -0.7579  0.0745
  115MOL    H5636764   0.016   1.975   7.813 -2.8686  1.8792 -1.3368
  115MOL    H5736765   7.782   1.816   7.815  0.7666 -0.7536  1.4817
  115MOL    H5836766   0.085   1.767   7.610 -0.1873 -1.2374  0.4899
  115MOL    H5936767   0.254   1.617   7.669  2.2123 -1.0008  0.4862
  115MOL    H6036768   0.108   1.459   7.739  1.2049 -0.7725  2.3908
  115MOL    H6136769   7.820   1.607   7.730 -0.3248 -0.7328 -1.7952
  115MOL    H6236770   0.051   1.541   0.065  3.1961  0.3990 -0.1193
  115MOL    H6336771   0.376   1.664   0.076 -0.1284 -1.3211  1.6918
  115MOL    H6436772   0.362   1.502   0.030  1.2815  0.5133 -0.1378
  115MOL    H6536773   0.267   1.559   0.161  1.2922 -2.3416  0.2307
  115MOL    C6636774   0.205   1.938   7.620  0.7866 -0.8187 -0.6318
  115MOL    C6736775   0.283   1.878   7.506  0.0640  0.7787  0.4960
  115MOL    O6836776   0.396   1.953   7.471 -0.1830 -0.2259 -0.2794
  115MOL    C6936777   0.525   1.900   7.498  0.1865  0.0324  0.1341
  115MOL    C7036778   0.618   1.996   7.426  0.7999  0.4197 -0.0036
  115MOL    C7136779   0.557   1.889   7.654  0.7742  0.1518  0.7910
  115MOL    H7236780   0.143   2.022   7.589 -0.3123 -0.5341  2.1780
  115MOL    H7336781   0.269   1.983   7.696  0.5609  2.9707 -2.5686
  115MOL    H7436782   0.323   1.781   7.534  0.4681  1.3826  2.0456
  115MOL    H7536783   0.540   1.803   7.451 -0.0199  0.1200 -0.1153
  115MOL    H7636784   0.718   1.954   7.429  1.7478  2.6039  0.0573
  115MOL    H7736785   0.602   2.005   7.318  2.7369  1.6600 -0.2129
  115MOL    H7836786   0.611   2.096   7.468  1.3551  0.6090 -0.3600
  115MOL    H7936787   0.662   1.871   7.679  0.6057  0.2724  1.5760
  115MOL    H8036788   0.512   1.797   7.690 -1.5145  0.7072 -0.6095
  115MOL    H8136789   0.524   1.979   7.705 -1.5887 -0.7148  0.8120
  115MOL    C8236790   0.196   1.865   7.376  0.3458  0.3637  0.7153
  115MOL    C8336791   0.261   1.772   7.281 -0.3661  0.1900 -0.3350
  115MOL    O8436792   0.258   1.645   7.350 -0.1788  0.0324  0.1076
  115MOL    C8536793   0.322   1.529   7.295 -0.1669  0.0811 -0.4045
  115MOL    C8636794   0.273   1.409   7.378  0.2492  0.5118  0.4390
  115MOL    C8736795   0.474   1.543   7.302  0.0721  0.0068 -0.6515
  115MOL    H8836796   0.095   1.825   7.385 -1.0459  3.5578  0.0314
  115MOL    H8936797   0.192   1.963   7.328 -0.2884  0.3660  0.7726
  115MOL    H9036798   0.363   1.808   7.272  0.0104 -0.8808 -0.4001
  115MOL    H9136799   0.299   1.507   7.191  3.6728 -0.5057 -1.2119
  115MOL    H9236800   0.308   1.324   7.320 -0.5554 -1.0201  2.1520
  115MOL    H9336801   0.325   1.415   7.474 -1.2451 -1.1644  1.3820
  115MOL    H9436802   0.165   1.405   7.389 -0.0418  2.3036 -1.3764
  115MOL    H9536803   0.506   1.625   7.238 -0.7308  1.3896  0.6884
  115MOL    H9636804   0.503   1.576   7.402  0.0058 -0.1312 -0.5866
  115MOL    H9736805   0.526   1.451   7.276  0.5832  0.3987 -1.0154
  115MOL    C9836806   0.186   1.764   7.149  0.1367 -0.0807  0.1101
  115MOL    C9936807   0.269   1.775   7.016 -0.1070 -0.2870 -0.0547
  115MOL   O10036808   0.335   1.901   7.009 -0.9458 -0.1361 -0.5466
  115MOL   C10136809   0.460   1.908   6.930 -0.1442 -0.5248  0.1858
  115MOL   C10236810   0.576   1.874   7.030 -0.0316  0.5160  0.8372
  115MOL   C10336811   0.453   2.051   6.856 -0.3561  0.4640  0.5665
  115MOL   H10436812   0.146   1.663   7.152  2.8362 -1.1690  1.1001
  115MOL   H10536813   0.106   1.837   7.133  0.9003  0.6712 -0.3041
  115MOL   H10636814   0.353   1.706   7.007 -0.7448 -1.3170  1.6860
  115MOL   H10736815   0.456   1.824   6.860 -0.5647 -0.7995  0.5411
  115MOL   H10836816   0.662   1.901   6.969 -1.5772 -2.6523 -3.0453
  115MOL   H10936817   0.592   1.767   7.042  0.9405  0.4723 -0.6768
  115MOL   H11036818   0.569   1.932   7.122  1.2004  0.1313  1.1726
  115MOL   H11136819   0.473   2.131   6.927  1.5932  1.3752 -0.9766
  115MOL   H11236820   0.360   2.076   6.804  0.0874  0.2856 -0.3301
  115MOL   H11336821   0.528   2.070   6.780  0.0040  0.3160  0.8854
  115MOL   C11436822   0.182   1.753   6.886 -0.3831 -0.4574  0.0126
  115MOL   C11536823   0.127   1.609   6.864 -0.5144 -0.3596 -0.1210
  115MOL   O11636824   0.029   1.621   6.758 -0.0947 -0.0410 -0.2779
  115MOL   C11736825   7.722   1.672   6.792 -0.1494 -0.4589  0.0491
  115MOL   C11836826   7.631   1.566   6.862 -0.5929  0.1089  0.0638
  115MOL   C11936827   7.666   1.687   6.654 -0.0543 -0.1732  0.1869
  115MOL   H12036828   0.248   1.781   6.804  1.2607  0.7772  1.7247
  115MOL   H12136829   0.106   1.830   6.883  0.9318  0.7794 -2.5619
  115MOL   H12236830   0.083   1.572   6.957 -0.3897  0.8244  0.4281
  115MOL   H12336831   7.727   1.765   6.850 -1.7675 -0.8656  0.8760
  115MOL   H12436832   7.554   1.624   6.912 -1.5212  0.1304 -1.3476
  115MOL   H12536833   7.693   1.513   6.934  1.4557 -0.6316 -2.1715
  115MOL   H12636834   7.589   1.481   6.807  1.1483 -0.1883 -0.8461
  115MOL   H12736835   7.716   1.760   6.591 -2.2832  0.2138 -1.2213
  115MOL   H12836836   7.561   1.716   6.650  0.2631  1.0106  0.2442
  115MOL   H12936837   7.673   1.592   6.600  2.0678 -0.6183  1.1986
  115MOL   C13036838   0.242   1.517   6.818  0.4195  0.1196  0.4005
  115MOL   C13136839   0.211   1.370   6.781  0.0932 -0.7826 -0.6900
  115MOL   O13236840   0.205   1.303   6.909 -0.4427  0.4162  0.5077
  115MOL   C13336841   0.084   1.246   6.943 -0.2696 -0.0523 -0.0403
  115MOL   C13436842   0.063   1.111   6.869 -0.0061  0.0085  0.3025
  115MOL   C13536843   0.078   1.249   7.099 -0.7635  0.0809  0.1437
  115MOL   H13636844   0.308   1.510   6.904  1.6115 -1.7062 -0.6226
  115MOL   H13736845   0.290   1.565   6.733 -1.6686 -0.7516 -1.3350
  115MOL   H13836846   0.119   1.366   6.723 -0.0015  2.8613 -0.9626
  115MOL   H13936847   0.017   1.324   6.905  0.4789 -0.5651 -2.5274
  115MOL   H14036848   0.155   1.057   6.890 -0.1995  0.3140  2.0083
  115MOL   H14136849   0.050   1.123   6.761 -1.5695 -1.3390  0.3413
  115MOL   H14236850   7.795   1.061   6.908 -1.8390  2.1110 -1.0570
  115MOL   H14336851   7.809   1.199   7.136 -1.4709  1.2486  0.0187
  115MOL   H14436852   0.158   1.182   7.131  1.5155  2.2154 -0.8635
  115MOL   H14536853   0.080   1.347   7.147 -0.8723  0.3772 -0.4491
  115MOL   C14636854   0.323   1.308   6.701  0.1127 -0.5313 -0.0328
  115MOL   C14736855   0.305   1.332   6.556 -0.2298 -0.1076  0.3525
  115MOL   O14836856   0.306   1.474   6.529 -0.5562 -0.0397 -0.2976
  115MOL   C14936857   0.234   1.516   6.410 -0.0053 -0.2049  0.1434
  115MOL   C15036858   0.302   1.629   6.339  0.4545  1.1634  0.3445
  115MOL   C15136859   0.083   1.551   6.444 -0.7480  0.0392  0.2705
  115MOL   H15236860   0.316   1.200   6.717  0.3402 -0.2938  1.7601
  115MOL   H15336861   0.423   1.328   6.739 -0.5696  0.9214  1.0390
  115MOL   H15436862   0.204   1.301   6.526  0.0599 -0.9892  0.2749
  115MOL   H15536863   0.235   1.428   6.346  1.7146  0.3444 -0.6091
  115MOL   H15636864   0.410   1.614   6.345  0.1871 -1.4000 -0.3925
  115MOL   H15736865   0.283   1.723   6.390 -0.4030  0.2924  1.6509
  115MOL   H15836866   0.271   1.632   6.234 -1.9822 -0.1702  0.9933
  115MOL   H15936867   0.089   1.656   6.475  3.1234 -0.0590  0.1437
  115MOL   H16036868   0.035   1.486   6.517 -1.4059  0.4086  0.1757
  115MOL   H16136869   0.031   1.543   6.349 -4.8522  1.6250  2.2514
  115MOL   C16236870   0.413   1.267   6.467 -0.0774  0.2617 -0.4693
  115MOL   C16336871   0.408   1.111   6.478  1.0454 -1.0946 -0.5320
  115MOL   O16436872   0.279   1.070   6.442 -0.4933  0.0205 -0.4147
  115MOL   C16536873   0.240   0.938   6.461  0.8044  0.4900 -0.7893
  115MOL   C16636874   0.114   0.919   6.377  0.7147  0.5048 -0.3021
  115MOL   C16736875   0.223   0.893   6.612  0.2695 -0.9491  0.1904
  115MOL   H16836876   0.395   1.296   6.364  0.1103 -1.1478 -0.9137
  115MOL   H16936877   0.506   1.314   6.499  0.0902 -0.8776  0.8105
  115MOL   H17036878   0.442   1.083   6.577  0.4061  1.4359  0.4475
  115MOL   H17136879   0.314   0.869   6.421 -2.1243 -1.7966 -2.4827
  115MOL   H17236880   0.131   0.935   6.270  0.4103 -0.6810 -0.5392
  115MOL   H17336881   0.031   0.987   6.399 -0.8856 -0.5315 -2.9312
  115MOL   H17436882   0.067   0.823   6.396  0.0282  0.9535  0.3311
  115MOL   H17536883   0.150   0.950   6.669  0.6379  0.2055 -0.4613
  115MOL   H17636884   0.319   0.901   6.663  0.2711 -1.1396  0.2145
  115MOL   H17736885   0.192   0.790   6.622 -1.2936 -0.5278 -0.2146
  115MOL   C17836886   0.512   1.044   6.391 -0.1937  0.2747 -0.5613
  115MOL   C17936887   0.499   1.077   6.240 -0.0664  0.0545  0.4636
  115MOL   O18036888   0.579   1.189   6.208 -0.0244 -0.1793 -0.6579
  115MOL   C18136889   0.542   1.255   6.084  0.0497 -0.1798 -0.3187
  115MOL   C18236890   0.629   1.374   6.056  0.1501  0.1922  1.1838
  115MOL   C18336891   0.391   1.291   6.067  0.1606 -0.3184  0.4024
  115MOL   H18436892   0.509   0.936   6.407  2.0432  0.1921 -0.5239
  115MOL   H18536893   0.612   1.076   6.420 -0.1174 -0.5521  0.1046
  115MOL   H18636894   0.397   1.111   6.227 -0.7972 -1.6265  1.5897
  115MOL   H18736895   0.563   1.171   6.018  0.4747 -0.2399 -0.1074
  115MOL   H18836896   0.605   1.426   5.964  0.5065 -0.1693  0.8882
  115MOL   H18936897   0.731   1.337   6.052 -0.3207 -0.9810 -0.2751
  115MOL   H19036898   0.622   1.446   6.138  0.6700  0.0422  1.3616
  115MOL   H19136899   0.340   1.198   6.043 -0.3105  0.2214 -0.7336
  115MOL   H19236900   0.377   1.354   5.979  1.4408 -0.2870  0.2187
  115MOL   H19336901   0.342   1.351   6.144 -2.5421 -0.4160 -1.1936
  115MOL   C19436902   0.532   0.954   6.148 -0.8460  0.6232 -0.3737
  115MOL   C19536903   0.677   0.904   6.145 -1.0097 -0.2461  1.0344
  115MOL   O19636904   0.761   0.999   6.076 -0.1807  0.0590 -0.0760
  115MOL   C19736905   0.898   1.012   6.117  0.3483  0.6605 -0.0282
  115MOL   C19836906   0.974   1.065   5.998  0.0312  0.2046 -0.0136
  115MOL   C19936907   0.899   1.099   6.239 -1.4645  0.1266 -0.4237
  115MOL   H20036908   0.475   0.875   6.196 -0.4234  0.3872 -0.2613
  115MOL   H20136909   0.490   0.971   6.049  0.0049  3.3766 -0.2987
  115MOL   H20236910   0.707   0.887   6.249  1.8832 -0.9084  0.1488
  115MOL   H20336911   0.938   0.916   6.149 -1.7162  0.0412  0.7631
  115MOL   H20436912   0.936   1.163   5.967 -1.4728  0.1017  1.4604
  115MOL   H20536913   1.078   1.077   6.029  0.5450 -1.5392 -1.0348
  115MOL   H20636914   0.974   0.998   5.912 -0.3029  2.5484 -1.9156
  115MOL   H20736915   0.848   1.054   6.324  0.5859 -0.5746  0.4902
  115MOL   H20836916   1.004   1.114   6.265 -0.6162 -1.3200 -2.8392
  115MOL   H20936917   0.849   1.192   6.216 -0.7141  0.8562  0.8333
  115MOL   C21036918   0.694   0.774   6.076  0.1177 -0.6325 -0.4361
  115MOL   C21136919   0.630   0.648   6.146 -0.3447 -0.6172 -0.5860
  115MOL   O21236920   0.697   0.532   6.096  0.2393  0.0099  0.5778
  115MOL   C21336921   0.642   0.456   5.994  0.8682 -0.4680 -0.1537
  115MOL   C21436922   0.698   0.493   5.856 -0.4874  0.1839  0.5845
  115MOL   C21536923   0.669   0.309   6.031  0.3190  0.1319 -0.1427
  115MOL   H21636924   0.801   0.753   6.073  0.1014 -1.0707  1.3794
  115MOL   H21736925   0.662   0.781   5.972 -1.6543 -0.0482  0.1440
  115MOL   H21836926   0.523   0.646   6.126 -0.7843  0.3881  1.5238
  115MOL   H21936927   0.535   0.477   5.989  0.6803 -1.6579 -1.6582
  115MOL   H22036928   0.793   0.440   5.842  0.2629  1.5224  0.5203
  115MOL   H22136929   0.718   0.600   5.854  1.3698 -0.1697 -0.6300
  115MOL   H22236930   0.633   0.453   5.778  0.1428 -1.8322  1.0442
  115MOL   H22336931   0.633   0.291   6.133 -0.2486  2.5035  0.0968
  115MOL   H22436932   0.777   0.301   6.045 -0.1388 -1.7937  2.9165
  115MOL   H22536933   0.651   0.225   5.964 -0.3749 -0.9474  1.3516
  115MOL   C22636934   0.640   0.635   6.303 -0.2538 -0.0813  0.9352
  115MOL   C22736935   0.570   0.518   6.373  0.2140 -0.1519  0.7257
  115MOL   O22836936   0.426   0.538   6.375  0.4888  0.1111 -0.3501
  115MOL   C22936937   0.349   0.419   6.351 -0.0222 -0.3651 -0.8469
  115MOL   C23036938   0.347   0.377   6.202 -0.1049  0.1372 -0.8153
  115MOL   C23136939   0.208   0.454   6.399 -0.2852 -0.0597  0.8509
  115MOL   H23236940   0.617   0.735   6.341  2.1798 -0.0290  2.3796
  115MOL   H23336941   0.747   0.635   6.322  0.4129 -0.2299 -2.5137
  115MOL   H23436942   0.599   0.424   6.327 -2.1415 -0.3696 -0.4160
  115MOL   H23536943   0.383   0.341   6.418  1.0641  1.1422  0.4115
  115MOL   H23636944   0.433   0.313   6.183  0.0662  1.0052 -3.0123
  115MOL   H23736945   0.257   0.316   6.193 -0.5926  0.7051  0.0677
  115MOL   H23836946   0.341   0.464   6.137 -1.0055  1.6208  1.2013
  115MOL   H23936947   0.161   0.539   6.349  1.0718  0.0861 -0.2027
  115MOL   H24036948   0.211   0.486   6.503  1.2181 -1.5979  1.3113
  115MOL   H24136949   0.148   0.362   6.392  1.4262 -1.0914 -0.8090
  115MOL   C24236950   0.603   0.502   6.518  0.4231 -0.8183 -0.7034
  115MOL   C24336951   0.748   0.484   6.563  0.5576 -0.2843  0.1432
  115MOL   O24436952   0.811   0.390   6.474 -0.2832 -0.2359  1.0559
  115MOL   C24536953   0.947   0.413   6.440  0.3745 -0.7137 -0.3055
  115MOL   C24636954   1.046   0.340   6.529  0.4993  0.2486  0.2617
  115MOL   C24736955   0.947   0.361   6.301  0.3082  0.1935 -0.0040
  115MOL   H24836956   0.566   0.592   6.567  0.8069 -0.2727 -1.4134
  115MOL   H24936957   0.542   0.422   6.559  0.4465 -1.1557 -1.3230
  115MOL   H25036958   0.800   0.579   6.565 -1.6102  0.9471 -0.1696
  115MOL   H25136959   0.965   0.520   6.426 -0.0343 -0.4429  1.1561
  115MOL   H25236960   1.008   0.239   6.548 -1.2144  0.6328 -1.0434
  115MOL   H25336961   1.140   0.327   6.475  0.3596 -0.6372  0.2236
  115MOL   H25436962   1.072   0.389   6.623  0.1086  0.4615  0.2597
  115MOL   H25536963   0.927   0.254   6.303 -1.5970  0.5583  1.4635
  115MOL   H25636964   0.866   0.394   6.236  0.7844 -1.0764 -1.2744
  115MOL   H25736965   1.047   0.376   6.261  0.2347  3.1108  0.8351
  115MOL   C25836966   0.759   0.424   6.706  0.6292 -0.0964 -0.4402
  115MOL   C25936967   0.690   0.500   6.819 -0.1631  0.2099 -0.7798
  115MOL   O26036968   0.771   0.620   6.830 -0.3496  0.4745  0.1719
  115MOL   C26136969   0.707   0.736   6.888  0.4709  0.8619  0.1497
  115MOL   C26236970   0.818   0.817   6.953  0.1833 -0.0016 -0.6673
  115MOL   C26336971   0.650   0.810   6.772  0.8576  0.0965  0.6559
  115MOL   H26436972   0.720   0.323   6.706  0.1200  0.0927  0.5027
  115MOL   H26536973   0.858   0.396   6.742  0.8978  0.9613 -0.3364
  115MOL   H26636974   0.590   0.523   6.782 -0.7478 -0.3944  0.4356
  115MOL   H26736975   0.632   0.705   6.961 -1.4681  0.8738 -1.7984
  115MOL   H26836976   0.884   0.848   6.871  0.8783  0.1136 -0.0685
  115MOL   H26936977   0.875   0.749   7.016  1.4464  1.3927 -0.2833
  115MOL   H27036978   0.779   0.898   7.015 -0.4500 -0.2414 -0.7553
  115MOL   H27136979   0.563   0.755   6.737  2.6549 -1.7125 -1.1396
  115MOL   H27236980   0.611   0.907   6.805 -1.6172 -0.5029 -0.3786
  115MOL   H27336981   0.708   0.805   6.680 -0.0644 -0.0191  0.0735
  115MOL   C27436982   0.693   0.435   6.959  0.2645 -0.7679  0.1044
  115MOL   C27536983   0.594   0.314   6.973 -0.6253 -0.1132 -0.0551
  115MOL   O27636984   0.604   0.253   7.102  0.3920 -0.2710 -0.1839
  115MOL   C27736985   0.707   0.161   7.117  0.0023  0.5653  0.3224
  115MOL   C27836986   0.674   0.020   7.064  0.3622 -0.0834 -1.2861
  115MOL   C27936987   0.731   0.173   7.271 -0.3625  0.2659 -0.2537
  115MOL   H28036988   0.796   0.420   6.991  0.3782 -1.4608 -0.5860
  115MOL   H28136989   0.655   0.507   7.031 -0.6726  0.8819 -2.0132
  115MOL   H28236990   0.613   0.232   6.904 -0.8043 -0.8592  0.7598
  115MOL   H28336991   0.800   0.184   7.064  0.3509  1.4990  1.3303
  115MOL   H28436992   0.589   7.802   7.120  0.6632  1.3805  0.2041
  115MOL   H28536993   0.641   0.015   6.960 -1.5759 -1.6621 -0.6359
  115MOL   H28636994   0.759   7.775   7.084 -2.6468 -3.3156  1.7163
  115MOL   H28736995   0.753   0.277   7.296  1.7840 -0.2107 -0.0744
  115MOL   H28836996   0.820   0.118   7.300  0.5904  1.7305 -0.3527
  115MOL   H28936997   0.642   0.140   7.324 -1.6089  1.4735 -1.5663
  115MOL   C29036998   0.441   0.350   6.969  0.2949  0.1470  0.0880
  115MOL   C29136999   0.350   0.233   6.925 -0.3007 -0.6392 -0.2975
  115MOL   O29237000   0.215   0.244   6.966 -0.2250  0.2771  0.3226
  115MOL   C29337001   0.196   0.215   7.110  0.5979 -0.5115  1.0900
  115MOL   C29437002   0.181   0.063   7.144 -0.1219  0.2452 -0.1573
  115MOL   C29537003   0.065   0.291   7.124 -0.1719  0.2074  0.2118
  115MOL   H29637004   0.436   0.434   6.900  1.4358  0.0752 -0.0971
  115MOL   H29737005   0.407   0.377   7.069  0.6180  0.1450  0.1996
  115MOL   H29837006   0.391   0.141   6.967  0.0540 -0.4728 -0.2868
  115MOL   H29937007   0.272   0.265   7.170 -0.3940 -0.5080  2.3901
  115MOL   H30037008   0.277   0.017   7.123  0.8918  1.2620  2.1474
  115MOL   H30137009   0.149   0.053   7.248  0.1013  3.0208  0.2295
  115MOL   H30237010   0.106   0.013   7.082 -0.9641  1.2670  0.0097
  115MOL   H30337011   0.085   0.391   7.086  1.7859  0.0980  0.9000
  115MOL   H30437012   7.802   0.247   7.070  0.2687 -1.0592  0.5366
  115MOL   H30537013   0.032   0.274   7.226 -0.1908  2.1589  0.5364
  115MOL   C30637014   0.350   0.209   6.769  0.1217  0.8645 -0.1801
  115MOL   C30737015   0.270   0.078   6.731 -0.5073 -0.7331  0.9222
  115MOL   O30837016   0.256   0.076   6.584 -0.3189 -0.2508 -0.0284
  115MOL   C30937017   0.150   7.813   6.528  0.3893 -0.1509  1.2266
  115MOL   C31037018   0.012   0.062   6.533 -0.2086  0.5961  0.0881
  115MOL   C31137019   0.195   7.763   6.390 -0.4328 -0.4147  0.1600
  115MOL   H31237020   0.450   0.197   6.729  0.2933  2.0421 -0.1305
  115MOL   H31337021   0.310   0.304   6.734  0.5036  1.0355 -0.1468
  115MOL   H31437022   0.309   7.808   6.777 -0.9172 -0.3096  2.1203
  115MOL   H31537023   0.147   7.717   6.581 -0.4148  0.0634  1.5707
  115MOL   H31637024   7.751   7.810   6.527  1.1790 -1.2758  3.1224
  115MOL   H31737025   0.002   0.131   6.449 -1.2940  1.1118  0.6226
  115MOL   H31837026   7.809   0.120   6.623 -3.5421  0.4826 -0.6386
  115MOL   H31937027   0.224   0.026   6.325 -4.2183  1.2235  0.4477
  115MOL   H32037028   0.113   7.722   6.332  1.3233 -0.0455 -2.6897
  115MOL   H32137029   0.274   7.689   6.402  1.1162  0.9500 -1.3668
  115MOL   H32237030   0.169   0.088   6.770 -1.2612 -1.6135 -0.7524
  116MOL     C137031   1.056   0.463   5.105  0.2293 -0.4434 -0.7497
  116MOL     C237032   1.108   0.327   5.126 -0.2963  0.4117  0.1442
  116MOL     O337033   1.242   0.340   5.159 -0.0554  0.4432  0.1462
  116MOL     C437034   1.323   0.223   5.152  0.1508 -0.6834 -0.2751
  116MOL     C537035   1.359   0.161   5.287  0.1082  0.1982 -0.2790
  116MOL     C637036   1.439   0.258   5.072 -0.0689 -0.1515 -0.2372
  116MOL     H737037   0.962   0.470   5.052  0.0242 -0.8382 -0.4447
  116MOL     H837038   1.054   0.522   5.196 -1.1698  0.0065 -1.0634
  116MOL     H937039   1.095   0.264   5.038 -4.7260 -0.1021  1.0829
  116MOL    H1037040   1.278   0.142   5.095  2.2005 -1.7016 -0.4653
  116MOL    H1137041   1.409   0.228   5.357  2.3626 -1.8051  0.0854
  116MOL    H1237042   1.269   0.120   5.334 -1.3058  1.4588 -1.8145
  116MOL    H1337043   1.434   0.082   5.277  0.0309  0.0443  0.3536
  116MOL    H1437044   1.494   0.167   5.049  0.6031 -0.4994  2.5869
  116MOL    H1537045   1.401   0.304   4.981  0.8552  0.8062 -0.1545
  116MOL    H1637046   1.504   0.327   5.125 -1.3812  1.8452 -1.1617
  116MOL    H1737047   1.128   0.507   5.036 -0.1245  4.3272  1.7518
  116MOL    C1837048   1.024   0.264   5.235 -0.6456  0.0720  0.4579
  116MOL    C1937049   0.870   0.253   5.229 -0.1987 -0.6783 -0.3099
  116MOL    O2037050   0.804   0.199   5.344 -0.3289  0.2016 -0.3936
  116MOL    C2137051   0.827   0.269   5.470 -0.2589  0.6890 -0.1054
  116MOL    C2237052   0.756   0.195   5.583 -0.4114 -0.1996 -0.3476
  116MOL    C2337053   0.790   0.415   5.483 -0.5218 -0.4737 -0.2911
  116MOL    H2437054   1.055   0.164   5.264 -0.6384  0.3625  1.4834
  116MOL    H2537055   1.043   0.329   5.321  1.4153  1.8748 -1.2825
  116MOL    H2637056   0.842   0.357   5.211 -0.3126 -1.0834 -2.6277
  116MOL    H2737057   0.928   0.261   5.510 -0.3114  1.9345  0.2860
  116MOL    H2837058   0.804   0.103   5.616 -0.0384 -0.6123 -2.0084
  116MOL    H2937059   0.755   0.254   5.675  3.2687  0.4697 -0.6703
  116MOL    H3037060   0.656   0.162   5.555 -0.7801 -0.3701  1.1188
  116MOL    H3137061   0.684   0.431   5.465 -0.6712  1.2725  1.8964
  116MOL    H3237062   0.842   0.485   5.416  0.9136 -2.2002 -1.0290
  116MOL    H3337063   0.804   0.448   5.586 -2.5329 -1.1173  0.2024
  116MOL    C3437064   0.816   0.162   5.126  0.6567  0.3551 -0.8181
  116MOL    C3537065   0.667   0.177   5.106  0.4934 -0.8081  1.0098
  116MOL    O3637066   0.635   0.298   5.035 -0.5056 -1.1023  0.2816
  116MOL    C3737067   0.508   0.354   5.055  0.1300 -0.2547 -0.5258
  116MOL    C3837068   0.510   0.436   5.182 -0.5153 -0.0461 -0.2203
  116MOL    C3937069   0.481   0.452   4.939 -0.0724 -0.3355 -0.2590
  116MOL    H4037070   0.831   0.057   5.151  0.6926  0.6052  0.2097
  116MOL    H4137071   0.876   0.176   5.036  2.2977 -0.2924  0.1484
  116MOL    H4237072   0.608   0.182   5.198 -0.2225 -2.2806  0.6367
  116MOL    H4337073   0.430   0.279   5.052  1.1501 -1.3412 -0.0951
  116MOL    H4437074   0.582   0.517   5.170 -0.7411 -0.3447 -4.1814
  116MOL    H4537075   0.534   0.377   5.271 -0.2449 -2.3594 -1.7694
  116MOL    H4637076   0.426   0.501   5.202  0.6523  1.2594  0.5219
  116MOL    H4737077   0.458   0.391   4.851  0.5670  1.1835 -1.4991
  116MOL    H4837078   0.392   0.509   4.965 -0.6091 -0.6834 -1.2759
  116MOL    H4937079   0.562   0.519   4.910 -0.0797 -0.5008 -0.6676
  116MOL    C5037080   0.621   0.056   5.016  0.3278  0.5365 -0.2117
  116MOL    C5137081   0.591   7.746   5.094 -1.4907  0.0099 -0.0372
  116MOL    O5237082   0.704   7.680   5.146 -0.2611 -0.5612 -0.5141
  116MOL    C5337083   0.697   7.637   5.280  0.1294  0.1544 -0.3237
  116MOL    C5437084   0.683   7.744   5.387 -0.4203 -0.6664  1.1130
  116MOL    C5537085   0.829   7.556   5.295  0.3248 -0.3120  0.1972
  116MOL    H5637086   0.524   0.076   4.970  0.0317  0.5509  0.4212
  116MOL    H5737087   0.694   0.048   4.935 -0.4429  0.7605 -0.9449
  116MOL    H5837088   0.520   7.769   5.174  0.1322  3.5880  0.4523
  116MOL    H5937089   0.604   7.580   5.285  0.2137  0.1343  1.3201
  116MOL    H6037090   0.776   7.798   5.409 -2.2982  3.3767 -0.4608
  116MOL    H6137091   0.655   7.698   5.482  2.8221  1.1689  3.0515
  116MOL    H6237092   0.614   0.002   5.355 -0.6806 -0.9155  1.0627
  116MOL    H6337093   0.816   7.460   5.246  1.0407  0.0584 -0.7195
  116MOL    H6437094   0.846   7.524   5.397  1.8571 -0.9716 -0.2597
  116MOL    H6537095   0.919   7.611   5.268  1.1236 -1.3250  0.7813
  116MOL    C6637096   0.523   7.646   5.000  0.1275 -0.2211  0.3803
  116MOL    C6737097   0.374   7.676   4.952  0.3059  0.2759  0.4542
  116MOL    O6837098   0.380   7.773   4.845  0.2200 -0.1760 -0.4792
  116MOL    C6937099   0.256   0.003   4.793  0.2241  0.0199 -0.3981
  116MOL    C7037100   0.306   0.102   4.683 -0.2417 -0.6574 -0.1642
  116MOL    C7137101   0.146   7.718   4.747  0.6406  0.4875  0.4339
  116MOL    H7237102   0.586   7.640   4.911 -0.7090 -2.1080 -0.1149
  116MOL    H7337103   0.526   7.546   5.043 -1.4461  0.1372  1.3721
  116MOL    H7437104   0.334   7.586   4.906 -0.1324 -0.0304  1.4240
  116MOL    H7537105   0.213   0.066   4.871  0.1814 -0.4705 -0.0255
  116MOL    H7637106   0.368   0.055   4.606  0.2994 -2.0884  1.1012
  116MOL    H7737107   0.228   0.152   4.627  0.3503  0.8037  0.3000
  116MOL    H7837108   0.368   0.184   4.718 -2.3965 -0.0926  2.5454
  116MOL    H7937109   0.193   7.644   4.682 -1.9650  0.1363 -1.1479
  116MOL    H8037110   0.067   7.772   4.694  0.5972  0.8211  0.8393
  116MOL    H8137111   0.106   7.660   4.830 -1.3729 -0.1278 -0.9170
  116MOL    C8237112   0.279   7.729   5.072 -0.8800 -0.4984  0.2219
  116MOL    C8337113   0.247   7.628   5.186 -0.2179  0.0251  0.1705
  116MOL    O8437114   0.171   7.690   5.298 -0.0610  0.0094 -0.5300
  116MOL    C8537115   0.234   7.779   5.391  0.4628 -0.6332  0.3519
  116MOL    C8637116   0.330   7.712   5.487 -0.1295 -1.2211 -0.2118
  116MOL    C8737117   0.112   0.036   5.456  0.3177  0.3680 -0.2987
  116MOL    H8837118   0.317   0.000   5.119 -1.4828 -0.0089 -0.2342
  116MOL    H8937119   0.178   7.755   5.038 -0.0818 -0.2211 -2.0141
  116MOL    H9037120   0.338   7.590   5.233 -0.2951 -0.6947 -0.2592
  116MOL    H9137121   0.292   0.041   5.349 -1.3366  1.2115  1.4406
  116MOL    H9237122   0.357   7.792   5.556 -3.5468  0.2424 -0.5071
  116MOL    H9337123   0.278   7.634   5.544 -2.3416  0.0753 -0.4241
  116MOL    H9437124   0.409   7.672   5.423  0.1571 -0.0497 -0.5900
  116MOL    H9537125   0.050   0.106   5.399 -0.3853 -0.3789 -0.4485
  116MOL    H9637126   0.040   7.789   5.501 -0.4105  0.6432 -1.0361
  116MOL    H9737127   0.149   0.099   5.537 -0.0792  1.2238 -0.7744
  116MOL    C9837128   0.169   7.507   5.133  0.7843  0.9987 -0.3296
  116MOL    C9937129   0.112   7.408   5.239 -0.0347 -0.0812  0.4783
  116MOL   O10037130   0.233   7.356   5.294 -0.2134  0.2021  0.3635
  116MOL   C10137131   0.244   7.367   5.440  0.9353 -0.0357 -0.0605
  116MOL   C10237132   0.388   7.343   5.490 -0.6308  0.1010 -0.1357
  116MOL   C10337133   0.153   7.258   5.502  0.5201 -0.1954 -0.2020
  116MOL   H10437134   0.083   7.548   5.080 -0.3130  0.1967  0.8002
  116MOL   H10537135   0.224   7.451   5.057 -0.3312  1.4698 -1.5149
  116MOL   H10637136   0.041   7.459   5.304 -0.2705  0.4677 -0.1997
  116MOL   H10737137   0.203   7.462   5.473  0.3551  0.0040 -0.8853
  116MOL   H10837138   0.427   7.254   5.441 -2.2650 -0.9188  0.3865
  116MOL   H10937139   0.397   7.329   5.597  1.6711  0.2305 -0.2722
  116MOL   H11037140   0.454   7.425   5.460  0.7665 -0.5222  1.1832
  116MOL   H11137141   0.050   7.291   5.486  0.5629 -0.7564 -1.6953
  116MOL   H11237142   0.153   7.255   5.611  0.8038 -2.3018 -0.2306
  116MOL   H11337143   0.174   7.164   5.450  1.5007  0.5164 -1.1020
  116MOL   C11437144   0.042   7.278   5.185 -0.1576 -0.2084 -0.0794
  116MOL   C11537145   7.723   7.311   5.119 -0.6811 -0.0630  0.2588
  116MOL   O11637146   7.672   7.182   5.077 -0.8155 -0.6867  0.5206
  116MOL   C11737147   7.648   7.150   4.936  0.0104  0.0753  0.2592
  116MOL   C11837148   7.560   7.020   4.909  0.2495 -0.9885 -0.0071
  116MOL   C11937149   7.785   7.138   4.865  0.0270 -0.1715 -0.3324
  116MOL   H12037150   0.037   7.209   5.269 -2.4399 -0.0682 -0.0715
  116MOL   H12137151   0.104   7.224   5.114  0.6584  1.3694 -0.5984
  116MOL   H12237152   7.726   7.369   5.027  2.5188 -0.8644 -0.1821
  116MOL   H12337153   7.600   7.239   4.895  0.4290  0.6805  1.0688
  116MOL   H12437154   7.464   7.030   4.960  0.8215 -0.9833  1.0900
  116MOL   H12537155   7.606   6.936   4.959 -0.0551 -0.9472  0.3465
  116MOL   H12637156   7.552   6.993   4.804 -2.2062 -1.8869  0.3795
  116MOL   H12737157   0.027   7.073   4.926 -1.2740 -1.5263 -0.4358
  116MOL   H12837158   0.006   7.237   4.845  1.2663 -0.6681 -0.2850
  116MOL   H12937159   7.781   7.098   4.764 -0.7916  1.3845 -0.9292
  116MOL   C13037160   7.624   7.367   5.220  0.5870 -0.0593  0.1574
  116MOL   C13137161   7.490   7.410   5.164 -0.3942  0.1815 -0.5392
  116MOL   O13237162   7.507   7.545   5.121  0.6203  0.7984  0.2565
  116MOL   C13337163   7.428   7.586   5.007 -0.9463  0.2386 -0.5709
  116MOL   C13437164   7.359   7.718   5.049  0.6613  0.2525  0.3533
  116MOL   C13537165   7.517   7.616   4.886 -0.0245  0.0624 -0.1914
  116MOL   H13637166   7.660   7.449   5.283 -0.9456  0.9374 -0.2130
  116MOL   H13737167   7.609   7.290   5.296 -1.2364  1.2066  1.1332
  116MOL   H13837168   7.458   7.349   5.080 -1.1920 -0.9096  0.5587
  116MOL   H13937169   7.348   7.516   4.982 -1.1824 -0.3916  1.8663
  116MOL   H14037170   7.309   7.765   4.964  1.4796  1.4204  0.5085
  116MOL   H14137171   7.428   7.794   5.086 -0.6529  2.0448 -0.7879
  116MOL   H14237172   7.296   7.702   5.135 -0.1682 -0.1822 -0.3281
  116MOL   H14337173   7.582   7.703   4.896 -0.8102  1.0972 -3.3917
  116MOL   H14437174   7.573   7.527   4.859 -1.5128 -0.1537 -2.7437
  116MOL   H14537175   7.446   7.631   4.804  1.5666 -0.6090 -1.7192
  116MOL   C14637176   7.364   7.408   5.263  0.6699 -0.4245 -0.6874
  116MOL   C14737177   7.324   7.271   5.320  0.1446  0.2162 -0.6640
  116MOL   O14837178   7.209   7.292   5.403 -0.1845  0.4951 -0.0941
  116MOL   C14937179   7.238   7.273   5.545 -0.0396  0.2890  0.5166
  116MOL   C15037180   7.101   7.269   5.612  0.2247  0.5548 -0.0828
  116MOL   C15137181   7.330   7.389   5.594  0.7265 -0.2603  0.4171
  116MOL   H15237182   7.278   7.444   5.206  0.7286 -0.7823 -1.0027
  116MOL   H15337183   7.379   7.471   5.351 -0.7625  0.0709 -0.7679
  116MOL   H15437184   7.407   7.230   5.379  0.2215 -0.1310 -1.0131
  116MOL   H15537185   7.281   7.177   5.573  1.6175  1.3447  1.6384
  116MOL   H15637186   7.029   7.337   5.567 -0.5920 -0.6399 -0.6124
  116MOL   H15737187   7.101   7.283   5.720 -0.0416  0.3389 -0.0550
  116MOL   H15837188   7.057   7.172   5.587  0.3794  0.3702  0.3588
  116MOL   H15937189   7.297   7.487   5.558  1.3473  0.4770  1.8385
  116MOL   H16037190   7.435   7.374   5.572  0.7236 -1.5846  1.2077
  116MOL   H16137191   7.310   7.387   5.701 -1.3263 -1.1940  0.0402
  116MOL   C16237192   7.295   7.163   5.208 -0.2537 -0.2914 -0.4458
  116MOL   C16337193   7.249   7.022   5.251 -0.0229  0.4952 -0.2808
  116MOL   O16437194   7.201   6.949   5.142  0.2466 -0.4840  0.0138
  116MOL   C16537195   7.063   6.968   5.109 -0.2996  0.0291 -0.0137
  116MOL   C16637196   6.952   6.961   5.218 -0.0099  0.0323  0.6210
  116MOL   C16737197   7.028   6.870   4.997 -0.2383 -0.3007 -0.5049
  116MOL   H16837198   7.215   7.203   5.145 -0.1337 -1.5399 -1.4130
  116MOL   H16937199   7.386   7.166   5.148 -0.6630  1.4644 -0.9922
  116MOL   H17037200   7.172   7.046   5.325  0.8129  0.1809  0.7013
  116MOL   H17137201   7.047   7.064   5.059 -2.0548 -0.7481 -0.9957
  116MOL   H17237202   6.957   6.866   5.273 -0.6212  0.6074  1.7028
  116MOL   H17337203   6.850   6.962   5.179 -0.7269 -3.8758  2.0875
  116MOL   H17437204   6.941   7.045   5.287 -0.1753  0.0434  0.5819
  116MOL   H17537205   7.095   6.884   4.912  0.5953 -0.1286  0.1717
  116MOL   H17637206   6.922   6.880   4.974 -0.4562 -1.7532 -0.1348
  116MOL   H17737207   7.036   6.767   5.029  1.1694 -0.1917 -0.4707
  116MOL   C17837208   7.368   6.934   5.310 -0.1082 -0.4314  0.5364
  116MOL   C17937209   7.328   6.834   5.415  0.4622  0.1185 -0.1765
  116MOL   O18037210   7.448   6.764   5.448  0.5315 -0.6658 -0.2538
  116MOL   C18137211   7.461   6.626   5.416  0.1292  0.2490  0.2269
  116MOL   C18237212   7.591   6.573   5.483  0.0934 -0.1088 -0.2032
  116MOL   C18337213   7.459   6.598   5.260  0.3454  0.3938  0.0383
  116MOL   H18437214   7.443   7.002   5.352  0.6214 -1.4795  0.9414
  116MOL   H18537215   7.410   6.876   5.228 -2.2342 -0.3397 -0.6405
  116MOL   H18637216   7.250   6.768   5.376  1.5688  0.2135 -2.6534
  116MOL   H18737217   7.383   6.581   5.476  0.0069  1.2526  0.8436
  116MOL   H18837218   7.589   6.608   5.587 -1.8723 -0.8333  0.0353
  116MOL   H18937219   7.681   6.610   5.435 -0.8854 -0.1199 -2.0895
  116MOL   H19037220   7.607   6.465   5.483  1.7823  0.1306 -1.2753
  116MOL   H19137221   7.379   6.652   5.209 -1.5979 -2.2444  0.1653
  116MOL   H19237222   7.450   6.493   5.230 -1.0944  1.2229 -2.6205
  116MOL   H19337223   7.555   6.635   5.226  1.5991 -2.7871 -0.0657
  116MOL   C19437224   7.286   6.894   5.543  0.4763 -0.1399 -0.9186
  116MOL   C19537225   7.230   6.794   5.647  0.9480 -0.1217  0.3934
  116MOL   O19637226   7.102   6.751   5.604  0.1154 -0.0667  0.3961
  116MOL   C19737227   7.077   6.610   5.574 -0.2256  0.1369 -0.2177
  116MOL   C19837228   7.061   6.539   5.710  0.7367  0.3224 -0.6586
  116MOL   C19937229   6.945   6.620   5.489 -0.5496 -0.1143 -0.0693
  116MOL   H20037230   7.364   6.954   5.589 -1.4541  0.0967  2.1985
  116MOL   H20137231   7.201   6.958   5.520  0.7389  0.3932 -0.4156
  116MOL   H20237232   7.296   6.708   5.652  0.5080 -0.6171 -1.6298
  116MOL   H20337233   7.149   6.560   5.510 -0.9072 -1.2141  0.0565
  116MOL   H20437234   6.981   6.573   5.775  1.4519 -1.4387  1.2206
  116MOL   H20537235   7.054   6.430   5.708  1.2662  0.2736 -0.1705
  116MOL   H20637236   7.148   6.557   5.774  0.0645  0.6447  0.1770
  116MOL   H20737237   6.872   6.674   5.549  1.0335 -0.1587  1.9606
  116MOL   H20837238   6.961   6.671   5.395  1.7010 -0.4118  0.1237
  116MOL   H20937239   6.901   6.522   5.469 -1.9351  0.9111 -2.0962
  116MOL   C21037240   7.224   6.858   5.780  0.1958 -0.4865 -0.1568
  116MOL   C21137241   7.360   6.860   5.859  0.1435 -0.2679 -0.1671
  116MOL   O21237242   7.398   6.975   5.940 -0.0356  0.1952 -0.0288
  116MOL   C21337243   7.419   7.101   5.871  0.5088 -0.3517  0.4150
  116MOL   C21437244   7.361   7.212   5.963 -0.2011  0.5946 -0.0515
  116MOL   C21537245   7.568   7.123   5.856  0.1609  0.7968 -0.4905
  116MOL   H21637246   7.144   6.819   5.843  1.6719  0.3243  2.2559
  116MOL   H21737247   7.194   6.961   5.763  2.2745  0.4250  1.4736
  116MOL   H21837248   7.442   6.860   5.786 -0.6720  0.5259 -1.1013
  116MOL   H21937249   7.379   7.109   5.770 -0.7909  0.5830  0.9929
  116MOL   H22037250   7.252   7.212   5.960 -0.1684 -0.0239 -2.8488
  116MOL   H22137251   7.389   7.308   5.920 -0.8787  0.6298 -0.4322
  116MOL   H22237252   7.403   7.204   6.063  3.3980 -1.5456 -1.6549
  116MOL   H22337253   7.611   7.140   5.955 -0.4819 -2.8823  0.5152
  116MOL   H22437254   7.580   7.216   5.802 -2.2331  0.9431 -0.8213
  116MOL   H22537255   7.606   7.035   5.804  0.7266 -0.6313  2.2367
  116MOL   C22637256   7.383   6.728   5.940  0.1725  0.7397  0.0817
  116MOL   C22737257   7.524   6.695   5.981  0.1111 -0.4677  0.6434
  116MOL   O22837258   7.597   6.684   5.861 -0.1310  0.2032  0.0207
  116MOL   C22937259   7.721   6.750   5.856 -0.5085  0.0246  0.3995
  116MOL   C23037260   7.770   6.757   5.709  0.0627 -0.5270  0.8502
  116MOL   C23137261   0.008   6.684   5.945 -0.3630  0.1550 -0.0920
  116MOL   H23237262   7.348   6.647   5.876  1.4423  0.1232  0.1496
  116MOL   H23337263   7.307   6.736   6.018 -0.0197  0.3409 -0.0563
  116MOL   H23437264   7.574   6.771   6.042  0.9311 -1.5940  1.3845
  116MOL   H23537265   7.707   6.851   5.895  0.8835  0.4964 -0.2682
  116MOL   H23637266   7.686   6.801   5.656  2.2511  0.5931 -1.8320
  116MOL   H23737267   0.037   6.822   5.710 -0.4471  0.1637  2.2590
  116MOL   H23837268   7.803   6.661   5.669  1.0787  0.8611 -1.8000
  116MOL   H23937269   0.044   6.584   5.920 -0.6540  0.2558 -0.9105
  116MOL   H24037270   7.819   6.695   6.053 -0.4094  0.0768 -0.0888
  116MOL   H24137271   0.097   6.745   5.925  0.0178 -0.4371 -0.2267
  116MOL   C24237272   7.535   6.567   6.062  0.2708  0.2709  0.2734
  116MOL   C24337273   7.495   6.595   6.209  0.2189  0.7705 -0.0354
  116MOL   O24437274   7.598   6.677   6.270 -0.2251  0.5618  0.1989
  116MOL   C24537275   7.541   6.769   6.370  0.2357  0.0086  0.2126
  116MOL   C24637276   7.625   6.752   6.502  0.3313 -0.3127 -0.3418
  116MOL   C24737277   7.535   6.912   6.313 -0.0913 -0.6114 -0.4241
  116MOL   H24837278   7.467   6.494   6.017  2.3506  0.0621 -2.7289
  116MOL   H24937279   7.632   6.518   6.066 -0.3129 -0.9173  0.1714
  116MOL   H25037280   7.395   6.639   6.215 -0.1899 -0.2752  1.0616
  116MOL   H25137281   7.436   6.745   6.384 -0.5663  0.9517 -3.6154
  116MOL   H25237282   7.555   6.768   6.584 -0.7143 -0.0968 -1.2533
  116MOL   H25337283   7.678   6.660   6.524 -1.3291 -0.9254  1.2218
  116MOL   H25437284   7.705   6.822   6.526  0.2833 -0.3238 -0.1517
  116MOL   H25537285   7.492   6.984   6.383 -0.5791 -1.3614  0.0518
  116MOL   H25637286   7.632   6.961   6.305  0.1332 -0.8095  0.9507
  116MOL   H25737287   7.491   6.920   6.214  0.3250  0.4150 -0.5326
  116MOL   C25837288   7.486   6.460   6.285  0.6940  0.2156  0.5097
  116MOL   C25937289   7.370   6.360   6.237 -0.0518 -0.9309 -0.5665
  116MOL   O26037290   7.250   6.439   6.269  0.2130  0.0546 -0.4168
  116MOL   C26137291   7.169   6.478   6.158  0.5991  0.2393  0.5825
  116MOL   C26237292   7.091   6.352   6.104 -0.0361  0.0006 -0.5105
  116MOL   C26337293   7.072   6.589   6.205  0.1090 -0.3070  0.1250
  116MOL   H26437294   7.581   6.408   6.278 -0.3984 -2.5361  4.3392
  116MOL   H26537295   7.469   6.483   6.391  1.1606  2.4809  0.1169
  116MOL   H26637296   7.369   6.350   6.128 -1.2830 -0.4724 -0.6041
  116MOL   H26737297   7.223   6.529   6.079 -1.4147 -0.0384 -1.0399
  116MOL   H26837298   7.001   6.372   6.046 -0.2928 -0.7067 -0.3680
  116MOL   H26937299   7.055   6.285   6.182 -1.9323  0.6522 -0.7955
  116MOL   H27037300   7.161   6.290   6.049  1.4932  1.3452 -0.0969
  116MOL   H27137301   7.004   6.605   6.122  0.4917  0.5683 -0.0309
  116MOL   H27237302   7.015   6.547   6.288  0.7292 -1.7315 -0.1496
  116MOL   H27337303   7.124   6.674   6.249  0.6739 -1.1146  1.0264
  116MOL   C27437304   7.375   6.220   6.309 -0.7353  0.3964 -0.0926
  116MOL   C27537305   7.290   6.100   6.254  0.6315 -0.1845  0.4721
  116MOL   O27637306   7.354   6.058   6.135  0.2252  0.4195 -0.0129
  116MOL   C27737307   7.287   5.978   6.040 -0.2393 -0.0997  0.8061
  116MOL   C27837308   7.385   5.864   6.003 -0.3156  0.5597 -0.3769
  116MOL   C27937309   7.260   6.069   5.916  0.1487 -0.6509 -0.3216
  116MOL   H28037310   7.472   6.170   6.309  0.0913  1.9839  0.5667
  116MOL   H28137311   7.356   6.232   6.416  1.6975 -0.6857  0.4924
  116MOL   H28237312   7.189   6.138   6.237  1.3720  1.0165 -1.4273
  116MOL   H28337313   7.195   5.939   6.083 -0.2363 -1.6233 -0.5280
  116MOL   H28437314   7.482   5.903   5.971  0.3033  0.6986  1.5795
  116MOL   H28537315   7.409   5.800   6.088  1.3920  1.8533  0.1553
  116MOL   H28637316   7.364   5.801   5.916  1.5065 -2.4997  1.3018
  116MOL   H28737317   7.335   6.149   5.912 -0.8553  0.3125 -0.2496
  116MOL   H28837318   7.160   6.110   5.930  0.0062 -0.5522 -1.5239
  116MOL   H28937319   7.263   6.019   5.819 -2.7864 -0.5681 -0.5046
  116MOL   C29037320   7.281   5.982   6.357 -0.5228 -0.6193  0.0922
  116MOL   C29137321   7.195   6.011   6.483  1.0234  0.0375  0.4403
  116MOL   O29237322   7.063   6.009   6.432  0.3755  0.4629 -0.1813
  116MOL   C29337323   6.964   6.070   6.519 -0.1058 -0.0878  0.0601
  116MOL   C29437324   6.834   6.017   6.470  0.1022  0.6848  0.6222
  116MOL   C29537325   6.975   6.226   6.511  0.3288  0.1673  0.3675
  116MOL   H29637326   7.382   5.963   6.394 -0.4362  0.7976  0.6034
  116MOL   H29737327   7.263   5.890   6.301 -0.6107 -0.4821 -0.1064
  116MOL   H29837328   7.207   6.111   6.525  0.1720  0.2412  0.2117
  116MOL   H29937329   6.979   6.037   6.622 -2.6990  0.3016  0.5984
  116MOL   H30037330   6.831   5.908   6.457  0.7206  0.8942 -1.3963
  116MOL   H30137331   6.754   6.028   6.544  0.9384  3.2260  1.1965
  116MOL   H30237332   6.805   6.054   6.372 -1.1143 -0.8092  0.3857
  116MOL   H30337333   6.987   6.253   6.406 -0.1393 -0.1066  0.2426
  116MOL   H30437334   6.880   6.267   6.545  1.1456  2.7810 -0.4300
  116MOL   H30537335   7.056   6.258   6.577 -1.0122  3.2312  0.5777
  116MOL   C30637336   7.217   5.891   6.577 -0.0022  1.0654 -0.0146
  116MOL   C30737337   7.323   5.916   6.676  0.1644  0.1282  0.0258
  116MOL   O30837338   7.269   6.017   6.762 -0.3538 -0.3974 -0.0007
  116MOL   C30937339   7.325   6.010   6.890 -0.3130 -0.4917  0.6191
  116MOL   C31037340   7.478   6.054   6.885  0.3361 -0.2802  0.2638
  116MOL   C31137341   7.239   6.110   6.975  0.2983 -0.1891  0.1426
  116MOL   H31237342   7.235   5.802   6.517 -0.9392  0.4658  0.6009
  116MOL   H31337343   7.121   5.869   6.623  0.2723  1.4780  0.7666
  116MOL   H31437344   7.331   5.817   6.721 -2.1509 -0.2214 -0.3102
  116MOL   H31537345   7.325   5.908   6.928 -0.2151 -0.2558  1.2692
  116MOL   H31637346   7.538   5.974   6.839  0.9394  1.8795 -2.8803
  116MOL   H31737347   7.524   6.073   6.982 -0.4839  0.6236  0.4812
  116MOL   H31837348   7.492   6.150   6.837  0.3919  0.5338  1.8780
  116MOL   H31937349   7.243   6.211   6.935 -1.2593 -0.7465 -1.5201
  116MOL   H32037350   7.268   6.104   7.080  0.1448  0.4611  0.2222
  116MOL   H32137351   7.134   6.080   6.984 -0.0474  1.1444  0.7478
  116MOL   H32237352   7.422   5.941   6.637 -0.4626 -0.1654 -1.8326
  117MOL     C137353   4.481   2.946   1.759  0.2503  1.0828 -0.6120
  117MOL     C237354   4.477   3.088   1.811  0.0642  0.3214 -0.0214
  117MOL     O337355   4.561   3.159   1.723  0.2774  0.7788  0.0313
  117MOL     C437356   4.644   3.255   1.784  0.1885 -0.0137 -0.2770
  117MOL     C537357   4.673   3.342   1.658 -0.6521 -0.2772 -0.8616
  117MOL     C637358   4.764   3.187   1.848 -0.1836  0.3041 -0.3360
  117MOL     H737359   4.452   2.874   1.836  1.4864  0.5812 -0.6040
  117MOL     H837360   4.436   2.933   1.661 -1.9497 -0.8029  0.6046
  117MOL     H937361   4.511   3.102   1.914 -1.1120 -1.4865  0.6287
  117MOL    H1037362   4.587   3.317   1.854 -2.5691  0.6704 -3.0173
  117MOL    H1137363   4.578   3.372   1.613 -0.2726  1.8812 -0.2938
  117MOL    H1237364   4.709   3.433   1.705 -2.3417  1.2245 -2.3866
  117MOL    H1337365   4.740   3.304   1.581  2.6191  3.1331  0.1520
  117MOL    H1437366   4.812   3.261   1.912 -1.7910  0.0889  1.1503
  117MOL    H1537367   4.740   3.104   1.913  0.7083  0.8367  0.6867
  117MOL    H1637368   4.839   3.153   1.775  2.4673  1.6749  1.6618
  117MOL    H1737369   4.580   2.903   1.742 -0.9273 -1.3253 -1.4909
  117MOL    C1837370   4.333   3.145   1.789 -0.0510  0.3600 -0.8281
  117MOL    C1937371   4.220   3.115   1.888  0.2945  0.3053  0.1260
  117MOL    O2037372   4.253   3.137   2.023 -0.3773  0.3553  0.1175
  117MOL    C2137373   4.266   3.265   2.072  0.0459 -0.5714 -0.1035
  117MOL    C2237374   4.411   3.270   2.125  0.0100 -0.3731 -0.4991
  117MOL    C2337375   4.158   3.257   2.182 -0.1324  0.3394 -0.1824
  117MOL    H2437376   4.352   3.252   1.780  0.3506  0.4834  1.2809
  117MOL    H2537377   4.300   3.117   1.689  0.8201  0.4104 -1.1339
  117MOL    H2637378   4.131   3.170   1.858  1.2198  1.6838 -0.1231
  117MOL    H2737379   4.250   3.353   2.009  3.4342  0.6247  0.6048
  117MOL    H2837380   4.429   3.375   2.147  1.5207 -0.6250 -0.4306
  117MOL    H2937381   4.430   3.203   2.209  0.6116 -0.5003 -0.7312
  117MOL    H3037382   4.483   3.243   2.047  1.4064 -0.4772  0.7911
  117MOL    H3137383   4.165   3.171   2.248  2.6807  0.3235 -0.4433
  117MOL    H3237384   4.064   3.255   2.126 -0.6117  0.6322  0.6035
  117MOL    H3337385   4.152   3.347   2.243 -0.2866  1.7779 -2.2652
  117MOL    C3437386   4.175   2.967   1.865  0.5337 -0.4911 -0.1550
  117MOL    C3537387   4.039   2.931   1.927 -0.5035  0.8772 -0.2362
  117MOL    O3637388   3.947   2.971   1.833 -0.0072 -0.5468 -0.3333
  117MOL    C3737389   3.821   2.996   1.890 -0.1795  0.0817  0.1725
  117MOL    C3837390   3.816   3.143   1.935  0.4262  0.5616  0.3732
  117MOL    C3937391   3.718   2.977   1.779  0.4162  0.0787  0.4508
  117MOL    H4037392   4.252   2.908   1.916 -0.1797 -1.9933 -0.7690
  117MOL    H4137393   4.165   2.945   1.759 -4.2197  2.8240 -0.5314
  117MOL    H4237394   4.036   2.981   2.024  1.6818  0.9960 -0.2168
  117MOL    H4337395   3.795   2.923   1.967 -2.2775 -2.3466 -2.7119
  117MOL    H4437396   3.896   3.161   2.006  0.9806  1.5120 -0.4764
  117MOL    H4537397   3.720   3.159   1.984  0.0283  0.3790 -0.3340
  117MOL    H4637398   3.824   3.209   1.849  0.1874 -1.1735 -1.0249
  117MOL    H4737399   3.713   2.868   1.768  0.0552  0.3588 -2.6085
  117MOL    H4837400   3.626   3.016   1.820 -0.2509 -0.9088 -0.0877
  117MOL    H4937401   3.752   3.021   1.685  3.6717 -0.0128  1.5017
  117MOL    C5037402   4.021   2.781   1.948  0.3057 -0.0961  1.0950
  117MOL    C5137403   4.115   2.721   2.053  0.2617  0.7310  0.6379
  117MOL    O5237404   4.106   2.575   2.057 -0.1320  0.1058 -0.4284
  117MOL    C5337405   4.186   2.513   1.959 -0.3663  0.1658  0.2277
  117MOL    C5437406   4.125   2.380   1.909 -0.0465 -0.3265 -0.0650
  117MOL    C5537407   4.321   2.479   2.021 -0.6358 -0.4555  0.0314
  117MOL    H5637408   3.919   2.750   1.971  0.2071 -0.8920 -0.3489
  117MOL    H5737409   4.041   2.732   1.852  3.1533  0.1185  1.5450
  117MOL    H5837410   4.216   2.757   2.034  0.3159  0.6896  0.8466
  117MOL    H5937411   4.194   2.581   1.874  1.3385 -0.4595 -0.1286
  117MOL    H6037412   4.137   2.311   1.992 -2.0874  1.0877  1.4478
  117MOL    H6137413   4.187   2.341   1.828  0.5162  0.1080  0.1510
  117MOL    H6237414   4.026   2.396   1.866 -0.4916  0.9235  1.3886
  117MOL    H6337415   4.304   2.426   2.115  1.0207 -2.0511 -0.5538
  117MOL    H6437416   4.380   2.568   2.045 -2.2638  0.7124 -0.2055
  117MOL    H6537417   4.384   2.429   1.948  1.2958  1.7071  0.1556
  117MOL    C6637418   4.072   2.762   2.199  0.7200 -0.5463  0.3557
  117MOL    C6737419   4.192   2.747   2.304  0.1447  0.1697 -1.1583
  117MOL    O6837420   4.129   2.733   2.430 -0.3349 -0.2171  0.2944
  117MOL    C6937421   4.073   2.608   2.465 -0.2958  0.0168 -0.2087
  117MOL    C7037422   4.184   2.503   2.470 -0.8286  0.1237  0.0957
  117MOL    C7137423   4.012   2.636   2.604  0.5533 -0.0933 -0.2726
  117MOL    H7237424   4.061   2.870   2.210  1.1271 -0.5650  1.0000
  117MOL    H7337425   3.985   2.704   2.227 -0.6322  0.9718 -0.6287
  117MOL    H7437426   4.252   2.661   2.278  0.8499 -0.2172  1.5542
  117MOL    H7537427   3.993   2.576   2.398  0.4621 -1.2794 -0.5027
  117MOL    H7637428   4.132   2.408   2.486 -2.1866  0.8484  0.0473
  117MOL    H7737429   4.241   2.492   2.377 -2.4639  0.0100 -0.9053
  117MOL    H7837430   4.255   2.506   2.553  0.1199 -1.7622 -0.6208
  117MOL    H7937431   4.094   2.659   2.673  2.2531 -2.9993 -1.2548
  117MOL    H8037432   3.953   2.548   2.629  2.3175 -1.7765 -1.8685
  117MOL    H8137433   3.946   2.722   2.614  1.3988  0.6167 -0.6734
  117MOL    C8237434   4.289   2.874   2.307  0.3791  0.5883  0.2013
  117MOL    C8337435   4.421   2.869   2.393  0.2652 -0.3895 -0.3859
  117MOL    O8437436   4.497   2.978   2.355  0.4207  0.0551 -0.0823
  117MOL    C8537437   4.630   2.959   2.308 -0.8264 -0.1546 -0.0466
  117MOL    C8637438   4.711   3.089   2.305  0.2200  0.6084  0.2859
  117MOL    C8737439   4.627   2.888   2.169  0.2492 -0.7030  0.5720
  117MOL    H8837440   4.321   2.890   2.205 -3.1175 -2.8581 -1.6042
  117MOL    H8937441   4.225   2.956   2.339  0.8869  1.6439 -1.4273
  117MOL    H9037442   4.469   2.773   2.375  1.9636  0.1285  1.1764
  117MOL    H9137443   4.674   2.887   2.376  1.3844  0.8563 -0.3730
  117MOL    H9237444   4.663   3.162   2.241 -1.6368 -0.1378  0.8098
  117MOL    H9337445   4.702   3.136   2.403 -2.2324  0.2115  0.2691
  117MOL    H9437446   4.815   3.065   2.283  0.5771  0.9305  1.5965
  117MOL    H9537447   4.587   2.954   2.092  0.9989  1.4693  2.0056
  117MOL    H9637448   4.728   2.856   2.142  0.0277 -0.2321 -0.8569
  117MOL    H9737449   4.554   2.807   2.173 -1.8884  1.2412  2.0560
  117MOL    C9837450   4.401   2.886   2.545 -0.1795  0.7377 -0.3734
  117MOL    C9937451   4.314   3.009   2.599  0.0137  0.1899 -0.4198
  117MOL   O10037452   4.382   3.085   2.697 -0.3292  0.3751 -0.4156
  117MOL   C10137453   4.475   3.171   2.643 -0.2365  0.5945  0.0545
  117MOL   C10237454   4.592   3.193   2.736  0.2076  0.3660 -0.5686
  117MOL   C10337455   4.408   3.300   2.590 -0.2637 -0.4343  0.0161
  117MOL   H10437456   4.359   2.792   2.579  1.5811  0.5570  1.3969
  117MOL   H10537457   4.506   2.881   2.574  0.1410 -0.5927 -1.6695
  117MOL   H10637458   4.282   3.073   2.517 -2.1943 -1.2002 -0.6853
  117MOL   H10737459   4.519   3.118   2.558  1.9882  1.4227  0.6331
  117MOL   H10837460   4.668   3.261   2.696 -1.0293  0.0883 -3.5161
  117MOL   H10937461   4.646   3.100   2.752  0.3788  1.0164  3.0883
  117MOL   H11037462   4.555   3.242   2.826 -1.4664  1.3064 -1.7411
  117MOL   H11137463   4.343   3.356   2.657  0.0701 -0.8012  0.6473
  117MOL   H11237464   4.352   3.286   2.498  0.6602  0.5013 -0.6920
  117MOL   H11337465   4.495   3.362   2.571 -0.0841 -0.6693  0.0773
  117MOL   C11437466   4.185   2.960   2.666 -0.5849 -0.1528 -0.0858
  117MOL   C11537467   4.096   3.070   2.709 -0.1024 -0.1255  0.0475
  117MOL   O11637468   3.964   3.060   2.645 -0.0644  0.1528  0.9118
  117MOL   C11737469   3.960   3.091   2.507 -0.4641 -0.2559 -0.3282
  117MOL   C11837470   3.949   3.240   2.476 -0.8407  0.1936  1.3525
  117MOL   C11937471   3.839   3.018   2.456  0.5014  0.2600  0.3014
  117MOL   H12037472   4.217   2.905   2.755  0.3562  0.9867  0.2903
  117MOL   H12137473   4.148   2.880   2.602 -2.0712  1.0330 -0.7290
  117MOL   H12237474   4.141   3.165   2.680  1.4438  0.0305  2.7636
  117MOL   H12337475   4.047   3.051   2.454  0.2723  1.8247 -0.7242
  117MOL   H12437476   3.857   3.285   2.514 -1.1769 -2.8268  4.3743
  117MOL   H12537477   3.949   3.251   2.367  2.0273  1.8410  1.4728
  117MOL   H12637478   4.037   3.292   2.513 -1.5501 -0.3699  3.8860
  117MOL   H12737479   3.756   3.078   2.495  1.3770  0.9820  1.0763
  117MOL   H12837480   3.847   2.916   2.493 -3.4808 -0.3920 -0.4468
  117MOL   H12937481   3.831   3.006   2.348  3.4465  1.3753 -0.0964
  117MOL   C13037482   4.072   3.087   2.861 -0.3330  0.5185 -0.1457
  117MOL   C13137483   3.954   3.001   2.913  0.0976  0.0008 -0.3149
  117MOL   O13237484   3.930   3.025   3.048 -0.3037  0.2174 -0.0756
  117MOL   C13337485   3.867   3.152   3.075  0.2329 -0.0325 -0.0676
  117MOL   C13437486   3.748   3.115   3.163  0.2212  0.7159 -0.0642
  117MOL   C13537487   3.965   3.241   3.147 -0.6652 -0.0201  0.6952
  117MOL   H13637488   4.043   3.190   2.879 -1.8405  0.0927 -0.1127
  117MOL   H13737489   4.166   3.064   2.911 -1.7940 -0.2408  2.3230
  117MOL   H13837490   3.868   3.023   2.850 -1.3972 -1.1650  1.3040
  117MOL   H13937491   3.830   3.199   2.984 -1.7075 -4.1367 -1.5385
  117MOL   H14037492   3.706   3.204   3.208 -0.3367 -0.9330  2.8219
  117MOL   H14137493   3.774   3.050   3.246 -1.6191  0.0729  0.0437
  117MOL   H14237494   3.666   3.074   3.103 -0.6246  1.5360  0.5220
  117MOL   H14337495   4.045   3.275   3.081  3.0492 -3.9390  2.8771
  117MOL   H14437496   3.924   3.326   3.201  0.1572  0.7761  0.0897
  117MOL   H14537497   4.014   3.186   3.228 -0.7828 -2.9673 -1.1482
  117MOL   C14637498   3.977   2.853   2.916 -0.6343  0.6190  0.2332
  117MOL   C14737499   3.842   2.773   2.930  0.5282 -0.7931  0.5484
  117MOL   O14837500   3.766   2.790   2.812  0.0480  0.6590 -0.3316
  117MOL   C14937501   3.640   2.854   2.832  0.5157 -0.3437 -0.2026
  117MOL   C15037502   3.549   2.758   2.920 -0.1580 -0.2275  0.3642
  117MOL   C15137503   3.590   2.882   2.683 -0.0586 -0.1946  0.2406
  117MOL   H15237504   4.052   2.825   2.989  0.2180  2.1683 -0.0355
  117MOL   H15337505   4.018   2.827   2.818  1.6997 -0.1249  1.3631
  117MOL   H15437506   3.786   2.807   3.017 -1.7743 -1.9681 -0.4087
  117MOL   H15537507   3.650   2.951   2.881  1.0400 -0.9376  0.8836
  117MOL   H15637508   3.596   2.703   3.002 -2.3055  1.4878  2.8391
  117MOL   H15737509   3.516   2.681   2.851  1.5291 -0.8431  0.2211
  117MOL   H15837510   3.466   2.813   2.964 -0.3999 -0.6971  0.4971
  117MOL   H15937511   3.602   2.793   2.622  2.4340  0.5149 -0.3537
  117MOL   H16037512   3.642   2.964   2.634  3.1596 -2.5140 -0.4503
  117MOL   H16137513   3.488   2.920   2.690 -0.7444 -1.5578 -1.9797
  117MOL   C16237514   3.865   2.619   2.941  0.4871  0.1475  0.0326
  117MOL   C16337515   3.904   2.566   3.077  0.3673  0.5271 -0.4592
  117MOL   O16437516   3.791   2.567   3.163  0.8114 -0.4820 -0.1455
  117MOL   C16537517   3.798   2.564   3.299  0.5842 -0.8681  0.7279
  117MOL   C16637518   3.659   2.562   3.356  0.1166 -0.3224 -0.2224
  117MOL   C16737519   3.884   2.677   3.360  0.1268 -0.3623 -0.0286
  117MOL   H16837520   3.776   2.564   2.912  1.0703  0.3770 -2.2567
  117MOL   H16937521   3.942   2.595   2.868 -0.8411 -0.4299 -1.1884
  117MOL   H17037522   3.984   2.627   3.119  0.5340 -0.7851  1.1372
  117MOL   H17137523   3.843   2.468   3.325 -1.5798 -2.5915 -1.6658
  117MOL   H17237524   3.618   2.465   3.327 -0.5204  0.2862 -1.3660
  117MOL   H17337525   3.604   2.648   3.317  0.0774  0.1158  0.7968
  117MOL   H17437526   3.663   2.560   3.465 -1.1851 -0.8074 -0.1735
  117MOL   H17537527   3.856   2.781   3.340 -0.1917 -0.8621 -2.3519
  117MOL   H17637528   3.985   2.668   3.319  0.5405 -0.1054  0.9406
  117MOL   H17737529   3.896   2.664   3.467 -1.1520  0.3906  0.2229
  117MOL   C17837530   3.955   2.420   3.069  0.6034 -0.1291 -0.0929
  117MOL   C17937531   4.113   2.408   3.074 -0.4357  0.0204 -0.3007
  117MOL   O18037532   4.137   2.275   3.035  0.1474 -0.4893  0.2440
  117MOL   C18137533   4.164   2.185   3.135  0.1831  0.6272  0.6431
  117MOL   C18237534   4.251   2.085   3.064 -0.4201 -0.6371  1.0864
  117MOL   C18337535   4.040   2.126   3.208 -0.8991  0.3736 -0.4152
  117MOL   H18437536   3.922   2.381   2.973 -0.0365  2.2223 -0.8692
  117MOL   H18537537   3.915   2.362   3.152 -1.3806  1.3805  0.0589
  117MOL   H18637538   4.142   2.420   3.178  0.3340 -4.0600  0.0418
  117MOL   H18737539   4.228   2.233   3.210  0.9973  2.5736 -1.2427
  117MOL   H18837540   4.217   2.050   2.967  0.2306  1.5039  0.0741
  117MOL   H18937541   4.265   2.002   3.134 -0.2822 -0.6680  1.0230
  117MOL   H19037542   4.341   2.142   3.043 -0.8061  0.3686  2.0881
  117MOL   H19137543   3.958   2.110   3.139 -2.4611 -0.5040  1.5999
  117MOL   H19237544   3.998   2.187   3.288  0.4923 -2.2820  2.4778
  117MOL   H19337545   4.062   2.027   3.249 -1.4418  0.6940  0.6457
  117MOL   C19437546   4.192   2.505   2.984  0.1707  0.1157  0.4670
  117MOL   C19537547   4.347   2.495   3.005  0.0576 -0.1654 -0.0285
  117MOL   O19637548   4.370   2.558   3.136 -0.0831  0.0269  0.1623
  117MOL   C19737549   4.485   2.527   3.213 -0.5311  0.0540 -0.2325
  117MOL   C19837550   4.493   2.618   3.339 -0.5324  0.1789  0.3966
  117MOL   C19937551   4.493   2.380   3.253  0.1039 -0.3723 -0.5956
  117MOL   H20037552   4.175   2.490   2.878 -2.5878 -1.6076  1.0881
  117MOL   H20137553   4.162   2.609   2.998 -1.5201 -0.1422 -1.0690
  117MOL   H20237554   4.372   2.389   3.006 -2.8734 -1.0212 -3.8187
  117MOL   H20337555   4.573   2.563   3.159 -0.9767  0.7694 -0.4711
  117MOL   H20437556   4.591   2.591   3.377 -1.0593  0.4738  1.9943
  117MOL   H20537557   4.493   2.723   3.310  0.3667  0.0223 -0.1883
  117MOL   H20637558   4.420   2.591   3.415 -0.2183 -3.0264 -0.3595
  117MOL   H20737559   4.589   2.357   3.298  0.7549  0.7248 -1.4218
  117MOL   H20837560   4.417   2.355   3.328  1.5306  0.2012  1.0823
  117MOL   H20937561   4.479   2.311   3.170 -0.9417 -0.8021 -0.0802
  117MOL   C21037562   4.424   2.556   2.879 -0.3900  0.0050 -0.2073
  117MOL   C21137563   4.566   2.499   2.858 -0.4850 -0.0109  1.2251
  117MOL   O21237564   4.563   2.361   2.841  0.5267 -0.1128  0.0762
  117MOL   C21337565   4.682   2.279   2.856 -0.1378 -0.4136  0.1086
  117MOL   C21437566   4.694   2.234   3.004 -0.0714  0.6031 -0.0023
  117MOL   C21537567   4.656   2.160   2.771 -0.8238  0.2357 -0.0576
  117MOL   H21637568   4.418   2.665   2.888 -1.7956 -0.1866  1.3649
  117MOL   H21737569   4.364   2.532   2.792 -1.2169 -0.2273  0.4229
  117MOL   H21837570   4.625   2.510   2.949 -0.5585 -0.8863  1.3835
  117MOL   H21937571   4.766   2.329   2.809 -1.7456  1.1128 -1.2306
  117MOL   H22037572   4.617   2.162   3.030  1.7365 -1.5472 -0.5161
  117MOL   H22137573   4.699   2.307   3.085 -0.8011  0.0051  0.5993
  117MOL   H22237574   4.779   2.168   3.015 -0.5680  0.4131  2.9931
  117MOL   H22337575   4.642   2.193   2.669 -0.1893 -0.0858 -0.2524
  117MOL   H22437576   4.568   2.111   2.814 -0.0335 -0.3404  0.9513
  117MOL   H22537577   4.738   2.087   2.765 -0.0918  1.1957 -2.0408
  117MOL   C22637578   4.627   2.557   2.724  0.2060  0.3820  0.0697
  117MOL   C22737579   4.749   2.642   2.753 -1.2592 -0.2808  0.2539
  117MOL   O22837580   4.703   2.766   2.806 -0.0781  0.5324 -0.6664
  117MOL   C22937581   4.749   2.793   2.937 -0.3479 -0.4733 -0.2217
  117MOL   C23037582   4.647   2.880   2.996  0.0174 -0.1202  0.4827
  117MOL   C23137583   4.879   2.876   2.938  0.5863  0.4676 -0.2505
  117MOL   H23237584   4.560   2.626   2.673 -0.6656  1.3491  2.4366
  117MOL   H23337585   4.640   2.480   2.649 -2.8378  1.8121 -2.0010
  117MOL   H23437586   4.817   2.589   2.820 -0.3147  0.4165 -0.1324
  117MOL   H23537587   4.758   2.701   2.994  0.8827 -1.3878 -1.8413
  117MOL   H23637588   4.550   2.832   2.982 -0.5677  0.7183  1.5425
  117MOL   H23737589   4.657   2.894   3.104  0.4995 -0.4794  0.4877
  117MOL   H23837590   4.641   2.971   2.938 -1.0891 -0.1732  0.4991
  117MOL   H23937591   4.888   2.932   3.031  1.3928 -1.1855  0.6829
  117MOL   H24037592   4.869   2.957   2.866  2.8939  1.3538  0.3934
  117MOL   H24137593   4.959   2.806   2.914 -2.0864 -2.8839  0.2911
  117MOL   C24237594   4.836   2.659   2.624  0.2779  0.3103  0.3692
  117MOL   C24337595   4.923   2.537   2.579 -0.6916 -0.0076  0.0278
  117MOL   O24437596   5.016   2.509   2.684 -0.0758  0.4403  0.5252
  117MOL   C24537597   5.104   2.397   2.663  0.4369 -0.1918  0.5686
  117MOL   C24637598   5.200   2.395   2.782  0.2466 -0.6023  0.0991
  117MOL   C24737599   5.020   2.258   2.642 -0.5714 -0.8522 -0.7632
  117MOL   H24837600   4.777   2.703   2.543 -0.0234 -0.6349  0.0752
  117MOL   H24937601   4.896   2.749   2.642  0.4586 -0.6700  5.2685
  117MOL   H25037602   4.848   2.461   2.556  0.4483 -0.1934 -3.3291
  117MOL   H25137603   5.157   2.424   2.572 -0.1528 -2.0421 -0.3586
  117MOL   H25237604   5.302   2.372   2.752  0.8346  1.2854  0.6062
  117MOL   H25337605   5.199   2.496   2.824 -1.7553  0.0854 -1.5443
  117MOL   H25437606   5.159   2.330   2.860  1.6368 -2.0491 -0.3510
  117MOL   H25537607   4.954   2.254   2.556 -0.1791  0.0903 -1.1173
  117MOL   H25637608   5.097   2.181   2.643  0.9937  0.6136 -3.3492
  117MOL   H25737609   4.955   2.252   2.729 -0.5157  0.0905 -0.6474
  117MOL   C25837610   4.993   2.575   2.444 -0.4968 -0.3772  0.4138
  117MOL   C25937611   4.920   2.621   2.319  0.3695  0.3190 -0.0071
  117MOL   O26037612   4.851   2.502   2.282  0.7906 -0.4248  0.8394
  117MOL   C26137613   4.723   2.508   2.208  0.8584 -0.2305 -0.0943
  117MOL   C26237614   4.698   2.377   2.123 -1.0325  0.0070 -0.0533
  117MOL   C26337615   4.614   2.521   2.312 -0.3439 -0.4378  0.7815
  117MOL   H26437616   5.063   2.655   2.471  1.6288 -3.3808  4.1892
  117MOL   H26537617   5.052   2.494   2.402 -0.9375  0.7070 -2.4520
  117MOL   H26637618   4.848   2.701   2.336  0.8904  0.8202 -0.1483
  117MOL   H26737619   4.717   2.590   2.136 -1.2483 -0.5093 -0.2767
  117MOL   H26837620   4.691   2.288   2.185 -3.4219 -1.2205 -2.0204
  117MOL   H26937621   4.770   2.347   2.047 -0.4993  0.6945  0.1683
  117MOL   H27037622   4.610   2.388   2.060 -1.7067  1.6795  1.1237
  117MOL   H27137623   4.634   2.451   2.393 -1.4217  0.3203  1.7194
  117MOL   H27237624   4.625   2.620   2.357  1.2649 -0.4321  0.4174
  117MOL   H27337625   4.515   2.503   2.269  0.4834 -0.8296 -1.0030
  117MOL   C27437626   5.012   2.662   2.208  0.1163 -0.4444  0.3575
  117MOL   C27537627   5.047   2.812   2.193 -0.3139 -0.0236 -0.6480
  117MOL   O27637628   5.138   2.828   2.307  0.2253 -0.2220  0.3893
  117MOL   C27737629   5.124   2.959   2.364  0.2202 -0.2695 -0.4459
  117MOL   C27837630   5.259   2.985   2.443  0.2837  0.0598 -0.6047
  117MOL   C27937631   5.010   2.968   2.463  0.6871  0.5190  0.1586
  117MOL   H28037632   5.100   2.597   2.218  0.3911 -0.4056 -1.7326
  117MOL   H28137633   4.951   2.645   2.120  0.2877  0.8878 -0.0212
  117MOL   H28237634   4.958   2.875   2.192  0.6854  1.4097 -0.0357
  117MOL   H28337635   5.106   3.029   2.282 -1.6052 -1.9215 -1.4883
  117MOL   H28437636   5.259   3.062   2.519  1.1237 -0.9942  0.4729
  117MOL   H28537637   5.295   2.891   2.486 -0.6320  0.2797  0.6636
  117MOL   H28637638   5.338   3.013   2.373  0.0099  0.3988 -0.7800
  117MOL   H28737639   4.982   3.067   2.498 -0.6307  0.1648  0.1512
  117MOL   H28837640   5.029   2.913   2.554 -5.5538  2.4482  2.9029
  117MOL   H28937641   4.920   2.931   2.412  1.9263  0.7895 -2.3054
  117MOL   C29037642   5.134   2.836   2.064 -0.2951 -0.4403  0.4773
  117MOL   C29137643   5.079   2.814   1.926  0.8929  0.2312  0.0257
  117MOL   O29237644   5.053   2.673   1.898  0.4783 -0.3379  0.6870
  117MOL   C29337645   5.167   2.599   1.850  0.3398 -0.7591  0.5092
  117MOL   C29437646   5.166   2.612   1.700 -0.8234  0.2656 -0.0376
  117MOL   C29537647   5.150   2.452   1.888  0.2555  0.7260  0.8624
  117MOL   H29637648   5.212   2.760   2.064 -0.8049 -0.9704 -1.0628
  117MOL   H29737649   5.179   2.935   2.071  0.5548 -0.8180  0.3539
  117MOL   H29837650   5.149   2.857   1.855  1.2482  2.4456  1.6754
  117MOL   H29937651   5.261   2.637   1.889  0.5644  0.5910 -1.3075
  117MOL   H30037652   5.185   2.706   1.648  1.7419 -1.1910 -1.8337
  117MOL   H30137653   5.241   2.547   1.655 -0.9231  0.1159  0.0162
  117MOL   H30237654   5.071   2.571   1.666 -0.3164 -1.8306  0.9955
  117MOL   H30337655   5.177   2.435   1.992 -0.3232 -0.9892  0.7340
  117MOL   H30437656   5.046   2.430   1.866  0.0648  2.8018 -0.5284
  117MOL   H30537657   5.214   2.387   1.829 -1.5875  0.7250 -1.1695
  117MOL   C30637658   4.952   2.894   1.894 -0.2858  0.0759  0.2068
  117MOL   C30737659   4.886   2.843   1.764 -0.2291  0.0740 -0.0841
  117MOL   O30837660   4.968   2.881   1.657  0.8691  0.4392  0.1988
  117MOL   C30937661   4.918   2.883   1.519  0.3432 -0.1402  0.3915
  117MOL   C31037662   4.825   2.766   1.498  0.7402  0.4033  0.6336
  117MOL   C31137663   4.868   3.026   1.488  0.0510  0.7644 -0.2653
  117MOL   H31237664   4.978   3.000   1.887 -1.0599  0.1767 -1.3436
  117MOL   H31337665   4.882   2.879   1.976 -0.8610 -1.8502 -0.6055
  117MOL   H31437666   4.873   2.735   1.761  0.8339 -0.0742  0.4084
  117MOL   H31537667   5.008   2.881   1.457 -0.5162  1.1916 -0.9243
  117MOL   H31637668   4.807   2.754   1.391 -0.6302  1.3778  0.7520
  117MOL   H31737669   4.725   2.783   1.537 -0.0303  1.6613 -1.7738
  117MOL   H31837670   4.871   2.672   1.529  2.2476  1.0564  0.4446
  117MOL   H31937671   4.949   3.097   1.476  2.0331 -1.7652 -2.4591
  117MOL   H32037672   4.808   3.069   1.568 -0.6624  0.7845 -0.8080
  117MOL   H32137673   4.805   3.045   1.401  0.1812 -1.1101 -0.7775
  117MOL   H32237674   4.789   2.888   1.745 -0.4795 -0.9480 -1.2936
  118MOL     C137675   2.735   5.387   1.940  0.3448 -0.7627 -0.2590
  118MOL     C237676   2.731   5.542   1.906 -0.2096 -0.5885 -0.3349
  118MOL     O337677   2.664   5.554   1.783 -0.4779 -0.3254 -0.0527
  118MOL     C437678   2.697   5.673   1.720 -0.5617 -0.0974  0.1287
  118MOL     C537679   2.580   5.696   1.624 -0.0515  0.2383  0.8302
  118MOL     C637680   2.823   5.662   1.632  0.6068  0.5507  0.0063
  118MOL     H737681   2.773   5.348   1.846 -2.6161  2.0253 -2.7607
  118MOL     H837682   2.797   5.360   2.025 -0.1274  0.4495  0.4808
  118MOL     H937683   2.837   5.566   1.903 -0.0914 -1.2569 -2.2942
  118MOL    H1037684   2.709   5.766   1.776  0.2551  0.8567 -1.6036
  118MOL    H1137685   2.586   5.783   1.559 -0.4200 -1.2116 -1.1623
  118MOL    H1237686   2.566   5.614   1.555  0.1202  1.2059 -0.3706
  118MOL    H1337687   2.489   5.708   1.682 -1.2430 -0.5448 -0.8520
  118MOL    H1437688   2.834   5.749   1.568  2.0529  1.1298  1.0430
  118MOL    H1537689   2.920   5.665   1.680  0.3347 -1.9719  0.7885
  118MOL    H1637690   2.818   5.570   1.573 -1.7555 -0.1524  1.2234
  118MOL    H1737691   2.634   5.347   1.947  0.6591 -1.3958  0.6455
  118MOL    C1837692   2.668   5.634   2.019  0.4101 -0.2227 -0.1889
  118MOL    C1937693   2.743   5.618   2.157  0.5842 -0.0054  0.8167
  118MOL    O2037694   2.661   5.698   2.242  0.1753  0.0281 -0.8928
  118MOL    C2137695   2.554   5.635   2.307 -0.2078  0.6108  0.0089
  118MOL    C2237696   2.429   5.717   2.275 -0.2690 -0.2871 -0.5580
  118MOL    C2337697   2.582   5.630   2.457  0.0624 -0.7946  0.0556
  118MOL    H2437698   2.675   5.740   1.994  2.9443 -0.0030  1.3264
  118MOL    H2537699   2.565   5.599   2.029  0.3348 -0.0664 -0.4417
  118MOL    H2637700   2.743   5.517   2.196  0.5643  0.4221  1.9383
  118MOL    H2737701   2.535   5.533   2.275 -2.1363 -0.4192  4.1247
  118MOL    H2837702   2.344   5.676   2.329  0.3339  0.6791  1.1991
  118MOL    H2937703   2.449   5.823   2.292 -0.1835 -0.6338  1.7061
  118MOL    H3037704   2.405   5.713   2.169 -0.1889  2.4157 -0.7088
  118MOL    H3137705   2.591   5.724   2.513  0.5100 -0.2313 -0.9486
  118MOL    H3237706   2.676   5.578   2.476  1.5599  2.1272  1.1526
  118MOL    H3337707   2.498   5.582   2.507  0.8467  0.5318  2.7614
  118MOL    C3437708   2.876   5.691   2.166 -0.3041  0.2265  0.3749
  118MOL    C3537709   2.951   5.673   2.295 -0.8188 -0.8933 -0.1358
  118MOL    O3637710   3.033   5.555   2.274 -0.6221  0.0299  0.2897
  118MOL    C3737711   3.081   5.491   2.388 -0.6191  0.0692  0.0340
  118MOL    C3837712   2.981   5.387   2.422  0.3331  0.2363  0.0763
  118MOL    C3937713   3.211   5.420   2.349 -0.2454  0.2653  0.4078
  118MOL    H4037714   2.870   5.798   2.142  4.1841  0.4250 -0.2985
  118MOL    H4137715   2.936   5.659   2.082  0.2308  1.6454  0.1976
  118MOL    H4237716   2.877   5.645   2.370 -0.9497 -1.8377 -0.6180
  118MOL    H4337717   3.096   5.562   2.470  2.4489 -2.3222  1.6258
  118MOL    H4437718   3.019   5.328   2.505  1.1202  0.0826 -0.3873
  118MOL    H4537719   2.958   5.322   2.338  4.8589 -1.0566 -0.3148
  118MOL    H4637720   2.889   5.431   2.461  1.2051  1.6557  0.5845
  118MOL    H4737721   3.249   5.377   2.442 -0.5205  1.5576  1.1279
  118MOL    H4837722   3.194   5.336   2.282 -0.4889  0.9625 -0.4083
  118MOL    H4937723   3.287   5.483   2.303  0.8583 -1.8509 -0.7489
  118MOL    C5037724   3.045   5.796   2.337 -0.0434  0.4527 -0.3401
  118MOL    C5137725   2.973   5.929   2.353  0.4105 -0.2793 -0.7062
  118MOL    O5237726   3.066   6.030   2.399  0.4654 -0.1194  0.1743
  118MOL    C5337727   3.137   6.111   2.305  0.9935  0.3511 -0.2052
  118MOL    C5437728   3.261   6.146   2.383  0.2365  0.5244  0.3223
  118MOL    C5537729   3.058   6.234   2.265 -0.0041  0.0906 -0.2045
  118MOL    H5637730   3.085   5.771   2.435 -0.5598 -2.1916 -0.7548
  118MOL    H5737731   3.120   5.812   2.259 -0.6729  1.2852 -0.7837
  118MOL    H5837732   2.930   5.957   2.257  0.9693  1.3106 -0.4933
  118MOL    H5937733   3.162   6.057   2.214  0.7638  1.4818 -0.9444
  118MOL    H6037734   3.335   6.200   2.323 -1.7540  2.7014 -0.2444
  118MOL    H6137735   3.300   6.048   2.409  0.7327  0.6365  0.0087
  118MOL    H6237736   3.223   6.210   2.463 -1.0330 -0.7633  0.7681
  118MOL    H6337737   3.116   6.299   2.201 -0.6797  0.5370 -0.3660
  118MOL    H6437738   3.043   6.272   2.366 -1.3303  1.4936 -0.9170
  118MOL    H6537739   2.963   6.206   2.218 -0.2902  1.0017 -0.1792
  118MOL    C6637740   2.865   5.934   2.464  0.1023  0.5435 -0.6199
  118MOL    C6737741   2.803   6.072   2.474  0.0211  0.3539 -0.8541
  118MOL    O6837742   2.770   6.100   2.617  0.0115  0.9146  0.1031
  118MOL    C6937743   2.875   6.142   2.693 -0.7761 -0.1010  0.3370
  118MOL    C7037744   2.910   6.291   2.669 -0.7370  0.2410  0.4444
  118MOL    C7137745   2.837   6.105   2.828 -0.1452 -0.1976 -0.1776
  118MOL    H7237746   2.792   5.854   2.450 -1.3604  1.8811 -0.7646
  118MOL    H7337747   2.923   5.905   2.551 -0.3719  1.1330 -0.1052
  118MOL    H7437748   2.869   6.150   2.435 -0.9310  2.2766  1.2536
  118MOL    H7537749   2.964   6.080   2.679  0.6064  1.2977  2.7607
  118MOL    H7637750   3.002   6.317   2.721  0.1349  0.4851 -1.2054
  118MOL    H7737751   2.914   6.323   2.566  1.4126 -0.0996  0.3983
  118MOL    H7837752   2.839   6.357   2.720 -0.8930  2.8795 -3.0323
  118MOL    H7937753   2.809   6.000   2.831  1.9556 -0.7722  0.0697
  118MOL    H8037754   2.748   6.157   2.863 -0.8781  0.4258 -2.7922
  118MOL    H8137755   2.910   6.113   2.907  0.1374 -1.4173 -0.3017
  118MOL    C8237756   2.669   6.067   2.394 -0.0412  0.6732  0.2855
  118MOL    C8337757   2.583   6.196   2.399  0.0975  0.3640  0.0538
  118MOL    O8437758   2.644   6.268   2.291 -0.1317 -0.1589  0.0192
  118MOL    C8537759   2.630   6.408   2.291  0.1974 -0.1652  0.1803
  118MOL    C8637760   2.623   6.466   2.150  0.7297 -0.8452 -0.0639
  118MOL    C8737761   2.737   6.462   2.388  0.0264  0.2905 -0.0442
  118MOL    H8837762   2.704   6.046   2.293 -0.2525  1.4310  0.0475
  118MOL    H8937763   2.601   5.988   2.426 -0.0512  1.7956  3.1274
  118MOL    H9037764   2.597   6.244   2.496 -1.3182 -0.9811  0.9639
  118MOL    H9137765   2.529   6.430   2.327 -0.3803 -0.9752 -0.9296
  118MOL    H9237766   2.534   6.443   2.092  1.4823 -0.4336 -1.3982
  118MOL    H9337767   2.634   6.574   2.164 -0.9639 -0.9181  2.1171
  118MOL    H9437768   2.702   6.441   2.080  0.0937 -1.7287 -0.4653
  118MOL    H9537769   2.739   6.571   2.380 -2.5185  0.4375  0.6294
  118MOL    H9637770   2.715   6.429   2.489  0.2083 -2.8457 -0.9735
  118MOL    H9737771   2.832   6.411   2.373  0.6858  1.5598 -0.3038
  118MOL    C9837772   2.432   6.166   2.375  0.1537 -0.4205 -0.2812
  118MOL    C9937773   2.351   6.091   2.481 -0.2148 -0.3796  0.0429
  118MOL   O10037774   2.211   6.120   2.437 -0.2499 -0.3325 -0.1989
  118MOL   C10137775   2.160   6.046   2.330 -0.3149 -0.7116 -0.7055
  118MOL   C10237776   2.156   6.128   2.200 -0.4193 -0.6417 -0.8199
  118MOL   C10337777   2.017   6.009   2.377  0.5759  0.2731 -0.3152
  118MOL   H10437778   2.383   6.264   2.373 -1.0699 -0.9856  1.2835
  118MOL   H10537779   2.425   6.117   2.278  1.0297 -0.5125 -0.3006
  118MOL   H10637780   2.382   5.987   2.474  2.2803  0.3843 -0.6071
  118MOL   H10737781   2.220   5.959   2.302  2.1962  0.5064  0.7419
  118MOL   H10837782   2.252   6.151   2.155  0.5927  0.6546  1.8979
  118MOL   H10937783   2.116   6.227   2.224  1.5658 -0.2507  1.0267
  118MOL   H11037784   2.087   6.073   2.135 -0.3594 -5.1382  2.6769
  118MOL   H11137785   1.962   5.948   2.305 -0.0477  0.5387 -0.0689
  118MOL   H11237786   1.958   6.099   2.390  0.5015  0.3174 -0.9316
  118MOL   H11337787   2.015   5.958   2.474  0.8124 -0.7144 -0.8193
  118MOL   C11437788   2.371   6.141   2.632 -0.1669 -0.3147 -0.2592
  118MOL   C11537789   2.294   6.051   2.725 -0.3224 -0.0725  0.5536
  118MOL   O11637790   2.362   6.048   2.850 -0.6762 -0.0471 -0.3658
  118MOL   C11737791   2.429   5.928   2.891 -0.0608 -0.4369 -0.4408
  118MOL   C11837792   2.515   5.963   3.011 -0.3786  0.0180 -0.2802
  118MOL   C11937793   2.511   5.857   2.780 -0.1194 -0.4400 -0.2504
  118MOL   H12037794   2.332   6.241   2.650 -0.8683 -0.7040  0.4065
  118MOL   H12137795   2.479   6.138   2.645  0.0807  0.3640 -2.0444
  118MOL   H12237796   2.294   5.946   2.695 -1.2428 -0.4748  1.9183
  118MOL   H12337797   2.352   5.863   2.932  0.0122  0.5962  1.4431
  118MOL   H12437798   2.580   6.046   2.982 -0.8028  0.7327  0.8036
  118MOL   H12537799   2.574   5.874   3.033  0.0749 -0.0631 -1.7591
  118MOL   H12637800   2.456   5.986   3.099 -0.3455 -2.7025  0.4975
  118MOL   H12737801   2.580   5.786   2.826  1.2188  1.2778  0.4380
  118MOL   H12837802   2.567   5.933   2.726  1.1799  0.2548  2.0409
  118MOL   H12937803   2.452   5.795   2.712 -0.7964 -1.8863  1.5885
  118MOL   C13037804   2.153   6.097   2.751 -0.0568  0.7616 -0.4835
  118MOL   C13137805   2.060   5.991   2.813 -0.5346 -0.3990  0.5682
  118MOL   O13237806   2.037   5.896   2.712 -0.0009  0.4182 -0.0675
  118MOL   C13337807   2.088   5.770   2.723 -0.5395 -0.2016  0.2424
  118MOL   C13437808   1.972   5.702   2.800  0.0891  0.4865  0.3206
  118MOL   C13537809   2.106   5.708   2.580 -0.0142 -0.4185  0.0168
  118MOL   H13637810   2.101   6.135   2.663  1.5249 -0.0292 -1.7938
  118MOL   H13737811   2.167   6.179   2.821  1.0224 -0.6772  1.0334
  118MOL   H13837812   2.121   5.942   2.889  0.7915  0.9477  0.3950
  118MOL   H13937813   2.181   5.749   2.776 -1.4564 -1.9695  1.2042
  118MOL   H14037814   1.952   5.595   2.798 -0.0700  0.4847  1.4161
  118MOL   H14137815   1.880   5.738   2.755 -1.2696 -0.2704  2.3842
  118MOL   H14237816   1.971   5.733   2.905 -1.2152  0.5934  0.2863
  118MOL   H14337817   2.162   5.615   2.581  1.4822  0.4574  0.7230
  118MOL   H14437818   2.008   5.695   2.535 -0.9713  1.4095  1.5133
  118MOL   H14537819   2.168   5.766   2.511  0.4546 -0.9663 -0.0198
  118MOL   C14637820   1.919   6.049   2.859 -0.5522 -0.0612  0.3389
  118MOL   C14737821   1.836   6.127   2.763 -0.1158 -0.0316 -0.0209
  118MOL   O14837822   1.711   6.065   2.743 -0.5608  0.5809 -0.3375
  118MOL   C14937823   1.696   5.978   2.633 -0.2319 -0.6323  0.1735
  118MOL   C15037824   1.624   6.063   2.523 -0.3913  0.2385  0.2877
  118MOL   C15137825   1.607   5.856   2.682  0.4691  0.3794 -0.3855
  118MOL   H15237826   1.920   6.104   2.953  0.9547  0.4903  0.0022
  118MOL   H15337827   1.857   5.965   2.890 -2.1321  0.7716 -0.4694
  118MOL   H15437828   1.884   6.129   2.665 -0.7612  0.5654 -0.3262
  118MOL   H15537829   1.791   5.934   2.605 -1.2645 -1.2998 -2.4204
  118MOL   H15637830   1.703   6.130   2.490  0.8632 -1.1262  0.4444
  118MOL   H15737831   1.535   6.121   2.544 -0.5426  0.2429 -0.3553
  118MOL   H15837832   1.597   5.990   2.447 -1.8813 -1.0438  2.0074
  118MOL   H15937833   1.589   5.787   2.599 -1.3827  2.4709 -1.7801
  118MOL   H16037834   1.506   5.882   2.714 -0.4567  1.3719 -3.8089
  118MOL   H16137835   1.651   5.802   2.765  1.4606  0.2533 -0.9869
  118MOL   C16237836   1.812   6.274   2.808  0.5284  0.1293 -0.7725
  118MOL   C16337837   1.842   6.380   2.697 -0.1960 -0.4632 -0.4403
  118MOL   O16437838   1.753   6.488   2.731 -0.2612 -0.1435  0.3539
  118MOL   C16537839   1.667   6.535   2.631 -0.2028  0.3956 -0.1703
  118MOL   C16637840   1.600   6.663   2.679 -0.2136  0.4728 -1.0445
  118MOL   C16737841   1.561   6.429   2.588  0.5433  0.5154  0.1613
  118MOL   H16837842   1.713   6.296   2.848  0.0184 -2.9636 -0.2288
  118MOL   H16937843   1.864   6.298   2.901 -1.8742  0.8515  0.4093
  118MOL   H17037844   1.816   6.349   2.596 -2.3797  0.1733 -0.1046
  118MOL   H17137845   1.724   6.559   2.541  2.7849 -1.3100  1.1934
  118MOL   H17237846   1.678   6.736   2.703 -1.5902  1.7262 -0.3189
  118MOL   H17337847   1.545   6.649   2.773  0.2557  1.0284 -0.6818
  118MOL   H17437848   1.531   6.711   2.610  0.8284  1.2229 -1.5786
  118MOL   H17537849   1.503   6.407   2.678 -0.3286 -1.1322 -0.7775
  118MOL   H17637850   1.618   6.340   2.560 -0.4458  0.5246 -1.9566
  118MOL   H17737851   1.484   6.455   2.515 -0.2454 -1.9063  0.0831
  118MOL   C17837852   1.987   6.431   2.690 -0.3159  0.7748  1.2820
  118MOL   C17937853   2.025   6.513   2.559 -0.3017  0.1010  0.1735
  118MOL   O18037854   2.155   6.561   2.593  0.1019 -0.3778 -0.1281
  118MOL   C18137855   2.170   6.676   2.672 -0.6963  0.6056  0.0181
  118MOL   C18237856   2.246   6.773   2.573 -0.6072 -0.2417  0.2184
  118MOL   C18337857   2.246   6.642   2.808 -0.0097  0.5753  0.5675
  118MOL   H18437858   2.046   6.341   2.709  0.1781  1.1625  1.5933
  118MOL   H18537859   1.988   6.506   2.769  2.9215 -0.5186  2.5711
  118MOL   H18637860   1.952   6.594   2.552 -0.2808  0.0792 -0.2987
  118MOL   H18737861   2.077   6.720   2.709 -1.1972 -1.4419  1.2779
  118MOL   H18837862   2.207   6.798   2.474 -0.8568  0.4246  0.4824
  118MOL   H18937863   2.336   6.719   2.546 -0.7487 -0.2241 -0.2910
  118MOL   H19037864   2.263   6.869   2.621 -1.6391 -0.7514  1.6409
  118MOL   H19137865   2.287   6.738   2.839 -1.2382  0.9434  1.0800
  118MOL   H19237866   2.325   6.570   2.788  1.7296  1.7814  2.9729
  118MOL   H19337867   2.167   6.606   2.874  0.3273 -0.3771  0.4599
  118MOL   C19437868   2.039   6.429   2.435 -0.7476  0.2804 -0.4522
  118MOL   C19537869   2.029   6.514   2.311 -0.3476 -0.3810 -0.1324
  118MOL   O19637870   1.976   6.422   2.212  0.5225 -0.0627 -0.3706
  118MOL   C19737871   1.847   6.451   2.168 -0.3402  0.7701 -0.3493
  118MOL   C19837872   1.838   6.399   2.024 -0.2310 -0.2941  0.4187
  118MOL   C19937873   1.748   6.376   2.254  0.1554 -0.4270  0.0449
  118MOL   H20037874   2.131   6.372   2.434 -0.9286 -0.0052 -3.1935
  118MOL   H20137875   1.963   6.350   2.436 -2.4490  1.8781 -0.7211
  118MOL   H20237876   1.959   6.596   2.328  0.9689  0.5921  0.7573
  118MOL   H20337877   1.818   6.555   2.169  1.3893  1.2618  0.6997
  118MOL   H20437878   1.741   6.408   1.975 -0.4580  0.6741  1.0288
  118MOL   H20537879   1.910   6.451   1.961  0.8424 -0.7055  1.3019
  118MOL   H20637880   1.875   6.297   2.022  1.2468  0.2419 -1.7265
  118MOL   H20737881   1.649   6.382   2.210  0.3898  2.5342 -0.1429
  118MOL   H20837882   1.760   6.268   2.252  0.9721 -0.3330 -0.5622
  118MOL   H20937883   1.732   6.424   2.351 -2.5311 -1.0119 -0.0720
  118MOL   C21037884   2.164   6.563   2.255 -0.4202 -0.1291  0.2506
  118MOL   C21137885   2.155   6.633   2.113  0.0086  0.5035 -0.5400
  118MOL   O21237886   2.242   6.744   2.122  0.2058  0.8234  0.1556
  118MOL   C21337887   2.200   6.870   2.173 -0.5566 -0.5774 -0.0709
  118MOL   C21437888   2.324   6.965   2.183 -0.8775 -0.6164  0.0083
  118MOL   C21537889   2.097   6.928   2.075  0.7540  0.2637  0.3952
  118MOL   H21637890   2.239   6.484   2.251 -0.9961 -0.6437 -0.5468
  118MOL   H21737891   2.194   6.638   2.328 -1.7743 -0.3479  1.0332
  118MOL   H21837892   2.055   6.675   2.096  0.2073  0.2301 -2.5136
  118MOL   H21937893   2.155   6.857   2.271  2.1583  0.5289  1.3954
  118MOL   H22037894   2.356   6.989   2.081  0.0511 -1.4407  0.0984
  118MOL   H22137895   2.406   6.941   2.250  0.1400  1.8877 -0.3023
  118MOL   H22237896   2.285   7.057   2.227 -1.7196 -1.6842  1.5233
  118MOL   H22337897   2.084   7.035   2.092 -0.5262  0.1883 -0.0755
  118MOL   H22437898   1.998   6.883   2.082  1.5670 -1.4203  1.5144
  118MOL   H22537899   2.134   6.909   1.974  0.3243  0.3218  0.2284
  118MOL   C22637900   2.205   6.542   2.006  0.3378  0.8535  0.6891
  118MOL   C22737901   2.199   6.600   1.862 -0.2593  0.3112  0.1701
  118MOL   O22837902   2.059   6.615   1.817  0.6741 -0.2671 -0.9477
  118MOL   C22937903   2.014   6.730   1.751 -0.2208  0.3966  0.4026
  118MOL   C23037904   1.872   6.758   1.790 -0.2883  0.4269 -0.0595
  118MOL   C23137905   2.011   6.697   1.604 -0.4719  0.4843  0.0492
  118MOL   H23237906   2.143   6.452   2.011 -0.4015  1.2833 -0.5247
  118MOL   H23337907   2.311   6.521   2.021  0.5154  0.3092 -1.1433
  118MOL   H23437908   2.253   6.694   1.870  0.9370 -0.5296  2.7938
  118MOL   H23537909   2.083   6.809   1.781  0.1287  1.1009 -2.1643
  118MOL   H23637910   1.802   6.674   1.791  0.3181 -0.0996 -0.7476
  118MOL   H23737911   1.871   6.781   1.897 -2.0199  1.5477 -0.3118
  118MOL   H23837912   1.833   6.832   1.721 -1.9361  0.2833  0.6956
  118MOL   H23937913   2.112   6.666   1.575  0.4327  2.1686  1.3696
  118MOL   H24037914   1.992   6.790   1.552  2.0863  0.6607 -0.6752
  118MOL   H24137915   1.950   6.613   1.569  1.7199 -0.7577 -0.9716
  118MOL   C24237916   2.284   6.517   1.760  0.0466  0.6535 -0.2976
  118MOL   C24337917   2.229   6.370   1.744 -0.3033  0.1767 -0.2336
  118MOL   O24437918   2.347   6.302   1.697  0.7789  0.0011 -0.3595
  118MOL   C24537919   2.389   6.188   1.769  0.2785 -0.0088  0.0614
  118MOL   C24637920   2.479   6.108   1.678  0.2822  0.4126  0.0331
  118MOL   C24737921   2.462   6.221   1.904 -0.7941 -0.3179 -0.3778
  118MOL   H24837922   2.291   6.563   1.662 -0.7908 -0.8045 -1.0623
  118MOL   H24937923   2.386   6.514   1.799 -0.0184  0.8432 -0.1129
  118MOL   H25037924   2.203   6.327   1.840  1.4758  1.8787  1.0585
  118MOL   H25137925   2.309   6.118   1.791  1.8702 -1.8627  0.1620
  118MOL   H25237926   2.582   6.144   1.676  1.5073 -2.8975  0.8194
  118MOL   H25337927   2.478   6.003   1.707 -1.9896  0.6992  1.1578
  118MOL   H25437928   2.445   6.104   1.574 -0.6811 -2.7321  0.4322
  118MOL   H25537929   2.502   6.128   1.945  0.6371  1.2874  2.0149
  118MOL   H25637930   2.546   6.286   1.879  0.1216 -0.6967  1.5841
  118MOL   H25737931   2.400   6.267   1.981 -1.4499  1.4325 -1.9057
  118MOL   C25837932   2.112   6.340   1.648  0.3857  0.3468  0.2217
  118MOL   C25937933   2.052   6.201   1.642 -0.2276  0.3534 -1.1525
  118MOL   O26037934   1.966   6.174   1.532 -0.4680 -0.0059 -0.4629
  118MOL   C26137935   2.034   6.126   1.419 -0.1965 -0.2722  0.6016
  118MOL   C26237936   2.034   5.968   1.425 -0.3226 -0.6868  0.1331
  118MOL   C26337937   1.958   6.185   1.308 -0.9707  0.5944 -0.9189
  118MOL   H26437938   2.039   6.420   1.660  0.1677  0.2685 -0.5857
  118MOL   H26537939   2.131   6.360   1.543 -0.1939  0.7558  0.1911
  118MOL   H26637940   2.134   6.130   1.652  0.0394  0.4163 -2.7782
  118MOL   H26737941   2.139   6.156   1.413 -0.3453 -0.1007 -1.2703
  118MOL   H26837942   2.089   5.931   1.512 -1.3016 -0.0660  1.0233
  118MOL   H26937943   2.077   5.918   1.338 -1.9081 -0.3821 -0.8472
  118MOL   H27037944   1.933   5.929   1.441  0.0568 -1.6166  0.2860
  118MOL   H27137945   1.977   6.142   1.209  1.2799  0.7591 -0.5826
  118MOL   H27237946   1.849   6.185   1.314 -0.9298 -0.6867 -0.0378
  118MOL   H27337947   1.986   6.289   1.294  0.8064  0.1264 -0.8944
  118MOL   C27437948   1.974   6.157   1.766  0.3095 -0.1956  0.0254
  118MOL   C27537949   1.954   6.009   1.791 -0.6049  0.4827 -0.9146
  118MOL   O27637950   2.080   5.964   1.842  0.0496  0.4834  0.6312
  118MOL   C27737951   2.114   5.828   1.850  0.4993 -0.5219 -0.0362
  118MOL   C27837952   2.156   5.797   1.991  0.2655  0.8972 -0.0720
  118MOL   C27937953   2.239   5.810   1.761 -0.5405 -0.4138 -0.2209
  118MOL   H28037954   2.030   6.202   1.848  0.6081  1.5986 -1.1388
  118MOL   H28137955   1.882   6.215   1.762 -1.2812 -2.5607  1.3016
  118MOL   H28237956   1.946   5.950   1.700 -1.1900  0.3464 -0.7786
  118MOL   H28337957   2.035   5.777   1.795 -1.5494 -0.0378  2.3814
  118MOL   H28437958   2.067   5.809   2.053  1.6875  2.1140  1.7511
  118MOL   H28537959   2.187   5.692   1.994  1.9028  1.3697 -0.2579
  118MOL   H28637960   2.242   5.859   2.016  0.4395  0.2873  0.8595
  118MOL   H28737961   2.235   5.883   1.680  0.6378 -0.1745 -0.0731
  118MOL   H28837962   2.253   5.710   1.719 -2.1515 -0.2885 -1.0903
  118MOL   H28937963   2.335   5.841   1.803 -0.7797 -1.9993  1.5838
  118MOL   C29037964   1.839   5.979   1.883 -0.6217  0.4903  0.3939
  118MOL   C29137965   1.698   6.022   1.836  0.1003 -0.3327  0.0315
  118MOL   O29237966   1.633   5.931   1.751 -0.0673  0.2090  0.2772
  118MOL   C29337967   1.639   5.965   1.613  0.5347 -0.4814 -0.6004
  118MOL   C29437968   1.539   6.065   1.566 -0.2156 -0.2552 -0.0133
  118MOL   C29537969   1.618   5.830   1.529 -0.7155  0.1018  0.0506
  118MOL   H29637970   1.869   6.028   1.976 -0.3260 -3.2720  2.4018
  118MOL   H29737971   1.843   5.872   1.906 -0.1409  0.3824 -0.1954
  118MOL   H29837972   1.694   6.123   1.796  2.1057 -0.1421  0.2644
  118MOL   H29937973   1.736   6.010   1.597  1.8833 -1.9354  2.9893
  118MOL   H30037974   1.530   6.149   1.636 -3.0809 -0.1764 -0.3819
  118MOL   H30137975   1.570   6.096   1.466  2.2646  0.7280  1.0446
  118MOL   H30237976   1.441   6.017   1.563 -0.0066 -0.6185 -2.9639
  118MOL   H30337977   1.624   5.855   1.423  1.1172  1.1614  0.3884
  118MOL   H30437978   1.694   5.758   1.562 -1.5394 -1.6656 -1.7961
  118MOL   H30537979   1.522   5.780   1.541 -0.8532  0.4654  0.4537
  118MOL   C30637980   1.600   6.025   1.958 -0.7190  0.2380  0.7594
  118MOL   C30737981   1.467   6.098   1.925  0.2368  0.2227  0.6213
  118MOL   O30837982   1.401   6.135   2.043 -0.3300 -0.0771  0.1678
  118MOL   C30937983   1.304   6.232   2.026  0.0077 -0.6063 -0.0871
  118MOL   C31037984   1.174   6.175   1.959 -0.6935  0.2555  0.7264
  118MOL   C31137985   1.288   6.277   2.167 -0.0136 -0.5144 -0.1557
  118MOL   H31237986   1.646   6.076   2.041 -0.6672 -0.1940  0.9998
  118MOL   H31337987   1.586   5.923   1.995 -0.1375  0.1584  0.7536
  118MOL   H31437988   1.474   6.188   1.864 -3.6613  0.5091  0.4807
  118MOL   H31537989   1.343   6.311   1.962 -1.0067 -0.1679 -0.1810
  118MOL   H31637990   1.192   6.126   1.864 -2.3147  1.4892 -0.2397
  118MOL   H31737991   1.110   6.262   1.940 -1.8801 -0.9739 -0.9601
  118MOL   H31837992   1.134   6.097   2.024 -1.2421 -1.0956 -1.2018
  118MOL   H31937993   1.203   6.345   2.169  0.8561  0.5918 -0.4883
  118MOL   H32037994   1.372   6.326   2.217 -1.5147  1.1796  0.7770
  118MOL   H32137995   1.258   6.194   2.231  2.8080  1.0682  3.4266
  118MOL   H32237996   1.406   6.028   1.868  0.2939 -0.3343  1.2404
  119MOL     C137997   7.434   0.469   5.924 -0.1312  0.1482  0.3033
  119MOL     C237998   7.462   0.472   5.772 -0.2021  0.2789 -0.2425
  119MOL     O337999   7.399   0.355   5.724  0.5520 -0.7785  0.1981
  119MOL     C438000   7.472   0.231   5.733  0.0893 -0.4146  0.3972
  119MOL     C538001   7.524   0.203   5.588 -0.2604 -0.3497  0.8381
  119MOL     C638002   7.378   0.120   5.785  0.3127  0.2882 -0.2441
  119MOL     H738003   7.501   0.538   5.975  0.0805  0.0589  0.1456
  119MOL     H838004   7.330   0.475   5.955  0.4082 -2.5431  2.9728
  119MOL     H938005   7.569   0.465   5.752 -0.4912  2.0424 -2.6094
  119MOL    H1038006   7.547   0.234   5.812  0.2173  1.5624  0.2149
  119MOL    H1138007   7.591   0.284   5.559 -1.1468 -0.4310 -1.5241
  119MOL    H1238008   7.585   0.114   5.576  2.4889  1.9495 -4.0340
  119MOL    H1338009   7.437   0.194   5.523  0.1628 -2.5956  0.5527
  119MOL    H1438010   7.293   0.106   5.717 -0.4665  1.2954  0.5008
  119MOL    H1538011   7.424   0.022   5.784 -0.9506 -0.3124 -1.3467
  119MOL    H1638012   7.335   0.147   5.881 -1.1406  1.5222 -1.1985
  119MOL    H1738013   7.464   0.373   5.967  1.6900  1.5823  2.3490
  119MOL    C1838014   7.400   0.595   5.695 -0.4544  0.1628 -0.0579
  119MOL    C1938015   7.476   0.729   5.730 -0.4625 -0.2791  0.1005
  119MOL    O2038016   7.393   0.845   5.722 -0.7418 -0.7775 -0.3937
  119MOL    C2138017   7.279   0.851   5.807 -0.7394  1.4443  0.9802
  119MOL    C2238018   7.167   0.920   5.728  0.0867 -0.2351  0.2448
  119MOL    C2338019   7.318   0.931   5.926 -0.1815  0.2834 -0.1232
  119MOL    H2438020   7.391   0.569   5.590 -0.3967 -2.2740  0.5135
  119MOL    H2538021   7.296   0.595   5.728 -0.9951 -1.9643 -1.6974
  119MOL    H2638022   7.515   0.711   5.830  0.6018 -1.1288 -0.4504
  119MOL    H2738023   7.246   0.755   5.846  0.2080  1.1768  1.1314
  119MOL    H2838024   7.183   1.024   5.700 -0.1074 -0.3126 -0.1565
  119MOL    H2938025   7.148   0.861   5.638 -1.1624  0.4868  0.0246
  119MOL    H3038026   7.076   0.925   5.788  0.0537  0.6938  0.1271
  119MOL    H3138027   7.236   0.929   5.998 -0.2679 -0.8047 -0.2406
  119MOL    H3238028   7.356   1.026   5.888  0.7160 -1.0783 -2.8010
  119MOL    H3338029   7.396   0.885   5.986  0.8219  1.1193 -0.7592
  119MOL    C3438030   7.601   0.762   5.642  1.0809  0.4855 -0.2258
  119MOL    C3538031   7.695   0.869   5.702  0.4309 -0.0149 -0.5036
  119MOL    O3638032   7.763   0.801   5.805  0.1084 -0.2018  0.6223
  119MOL    C3738033   7.799   0.875   5.917 -1.1487  0.4649 -0.3344
  119MOL    C3838034   7.683   0.897   6.012  0.1113 -0.5105  0.2500
  119MOL    C3938035   0.096   0.805   5.982 -0.0018 -0.2173 -0.3742
  119MOL    H4038036   7.554   0.794   5.550  0.0731 -1.5954 -0.4741
  119MOL    H4138037   7.655   0.669   5.621  1.8055  1.0211 -0.7455
  119MOL    H4238038   7.641   0.949   5.752 -2.0155 -2.0941  0.2836
  119MOL    H4338039   0.017   0.972   5.886 -0.4065  0.2981  0.0590
  119MOL    H4438040   7.641   0.804   6.048  1.7215 -0.6929  1.6739
  119MOL    H4538041   7.611   0.975   5.985  1.8130 -0.3675 -4.3235
  119MOL    H4638042   7.722   0.933   6.107  1.6411  0.5040 -0.7260
  119MOL    H4738043   0.061   0.720   6.042 -1.6954  0.2120 -0.7166
  119MOL    H4838044   0.165   0.762   5.910  0.6035 -2.0042  1.2244
  119MOL    H4938045   0.143   0.881   6.045 -0.0900 -0.0735 -0.4811
  119MOL    C5038046   7.801   0.912   5.598  0.5970  0.2871 -0.6748
  119MOL    C5138047   7.762   1.053   5.534 -0.4113 -0.6992 -0.5576
  119MOL    O5238048   7.658   1.020   5.445  0.0971 -0.2583  0.4239
  119MOL    C5338049   7.575   1.130   5.408  0.2950  0.0824  0.2333
  119MOL    C5438050   7.464   1.146   5.518  0.1141 -0.5133  0.0076
  119MOL    C5538051   7.514   1.104   5.272 -0.7542  0.3805 -0.2521
  119MOL    H5638052   0.068   0.923   5.662 -0.3378  1.2179  0.4512
  119MOL    H5738053   7.819   0.847   5.512 -0.5208  2.1882 -2.4111
  119MOL    H5838054   7.722   1.127   5.603  2.0384  0.1259  0.0241
  119MOL    H5938055   7.634   1.222   5.403 -0.4367  0.5140 -0.6275
  119MOL    H6038056   7.423   1.048   5.545 -1.3960  0.4153  1.1588
  119MOL    H6138057   7.381   1.214   5.502  1.1297  0.8534  0.4024
  119MOL    H6238058   7.516   1.189   5.604 -1.9072  1.1167  0.4476
  119MOL    H6338059   7.414   1.146   5.259 -1.2519 -1.0451 -1.1572
  119MOL    H6438060   7.489   0.999   5.256 -1.1802 -0.0579  3.0641
  119MOL    H6538061   7.571   1.133   5.183  2.9812 -0.9620  1.6114
  119MOL    C6638062   0.063   1.112   5.453  0.6475 -0.1763  0.4439
  119MOL    C6738063   0.176   1.173   5.542  0.2922 -0.3011  0.0214
  119MOL    O6838064   0.128   1.306   5.585  0.0008  0.4873 -0.1872
  119MOL    C6938065   0.156   1.340   5.723  0.4698 -0.0418 -0.4767
  119MOL    C7038066   0.195   1.487   5.720  0.1783  0.4005 -0.5885
  119MOL    C7138067   0.044   1.312   5.819  0.2133 -0.2103 -1.2091
  119MOL    H7238068   0.101   1.036   5.384 -0.7117 -0.3113 -0.1840
  119MOL    H7338069   0.023   1.188   5.385  1.5852 -0.1831 -0.1331
  119MOL    H7438070   0.185   1.103   5.626  0.1352 -0.8234 -0.3902
  119MOL    H7538071   0.248   1.285   5.746 -0.2774 -0.9754  0.3404
  119MOL    H7638072   0.287   1.507   5.665  0.0686  0.6205 -0.6919
  119MOL    H7738073   0.113   1.551   5.689 -0.2966 -1.0266 -2.3485
  119MOL    H7838074   0.204   1.511   5.826  2.4549  0.6552 -0.8021
  119MOL    H7938075   7.777   1.377   5.810  2.1533  2.3382 -2.1897
  119MOL    H8038076   0.088   1.339   5.915 -0.7590 -0.1922 -0.7530
  119MOL    H8138077   0.020   1.206   5.822  1.8511 -0.5661 -0.0467
  119MOL    C8238078   0.299   1.199   5.461 -0.1129 -0.4402  0.0944
  119MOL    C8338079   0.407   1.110   5.505 -0.2909 -0.0836  0.0424
  119MOL    O8438080   0.367   0.975   5.511 -0.3419  0.3757 -0.0549
  119MOL    C8538081   0.444   0.876   5.573  0.7689  0.7456 -0.0607
  119MOL    C8638082   0.350   0.760   5.582 -0.4396  0.1570  0.2670
  119MOL    C8738083   0.498   0.913   5.709  0.1860  0.1422 -0.1976
  119MOL    H8838084   0.283   1.204   5.354  0.0546 -1.2155  0.0339
  119MOL    H8938085   0.321   1.303   5.487 -1.1890 -0.5038  1.3773
  119MOL    H9038086   0.432   1.135   5.608 -0.8705 -0.1073  0.1906
  119MOL    H9138087   0.527   0.850   5.508 -0.0046 -0.6023 -0.5242
  119MOL    H9238088   0.306   0.726   5.488  0.7395  0.8481 -0.5624
  119MOL    H9338089   0.406   0.670   5.607 -0.4088  0.8387  2.7654
  119MOL    H9438090   0.284   0.775   5.667  0.4275  2.3189  0.6045
  119MOL    H9538091   0.433   0.958   5.783  1.2605 -1.1505  1.5735
  119MOL    H9638092   0.531   0.823   5.761  1.0709  1.4734  1.6270
  119MOL    H9738093   0.584   0.977   5.691  0.0782 -0.0568 -1.4653
  119MOL    C9838094   0.527   1.119   5.404  0.6611  0.7268  0.0257
  119MOL    C9938095   0.600   1.255   5.397 -0.3642  0.0095  0.3541
  119MOL   O10038096   0.680   1.259   5.279 -0.1802  0.3088 -0.3511
  119MOL   C10138097   0.615   1.293   5.152 -0.2185 -0.0202 -0.5286
  119MOL   C10238098   0.635   1.167   5.064 -0.6442 -0.0079 -0.7436
  119MOL   C10338099   0.689   1.416   5.092  0.2050 -0.5146  0.2625
  119MOL   H10438100   0.601   1.048   5.439 -1.7069 -1.5119  0.6662
  119MOL   H10538101   0.480   1.092   5.310 -0.5839 -0.2696  0.9100
  119MOL   H10638102   0.532   1.338   5.379  1.8606  1.7566 -0.1997
  119MOL   H10738103   0.511   1.324   5.160  0.5539  3.1870 -1.9427
  119MOL   H10838104   0.631   1.189   4.958 -0.7638  0.6526 -0.6064
  119MOL   H10938105   0.558   1.093   5.086  0.8785 -1.3893  0.0299
  119MOL   H11038106   0.735   1.131   5.089 -0.7512 -0.4871 -1.0090
  119MOL   H11138107   0.703   1.498   5.163 -0.2513  0.6470 -0.9612
  119MOL   H11238108   0.629   1.450   5.007  0.6639  2.2282  0.9807
  119MOL   H11338109   0.788   1.394   5.052  0.3987  1.5687 -0.4916
  119MOL   C11438110   0.681   1.283   5.520 -0.1046  0.5641  0.7286
  119MOL   C11538111   0.734   1.421   5.541 -0.3169  0.5413  0.6956
  119MOL   O11638112   0.625   1.508   5.567 -0.5349  0.4483  0.2722
  119MOL   C11738113   0.636   1.656   5.558  0.3422  0.6579  0.4396
  119MOL   C11838114   0.510   1.716   5.628 -0.5050 -0.4091  0.1090
  119MOL   C11938115   0.649   1.705   5.412  0.3624  0.7728 -0.9851
  119MOL   H12038116   0.767   1.215   5.519  0.0593  0.7718  0.2157
  119MOL   H12138117   0.625   1.262   5.610 -0.2993  1.7813  0.8897
  119MOL   H12238118   0.785   1.455   5.451 -1.7766  1.0244  0.0504
  119MOL   H12338119   0.714   1.685   5.629 -2.3860 -1.0637  4.3489
  119MOL   H12438120   0.417   1.711   5.571 -0.4217 -1.5550  0.0507
  119MOL   H12538121   0.541   1.820   5.640 -1.4483 -0.3414  2.2042
  119MOL   H12638122   0.486   1.675   5.727  0.3679 -0.1221  0.4391
  119MOL   H12738123   0.649   1.814   5.414 -1.2373  0.8839 -4.2231
  119MOL   H12838124   0.566   1.668   5.352  0.2235 -0.0087 -0.3126
  119MOL   H12938125   0.744   1.674   5.370  0.4891 -2.5216  1.5579
  119MOL   C13038126   0.842   1.420   5.653 -0.2560  0.1092  0.0026
  119MOL   C13138127   0.982   1.468   5.610  0.4472  1.0762  0.1837
  119MOL   O13238128   1.073   1.435   5.705 -0.0099  0.0555 -0.1992
  119MOL   C13338129   1.131   1.309   5.711  0.4880  0.7756 -0.3218
  119MOL   C13438130   1.233   1.282   5.596 -0.2444  0.2151  0.0925
  119MOL   C13538131   1.195   1.279   5.847 -0.0338 -0.7317  0.7800
  119MOL   H13638132   0.847   1.318   5.692  2.2546  0.1842 -0.0499
  119MOL   H13738133   0.812   1.476   5.741 -2.3941 -0.3911 -0.3724
  119MOL   H13838134   1.004   1.415   5.518 -4.8131  1.2040 -1.3000
  119MOL   H13938135   1.053   1.233   5.704 -0.5448  1.5596  1.9749
  119MOL   H14038136   1.313   1.355   5.592  0.8641 -0.8837  1.7892
  119MOL   H14138137   1.183   1.278   5.499  0.1449  2.0233 -0.1996
  119MOL   H14238138   1.278   1.184   5.608 -1.7351 -0.4152  0.6772
  119MOL   H14338139   1.132   1.303   5.933 -2.6594 -2.4000 -0.6246
  119MOL   H14438140   1.228   1.175   5.855  0.0602 -0.7614 -0.0090
  119MOL   H14538141   1.286   1.339   5.845  1.2921 -2.6596  1.7845
  119MOL   C14638142   0.982   1.619   5.585  0.1710  0.5423 -0.2250
  119MOL   C14738143   1.118   1.685   5.555  0.0107  0.0897 -0.4208
  119MOL   O14838144   1.129   1.703   5.419 -0.4067  0.2335 -0.2599
  119MOL   C14938145   1.160   1.587   5.340  0.9384  0.2274  0.2369
  119MOL   C15038146   1.312   1.575   5.336  0.1422  0.3194 -0.4463
  119MOL   C15138147   1.095   1.614   5.200 -0.5729  0.3032  0.4029
  119MOL   H15238148   0.949   1.663   5.679 -0.0695 -0.5247  0.1911
  119MOL   H15338149   0.906   1.654   5.515  0.7378  0.3670 -0.9289
  119MOL   H15438150   1.202   1.625   5.587  1.1557  2.1561  0.5279
  119MOL   H15538151   1.128   1.487   5.366 -1.0096  0.5427 -0.8281
  119MOL   H15638152   1.358   1.667   5.300 -2.1880  1.7538  0.1472
  119MOL   H15738153   1.348   1.488   5.280  0.3585 -1.2873  2.0972
  119MOL   H15838154   1.342   1.554   5.439 -1.0806  1.5422  0.1731
  119MOL   H15938155   1.142   1.698   5.150 -0.1540 -1.7338 -2.7674
  119MOL   H16038156   0.989   1.635   5.212 -0.6645 -0.6329  1.3295
  119MOL   H16138157   1.102   1.527   5.135 -0.3652  1.0292 -0.5481
  119MOL   C16238158   1.138   1.823   5.616 -0.3085 -0.1160 -0.6953
  119MOL   C16338159   1.276   1.891   5.593 -0.0075 -0.6797 -0.4375
  119MOL   O16438160   1.387   1.798   5.611  0.5359  0.1903  0.4398
  119MOL   C16538161   1.418   1.753   5.744 -0.1338  0.1668 -0.5034
  119MOL   C16638162   1.536   1.830   5.810 -0.6413  0.3271 -0.3931
  119MOL   C16738163   1.449   1.608   5.738 -0.4336  0.2049 -0.0256
  119MOL   H16838164   1.056   1.884   5.577 -0.2627 -0.7377 -1.8036
  119MOL   H16938165   1.122   1.824   5.723  0.2005 -1.2581 -0.6069
  119MOL   H17038166   1.292   1.971   5.665 -0.0609  0.1204 -1.3155
  119MOL   H17138167   1.328   1.780   5.800 -0.0811  0.2652 -0.4670
  119MOL   H17238168   1.633   1.821   5.761 -0.5778 -0.0213 -0.2061
  119MOL   H17338169   1.553   1.788   5.909 -0.6960  1.5468  0.1361
  119MOL   H17438170   1.512   1.936   5.815 -2.0927 -0.0514  1.0239
  119MOL   H17538171   1.462   1.550   5.829 -0.2314  0.4053  0.0751
  119MOL   H17638172   1.542   1.584   5.687 -0.5912 -0.2207 -0.1097
  119MOL   H17738173   1.374   1.562   5.674  0.7883 -1.0590 -0.5559
  119MOL   C17838174   1.289   1.965   5.464  0.2078 -0.1130 -0.5900
  119MOL   C17938175   1.420   2.049   5.447  0.9293  0.4579 -1.1558
  119MOL   O18038176   1.402   2.118   5.323 -0.0354 -0.0468  0.0441
  119MOL   C18138177   1.385   2.064   5.194  0.2270 -0.1560 -0.6054
  119MOL   C18238178   1.525   2.027   5.137 -0.7683  0.1805  0.0203
  119MOL   C18338179   1.311   2.179   5.124  0.2870 -0.1256  0.2458
  119MOL   H18438180   1.212   2.037   5.439  1.7611  1.3163 -1.3668
  119MOL   H18538181   1.289   1.890   5.384  0.9729  1.1683 -1.8106
  119MOL   H18638182   1.506   1.982   5.446  1.2058  0.8045 -0.7924
  119MOL   H18738183   1.328   1.971   5.189 -1.6552  0.8377  1.4086
  119MOL   H18838184   1.573   1.951   5.198 -0.6805 -0.6111 -1.0233
  119MOL   H18938185   1.594   2.111   5.145 -1.9422  1.3624 -1.9970
  119MOL   H19038186   1.527   1.983   5.038  0.0484 -1.7944  0.8893
  119MOL   H19138187   1.273   2.138   5.031  3.2336  0.6537 -1.3572
  119MOL   H19238188   1.375   2.267   5.116  2.4985 -1.9019 -2.5180
  119MOL   H19338189   1.224   2.201   5.187  0.6657 -0.9113  1.0401
  119MOL   C19438190   1.443   2.164   5.554  0.1136 -0.4323  0.0992
  119MOL   C19538191   1.577   2.240   5.535  0.6042  0.4875  0.2978
  119MOL   O19638192   1.681   2.151   5.573  1.1440 -0.0576  0.4864
  119MOL   C19738193   1.779   2.119   5.469 -0.1521 -0.5053  0.0310
  119MOL   C19838194   1.874   2.242   5.442 -0.0460  0.8205 -0.5652
  119MOL   C19938195   1.864   2.004   5.534 -0.4874 -0.4056  0.3295
  119MOL   H20038196   1.358   2.231   5.561  1.1334  0.7981  0.9115
  119MOL   H20138197   1.455   2.118   5.652 -0.2616 -0.8997 -0.0772
  119MOL   H20238198   1.593   2.279   5.435  0.9176  2.2998  1.0480
  119MOL   H20338199   1.741   2.087   5.372 -0.4922  1.4815 -0.5129
  119MOL   H20438200   1.894   2.236   5.335  0.5423  1.2691 -0.4877
  119MOL   H20538201   1.815   2.332   5.460 -0.8998  0.0062  0.8136
  119MOL   H20638202   1.962   2.255   5.505 -0.1099  1.8610 -0.6787
  119MOL   H20738203   1.961   2.001   5.483  1.4364  1.5070  3.6942
  119MOL   H20838204   1.880   2.018   5.641 -1.7156 -0.2718  0.4973
  119MOL   H20938205   1.825   1.904   5.517  0.2705 -0.9079  1.4922
  119MOL   C21038206   1.597   2.361   5.630  0.3592 -0.5334  0.6673
  119MOL   C21138207   1.507   2.487   5.601 -1.0548 -1.0107  0.0769
  119MOL   O21238208   1.484   2.564   5.712  0.1880  0.6238 -0.1401
  119MOL   C21338209   1.381   2.516   5.806 -0.3802  0.3682 -0.3224
  119MOL   C21438210   1.440   2.538   5.943 -0.0057 -0.4692  0.1107
  119MOL   C21538211   1.251   2.601   5.794  0.4825  0.1047  0.3682
  119MOL   H21638212   1.702   2.389   5.631  0.2359 -0.0632  0.4470
  119MOL   H21738213   1.582   2.336   5.735 -0.1146 -4.2412 -0.2092
  119MOL   H21838214   1.415   2.443   5.562 -0.2989 -1.9724 -0.6245
  119MOL   H21938215   1.353   2.411   5.791 -0.4733  0.3155  0.2335
  119MOL   H22038216   1.373   2.518   6.026 -0.9421 -0.6912 -0.6960
  119MOL   H22138217   1.458   2.646   5.941  0.9418 -0.6282 -0.1088
  119MOL   H22238218   1.538   2.490   5.953 -0.0046 -0.1155  1.8255
  119MOL   H22338219   1.278   2.707   5.788 -1.2279  0.5370 -0.1261
  119MOL   H22438220   1.176   2.602   5.873 -0.0711  0.6911 -0.1507
  119MOL   H22538221   1.190   2.585   5.705  0.2125  1.0765  0.3730
  119MOL   C22638222   1.566   2.583   5.492  0.0862  0.3208 -0.6349
  119MOL   C22738223   1.464   2.675   5.425 -0.9188 -0.4084  0.7634
  119MOL   O22838224   1.397   2.578   5.341  0.8011  0.2466  0.3975
  119MOL   C22938225   1.256   2.610   5.308  0.2589 -0.3029 -0.1560
  119MOL   C23038226   1.166   2.505   5.364  0.5795  0.0429 -0.1456
  119MOL   C23138227   1.241   2.615   5.154 -0.1519  0.1479 -0.1703
  119MOL   H23238228   1.611   2.518   5.417  0.9662  1.1497 -0.8290
  119MOL   H23338229   1.643   2.641   5.544  1.6505 -1.3827 -0.9905
  119MOL   H23438230   1.400   2.729   5.494 -0.0901  2.9824 -0.9795
  119MOL   H23538231   1.221   2.702   5.355 -1.0941 -1.6642  1.5716
  119MOL   H23638232   1.181   2.488   5.471 -2.0051  1.5675  0.5289
  119MOL   H23738233   1.061   2.531   5.349  0.3368 -0.0127  1.3617
  119MOL   H23838234   1.166   2.407   5.318 -1.7000 -0.7489  1.4260
  119MOL   H23938235   1.318   2.677   5.109 -1.5975  0.6079 -2.0615
  119MOL   H24038236   1.138   2.643   5.130 -0.3751 -1.5768 -1.3219
  119MOL   H24138237   1.249   2.515   5.111 -2.4944 -0.7448  1.3804
  119MOL   C24238238   1.532   2.774   5.329 -0.3028  0.1192  0.7532
  119MOL   C24338239   1.580   2.893   5.405  0.5289 -0.2294  0.6157
  119MOL   O24438240   1.466   2.966   5.453 -0.0994 -0.3379  0.2628
  119MOL   C24538241   1.482   3.026   5.581 -0.4421  0.5617  0.5384
  119MOL   C24638242   1.380   3.143   5.591  0.2283 -0.0234  0.3366
  119MOL   C24738243   1.459   2.917   5.688 -0.7175 -0.1238  0.0602
  119MOL   H24838244   1.608   2.729   5.265 -0.0865  0.1275  1.0064
  119MOL   H24938245   1.469   2.812   5.248  0.4563 -1.1635 -0.4511
  119MOL   H25038246   1.649   2.856   5.481  0.2510 -1.0257  0.4791
  119MOL   H25138247   1.584   3.064   5.589 -0.3517  0.7671 -1.3752
  119MOL   H25238248   1.293   3.110   5.534  0.7305  1.4325 -1.3291
  119MOL   H25338249   1.358   3.155   5.697 -0.1224 -1.9480  0.5017
  119MOL   H25438250   1.420   3.236   5.550  0.8081 -0.1563  0.5881
  119MOL   H25538251   1.513   2.824   5.669  1.7547  1.1826  0.5277
  119MOL   H25638252   1.465   2.941   5.794  1.4150  2.7308 -0.6455
  119MOL   H25738253   1.355   2.888   5.679 -0.4643 -1.0932  0.1622
  119MOL   C25838254   1.648   2.991   5.308  0.0539 -0.2667  0.0221
  119MOL   C25938255   1.786   2.945   5.253 -0.2466 -0.5056  0.7096
  119MOL   O26038256   1.869   2.918   5.364 -0.0377  0.0439 -0.4153
  119MOL   C26138257   1.914   2.784   5.372  0.0759 -0.1654  0.5370
  119MOL   C26238258   2.030   2.750   5.282  0.5194 -0.5966 -0.5948
  119MOL   C26338259   1.949   2.760   5.518 -0.9416 -0.1396  0.2165
  119MOL   H26438260   1.574   3.010   5.230  0.4296  1.8082  0.1495
  119MOL   H26538261   1.657   3.086   5.360  2.0397  1.2102 -2.9124
  119MOL   H26638262   1.771   2.857   5.191  1.3306  1.0431 -1.9573
  119MOL   H26738263   1.829   2.716   5.359 -0.1832  0.0758  0.9385
  119MOL   H26838264   1.997   2.753   5.178  0.7504 -0.0713 -0.6529
  119MOL   H26938265   2.056   2.646   5.303  3.0229 -0.3470 -2.2666
  119MOL   H27038266   2.109   2.824   5.297 -0.8004  1.0872 -1.7373
  119MOL   H27138267   1.950   2.652   5.532 -1.2087 -0.5552 -2.6690
  119MOL   H27238268   2.042   2.809   5.550  0.6223 -0.4823 -3.5277
  119MOL   H27338269   1.864   2.776   5.583 -1.2163 -1.9460  0.3291
  119MOL   C27438270   1.850   3.050   5.164 -0.6193 -0.2419  0.4765
  119MOL   C27538271   1.915   3.178   5.232  0.8947  0.1919  0.3726
  119MOL   O27638272   2.030   3.219   5.155  0.2226  0.5953 -0.0519
  119MOL   C27738273   2.142   3.157   5.195  0.1305  0.2768  0.0198
  119MOL   C27838274   2.213   3.216   5.316  0.1008  0.4041 -0.4724
  119MOL   C27938275   2.244   3.151   5.077  0.3195  0.5514  0.0179
  119MOL   H28038276   1.922   2.988   5.109 -0.5919  0.2793 -0.0824
  119MOL   H28138277   1.780   3.080   5.086 -0.9509  0.4613  1.0480
  119MOL   H28238278   1.928   3.158   5.338  0.2053 -2.4812 -0.0009
  119MOL   H28338279   2.109   3.055   5.216 -0.2970  0.6565  1.2718
  119MOL   H28438280   2.155   3.224   5.408 -2.3104  0.3444 -1.9694
  119MOL   H28538281   2.306   3.160   5.331 -0.6295 -0.4068  1.2411
  119MOL   H28638282   2.245   3.316   5.289  0.2435  0.4480 -0.1499
  119MOL   H28738283   2.207   3.106   4.984 -1.2481  0.9400  0.4258
  119MOL   H28838284   2.334   3.094   5.098  0.9042  1.0474 -1.1095
  119MOL   H28938285   2.280   3.249   5.045  2.2338  0.1528  0.8836
  119MOL   C29038286   1.820   3.298   5.225 -0.0185 -0.0410  0.0743
  119MOL   C29138287   1.868   3.415   5.316  0.2243  0.3422  0.1486
  119MOL   O29238288   1.818   3.532   5.254  0.5962  0.2759 -0.0703
  119MOL   C29338289   1.913   3.607   5.180  0.0831 -0.3286 -0.2823
  119MOL   C29438290   2.002   3.682   5.277  0.4743  0.3902 -0.9522
  119MOL   C29538291   1.823   3.700   5.097  0.5803 -0.0264 -0.2316
  119MOL   H29638292   1.715   3.277   5.245  0.2926 -0.7985  0.9671
  119MOL   H29738293   1.822   3.319   5.118 -0.2492 -0.5132 -0.0276
  119MOL   H29838294   1.977   3.414   5.313  0.2754 -2.7460  0.5343
  119MOL   H29938295   1.962   3.528   5.123  0.4943  0.6599 -1.3268
  119MOL   H30038296   2.053   3.617   5.349 -1.1968  0.1060  0.0021
  119MOL   H30138297   2.084   3.724   5.219  0.6054 -0.1627 -1.1657
  119MOL   H30238298   1.955   3.765   5.330  1.6345  0.4005  0.0872
  119MOL   H30338299   1.757   3.653   5.023  2.7578 -0.8958 -1.6862
  119MOL   H30438300   1.765   3.746   5.177 -0.1655 -0.8699 -0.2731
  119MOL   H30538301   1.880   3.780   5.049  1.9396 -0.7150  0.2184
  119MOL   C30638302   1.797   3.397   5.451  0.4133  0.2220 -0.6344
  119MOL   C30738303   1.848   3.489   5.565  0.1606  0.3163  0.0793
  119MOL   O30838304   1.980   3.456   5.588  0.3548  0.0944  0.0301
  119MOL   C30938305   2.042   3.533   5.689  0.0189  0.5683 -0.4995
  119MOL   C31038306   1.998   3.499   5.834 -0.1160  0.5167  0.4289
  119MOL   C31138307   2.192   3.516   5.660 -0.0726 -0.0050 -0.2294
  119MOL   H31238308   1.796   3.293   5.483 -0.4442 -0.0246 -1.4435
  119MOL   H31338309   1.690   3.414   5.437  0.6822  0.7360 -2.2400
  119MOL   H31438310   1.828   3.592   5.537  0.4703  0.0794 -1.0284
  119MOL   H31538311   2.006   3.635   5.673 -2.9998 -0.0421  1.7933
  119MOL   H31638312   1.998   3.391   5.851  0.4020  0.5855  0.8660
  119MOL   H31738313   1.897   3.535   5.856 -0.5644 -0.7596  0.5102
  119MOL   H31838314   2.064   3.544   5.907  0.8152  2.5479 -1.5916
  119MOL   H31938315   2.246   3.533   5.753 -0.9145 -0.9396  0.4455
  119MOL   H32038316   2.230   3.581   5.581  1.2697 -1.0642 -0.4798
  119MOL   H32138317   2.209   3.411   5.633 -1.5907  0.4668 -3.2117
  119MOL   H32238318   1.794   3.462   5.655  0.4146 -0.2614  0.0614
  120MOL     C138319   2.016   6.108   3.609  0.5925  0.0562  0.9154
  120MOL     C238320   1.922   6.108   3.482 -0.3991 -0.1528 -0.4119
  120MOL     O338321   1.999   6.101   3.363 -0.2366  0.6562 -0.2038
  120MOL     C438322   2.049   6.225   3.318  0.0879 -0.3397 -0.0666
  120MOL     C538323   1.940   6.276   3.230 -0.0123 -0.4842  0.1304
  120MOL     C638324   2.176   6.187   3.240 -0.5187 -0.6277 -1.1703
  120MOL     H738325   1.971   6.128   3.706  0.2327 -2.6483  1.3318
  120MOL     H838326   2.054   6.006   3.609 -0.6290 -0.4126  0.0669
  120MOL     H938327   1.865   6.201   3.484 -0.8574 -0.4365  2.6691
  120MOL    H1038328   2.080   6.287   3.402  0.1326 -2.1302  1.2710
  120MOL    H1138329   1.930   6.213   3.142  1.8376 -2.0056  0.9721
  120MOL    H1238330   1.846   6.298   3.280 -0.3084  0.0303 -0.6492
  120MOL    H1338331   1.971   6.375   3.195  0.6812 -1.1212 -1.0694
  120MOL    H1438332   2.160   6.167   3.134 -2.0082  2.7033 -1.6462
  120MOL    H1538333   2.242   6.273   3.237 -1.5421  0.2493  0.4141
  120MOL    H1638334   2.222   6.098   3.282 -0.9889 -0.3255  0.0143
  120MOL    H1738335   2.096   6.181   3.598 -1.1570  1.8147 -0.4838
  120MOL    C1838336   1.825   5.988   3.490  0.2880  0.5909  0.7210
  120MOL    C1938337   1.693   6.003   3.567  0.0674 -0.0041 -0.2460
  120MOL    O2038338   1.720   6.048   3.698  0.2222 -0.0592 -0.6469
  120MOL    C2138339   1.620   6.138   3.749 -0.2397 -0.1102 -0.7414
  120MOL    C2238340   1.701   6.245   3.824 -0.1252  0.3063  0.0406
  120MOL    C2338341   1.516   6.068   3.833  0.3054 -0.0452 -0.5841
  120MOL    H2438342   1.794   5.971   3.387  0.3701 -1.8488  1.0714
  120MOL    H2538343   1.875   5.902   3.534  2.9641  1.1181 -1.1386
  120MOL    H2638344   1.635   6.079   3.514 -0.2669 -0.4489 -0.5233
  120MOL    H2738345   1.567   6.199   3.676 -0.0553  3.1638  1.7456
  120MOL    H2838346   1.648   6.315   3.888 -0.8896 -0.1001 -0.1420
  120MOL    H2938347   1.765   6.198   3.898  1.3342 -0.1298 -1.4606
  120MOL    H3038348   1.753   6.306   3.749  2.6431 -0.6805  1.0863
  120MOL    H3138349   1.437   6.021   3.774  0.6080  1.7221 -2.4749
  120MOL    H3238350   1.471   6.143   3.898  2.0993  1.1781 -0.7362
  120MOL    H3338351   1.561   5.986   3.889 -0.3927 -1.3734 -1.9402
  120MOL    C3438352   1.609   5.877   3.560 -0.0510  0.6915 -0.2799
  120MOL    C3538353   1.535   5.867   3.422 -0.3021  0.2073  0.3054
  120MOL    O3638354   1.508   5.728   3.392 -0.0813  0.1367  0.5556
  120MOL    C3738355   1.618   5.650   3.348 -0.2655  0.9472  0.5451
  120MOL    C3838356   1.651   5.549   3.460  0.6396  0.6235 -0.0620
  120MOL    C3938357   1.580   5.572   3.227  0.8312 -0.0944  0.4050
  120MOL    H4038358   1.531   5.863   3.635  1.5176  1.7088  1.6147
  120MOL    H4138359   1.676   5.799   3.595 -0.0276 -0.0234 -1.8867
  120MOL    H4238360   1.591   5.913   3.341  1.6480 -0.8616  1.0149
  120MOL    H4338361   1.705   5.706   3.312  0.1090  0.0195 -0.0034
  120MOL    H4438362   1.562   5.508   3.507 -0.7967  1.4248 -2.0120
  120MOL    H4538363   1.714   5.597   3.534  0.6559 -1.7575  1.5354
  120MOL    H4638364   1.715   5.470   3.420 -0.0890  0.2706 -0.5333
  120MOL    H4738365   1.637   5.484   3.196  1.6547  0.6951 -0.3440
  120MOL    H4838366   1.487   5.525   3.258  0.6660  0.4275  0.7113
  120MOL    H4938367   1.564   5.641   3.145  0.7432 -1.4218 -0.7104
  120MOL    C5038368   1.401   5.935   3.416  0.7800 -0.5692 -0.0722
  120MOL    C5138369   1.376   6.001   3.283 -0.1085 -0.0595 -0.0151
  120MOL    O5238370   1.440   6.126   3.264 -0.8922 -0.6144 -0.5870
  120MOL    C5338371   1.467   6.156   3.130 -0.7000 -0.6121  0.0287
  120MOL    C5438372   1.602   6.100   3.086  0.4939 -0.4028  0.3017
  120MOL    C5538373   1.446   6.312   3.101 -0.3919 -0.5411  0.4425
  120MOL    H5638374   1.320   5.867   3.443  0.9943 -1.6579 -2.0690
  120MOL    H5738375   1.400   6.015   3.491  1.5177 -1.8087  1.2800
  120MOL    H5838376   1.412   5.924   3.215  0.0165 -0.0964  0.0926
  120MOL    H5938377   1.389   6.108   3.072 -0.9006 -2.4421  1.7560
  120MOL    H6038378   1.608   6.107   2.977  1.1871 -1.5056  0.2593
  120MOL    H6138379   1.609   5.995   3.113  3.0331  0.0069  1.3597
  120MOL    H6238380   1.683   6.157   3.131 -1.6445  0.9473  2.5346
  120MOL    H6338381   1.459   6.317   2.993 -0.1197  1.2027  0.5325
  120MOL    H6438382   1.522   6.370   3.154 -2.1450  1.4666  0.8486
  120MOL    H6538383   1.349   6.359   3.120  0.2319  0.0462  2.2580
  120MOL    C6638384   1.221   6.016   3.248 -0.4006 -0.3648 -0.3786
  120MOL    C6738385   1.143   5.884   3.233 -0.2979  0.4401  0.1745
  120MOL    O6838386   1.162   5.844   3.097  0.2356 -0.4997  0.6945
  120MOL    C6938387   1.261   5.752   3.057 -0.2394 -0.2156 -0.2740
  120MOL    C7038388   1.185   5.622   3.029  0.5475 -0.5433 -0.0440
  120MOL    C7138389   1.324   5.805   2.928 -0.3176 -0.3172  0.1218
  120MOL    H7238390   1.167   6.076   3.320 -0.9435  2.1535 -2.7993
  120MOL    H7338391   1.219   6.068   3.152 -0.3691 -0.6974 -0.5618
  120MOL    H7438392   1.186   5.809   3.299 -1.0667  0.4105  0.6439
  120MOL    H7538393   1.339   5.737   3.131  0.4369  1.4760 -0.6214
  120MOL    H7638394   1.243   5.533   3.005  0.4263 -0.8433  0.7414
  120MOL    H7738395   1.142   5.589   3.124 -0.1526 -0.4171 -0.3173
  120MOL    H7838396   1.095   5.638   2.970  0.3510 -0.9349  0.1500
  120MOL    H7938397   1.384   5.895   2.943 -2.4789  1.1742  0.0762
  120MOL    H8038398   1.256   5.827   2.846  1.9356 -0.2988 -1.7599
  120MOL    H8138399   1.384   5.726   2.884 -3.4585 -3.1853  0.7211
  120MOL    C8238400   0.998   5.894   3.269  0.7730  0.0090  0.3298
  120MOL    C8338401   0.984   5.909   3.423  0.2921  0.3318 -1.0968
  120MOL    O8438402   0.861   5.988   3.451 -0.5680  0.7921 -0.2561
  120MOL    C8538403   0.872   6.129   3.417 -0.0050  0.3088 -0.1119
  120MOL    C8638404   0.945   6.227   3.508 -0.1344  0.5859  0.2908
  120MOL    C8738405   0.720   6.168   3.406  0.3567  0.4146 -0.3061
  120MOL    H8838406   0.958   5.967   3.200 -1.0361  0.5109  1.8775
  120MOL    H8938407   0.952   5.799   3.242 -0.4024  0.5006  0.5755
  120MOL    H9038408   1.066   5.965   3.469 -0.0569  0.0661 -0.1362
  120MOL    H9138409   0.913   6.132   3.316  1.6546  1.1020  0.5735
  120MOL    H9238410   0.956   6.205   3.614 -2.0593  0.7380  0.5507
  120MOL    H9338411   1.043   6.248   3.466 -0.1669 -0.9406 -0.5556
  120MOL    H9438412   0.896   6.324   3.494 -1.3480  0.3118  2.4077
  120MOL    H9538413   0.669   6.106   3.332 -0.8627 -0.9729  1.6328
  120MOL    H9638414   0.672   6.149   3.502 -1.0054 -0.0651 -1.0645
  120MOL    H9738415   0.705   6.273   3.383 -0.8801 -0.0603 -1.8140
  120MOL    C9838416   0.983   5.771   3.488 -1.0310 -0.1522 -0.1427
  120MOL    C9938417   0.990   5.769   3.641  0.4965 -0.2618  0.1395
  120MOL   O10038418   1.039   5.650   3.695 -0.2002  0.2596  0.1223
  120MOL   C10138419   1.165   5.662   3.764  0.7786 -0.0058 -1.4617
  120MOL   C10238420   1.279   5.644   3.668  0.0926  0.1477  0.4526
  120MOL   C10338421   1.162   5.556   3.872 -0.1187 -0.1386  0.1725
  120MOL   H10438422   0.908   5.698   3.456 -1.5459  0.6106 -0.6954
  120MOL   H10538423   1.064   5.713   3.444 -1.0212 -0.9297  0.8963
  120MOL   H10638424   1.054   5.853   3.668  1.6465 -1.0175 -0.1722
  120MOL   H10738425   1.183   5.757   3.814  0.0275  0.0288 -1.2486
  120MOL   H10838426   1.379   5.652   3.711  0.8690 -0.3813 -1.1912
  120MOL   H10938427   1.270   5.717   3.587 -1.1647 -1.0656 -0.5237
  120MOL   H11038428   1.279   5.546   3.621  1.1232  0.8203 -0.9984
  120MOL   H11138429   1.061   5.520   3.891 -0.0602 -1.0608 -1.2014
  120MOL   H11238430   1.205   5.591   3.966  0.6155 -1.2898  0.2832
  120MOL   H11338431   1.215   5.467   3.837 -1.6710 -0.8308 -0.4567
  120MOL   C11438432   0.849   5.791   3.697 -0.0972 -0.2890  0.5549
  120MOL   C11538433   0.851   5.816   3.851 -0.3069  0.5711 -0.3131
  120MOL   O11638434   0.880   5.957   3.862  0.1842  0.7982  0.0310
  120MOL   C11738435   0.986   5.988   3.953 -0.2181  0.7930  1.0981
  120MOL   C11838436   0.928   6.015   4.094 -0.2657  0.9592  0.0408
  120MOL   C11938437   1.044   6.120   3.898 -0.3864 -0.8387  0.1902
  120MOL   H12038438   0.782   5.708   3.673  0.1008 -0.5880  1.0294
  120MOL   H12138439   0.801   5.877   3.650  0.0542  0.0369  0.9985
  120MOL   H12238440   0.924   5.751   3.899 -0.9700 -0.9832 -1.3652
  120MOL   H12338441   1.056   5.906   3.941 -2.2329 -0.7132 -0.9052
  120MOL   H12438442   0.837   6.075   4.103 -0.0668  0.9260  2.7948
  120MOL   H12538443   1.015   6.050   4.149 -0.1186  1.1090 -0.2885
  120MOL   H12638444   0.885   5.925   4.138  1.2737 -0.3095 -1.0184
  120MOL   H12738445   0.966   6.195   3.885  1.0018  0.7023  0.6557
  120MOL   H12838446   1.096   6.110   3.803  1.1255  0.9831  0.7941
  120MOL   H12938447   1.118   6.169   3.962 -2.1869  0.8967  0.9994
  120MOL   C13038448   0.715   5.807   3.916  0.7308  0.9224  0.5995
  120MOL   C13138449   0.678   5.660   3.945 -0.6035  0.2540  0.3790
  120MOL   O13238450   0.615   5.618   3.831 -0.0561 -0.1635 -0.6158
  120MOL   C13338451   0.595   5.477   3.804  0.1665 -0.2668 -0.1026
  120MOL   C13438452   0.461   5.468   3.730  0.0743 -0.1444  0.2090
  120MOL   C13538453   0.709   5.413   3.719  0.1365 -1.2729  0.0576
  120MOL   H13638454   0.636   5.852   3.855  0.8425 -1.4244 -1.3332
  120MOL   H13738455   0.723   5.852   4.015  1.0414 -1.4092  1.6598
  120MOL   H13838456   0.770   5.609   3.973 -0.6299 -0.5775 -1.0102
  120MOL   H13938457   0.594   5.417   3.895 -1.0230 -1.4451 -0.8705
  120MOL   H14038458   0.389   5.512   3.799  2.8315  2.3704  1.5804
  120MOL   H14138459   0.424   5.373   3.690  1.1566 -1.1499  1.5771
  120MOL   H14238460   0.454   5.537   3.645 -0.6025 -0.2857  0.1396
  120MOL   H14338461   0.790   5.484   3.702  0.3935 -1.5898 -0.0321
  120MOL   H14438462   0.751   5.327   3.771 -0.2637 -0.9915  0.8592
  120MOL   H14538463   0.667   5.381   3.624  1.4616 -1.1345 -0.5817
  120MOL   C14638464   0.575   5.655   4.063 -0.0733  0.0190 -0.5532
  120MOL   C14738465   0.613   5.580   4.191  0.1784  0.3816 -0.0947
  120MOL   O14838466   0.736   5.638   4.225  0.7079  0.5504 -0.0109
  120MOL   C14938467   0.849   5.555   4.248 -0.1413  0.1288 -0.2619
  120MOL   C15038468   0.841   5.506   4.395  0.1319 -0.5981  0.2804
  120MOL   C15138469   0.967   5.640   4.210 -0.3507 -0.3349 -0.3302
  120MOL   H15238470   0.490   5.599   4.025 -0.7758  0.1325  0.8372
  120MOL   H15338471   0.524   5.749   4.084  0.7525  0.1259  1.0312
  120MOL   H15438472   0.630   5.481   4.149  0.0270  0.4173 -0.2388
  120MOL   H15538473   0.843   5.468   4.183  0.0542  1.8852 -2.6768
  120MOL   H15638474   0.858   5.592   4.459  1.3897 -1.4183  1.0523
  120MOL   H15738475   0.922   5.437   4.417 -1.7828 -2.5912  1.2625
  120MOL   H15838476   0.745   5.455   4.405 -0.3395  0.1355 -0.4312
  120MOL   H15938477   0.969   5.685   4.111  0.9026  0.4283  0.0337
  120MOL   H16038478   1.065   5.594   4.224 -0.1425 -0.1399 -1.1357
  120MOL   H16138479   0.971   5.730   4.272 -1.8275 -1.7788  1.9305
  120MOL   C16238480   0.510   5.590   4.302 -0.5994 -0.6674  0.4793
  120MOL   C16338481   0.393   5.499   4.265  0.1420  0.3304 -0.2612
  120MOL   O16438482   0.441   5.359   4.275  0.0995 -0.0074  0.0381
  120MOL   C16538483   0.462   5.284   4.153  0.3049 -0.0141 -0.1895
  120MOL   C16638484   0.331   5.202   4.127 -0.0527  0.0865  0.6904
  120MOL   C16738485   0.580   5.187   4.167 -0.1342  0.0355 -0.0385
  120MOL   H16838486   0.552   5.545   4.392  0.1988 -0.8799  0.0113
  120MOL   H16938487   0.477   5.692   4.318 -0.4502 -1.0454  3.5060
  120MOL   H17038488   0.338   5.533   4.177 -1.9479  6.0770  2.9993
  120MOL   H17138489   0.477   5.350   4.067 -0.5534  0.4421  0.0006
  120MOL   H17238490   0.238   5.259   4.116 -1.1036 -1.5184  1.1373
  120MOL   H17338491   0.303   5.150   4.218  0.5991  0.8277  1.3207
  120MOL   H17438492   0.349   5.131   4.047  1.2892  0.6851  0.4470
  120MOL   H17538493   0.558   5.094   4.221 -0.8888 -0.0162 -0.4326
  120MOL   H17638494   0.673   5.220   4.214  0.0154 -0.5643  0.1001
  120MOL   H17738495   0.601   5.171   4.061 -0.3974  0.7704 -0.2012
  120MOL   C17838496   0.285   5.477   4.374  0.1302 -0.0816  0.3095
  120MOL   C17938497   0.201   5.595   4.414  0.1974 -0.7114 -0.3617
  120MOL   O18038498   0.075   5.549   4.447  0.1565  0.0109  0.4018
  120MOL   C18138499   7.779   5.620   4.408 -0.0783 -0.7265 -0.3678
  120MOL   C18238500   7.679   5.621   4.524 -0.8970  0.2739 -0.0873
  120MOL   C18338501   7.715   5.584   4.282  0.7738  0.2636  0.3611
  120MOL   H18438502   0.336   5.446   4.465  0.0157  2.1146  1.1533
  120MOL   H18538503   0.224   5.396   4.335 -1.3816  0.5582  1.3370
  120MOL   H18638504   0.199   5.658   4.325 -2.4750 -0.8205 -0.4211
  120MOL   H18738505   7.806   5.726   4.398  0.3461 -0.8946 -1.0154
  120MOL   H18838506   7.633   5.523   4.537  0.3395 -0.3990 -0.6378
  120MOL   H18938507   7.609   5.703   4.511 -1.9373 -0.5554  0.2201
  120MOL   H19038508   7.734   5.658   4.611  2.2707  1.9019 -2.6882
  120MOL   H19138509   7.647   5.500   4.294  1.3978 -0.6911 -2.5774
  120MOL   H19238510   7.792   5.554   4.212 -0.8966  2.5512 -2.5766
  120MOL   H19338511   7.661   5.669   4.239  0.7518 -1.1291 -2.4764
  120MOL   C19438512   0.256   5.668   4.546 -0.1865  0.1651  0.0962
  120MOL   C19538513   0.244   5.827   4.537 -0.4008  0.0815 -0.3659
  120MOL   O19638514   0.336   5.861   4.431 -0.5446 -0.2756 -0.1501
  120MOL   C19738515   0.310   5.987   4.369  0.1431  0.3700  0.2154
  120MOL   C19838516   0.437   6.072   4.372  0.3153  0.5735  0.1378
  120MOL   C19938517   0.263   5.957   4.232  0.0066  0.0124  0.8600
  120MOL   H20038518   0.217   5.620   4.635  1.4259  0.7812  1.1628
  120MOL   H20138519   0.362   5.640   4.549 -0.6581 -1.8750 -1.4250
  120MOL   H20238520   0.137   5.849   4.525 -1.0100 -0.5406  3.3395
  120MOL   H20338521   0.222   6.040   4.407 -0.5755 -1.1011  0.6129
  120MOL   H20438522   0.420   6.164   4.316  0.5705  0.1285 -0.6952
  120MOL   H20538523   0.471   6.110   4.468 -2.2581  0.5143  1.0991
  120MOL   H20638524   0.520   6.032   4.313 -0.9651 -3.0468  0.6698
  120MOL   H20738525   0.162   5.916   4.240  0.2484 -0.9330 -0.7100
  120MOL   H20838526   0.267   6.047   4.171 -1.0358 -1.1448 -0.9734
  120MOL   H20938527   0.333   5.888   4.186 -0.9376 -0.6566  0.3883
  120MOL   C21038528   0.297   5.893   4.660 -0.0839  0.2804  0.0333
  120MOL   C21138529   0.191   5.887   4.775  0.1216 -0.1565  0.0738
  120MOL   O21238530   0.258   5.934   4.889  0.4906  0.0952 -0.5175
  120MOL   C21338531   0.260   5.828   4.992 -0.2437  0.1637 -0.5783
  120MOL   C21438532   0.359   5.722   4.957 -0.2209 -0.5608  0.6979
  120MOL   C21538533   0.305   5.888   5.127  0.2762 -0.1219 -0.0288
  120MOL   H21638534   0.333   5.995   4.645  0.3786  0.0585 -0.3846
  120MOL   H21738535   0.388   5.841   4.689 -0.4945 -0.0291  0.7680
  120MOL   H21838536   0.159   5.784   4.787  1.1548 -0.5996 -0.8681
  120MOL   H21938537   0.160   5.786   4.999 -1.4303  2.4766 -2.7291
  120MOL   H22038538   0.375   5.649   5.037  1.6357 -1.9545 -0.8708
  120MOL   H22138539   0.454   5.768   4.931 -0.7569  0.5884  0.7608
  120MOL   H22238540   0.315   5.676   4.869 -1.4257  1.8394  0.0239
  120MOL   H22338541   0.292   5.813   5.205  0.6013 -0.9596 -0.7651
  120MOL   H22438542   0.232   5.964   5.156  0.9275  0.7645 -0.6797
  120MOL   H22538543   0.406   5.925   5.137 -0.1572  0.5733  1.9809
  120MOL   C22638544   0.072   5.985   4.745 -0.6922 -1.0362  0.8125
  120MOL   C22738545   7.777   5.972   4.847  0.5217 -0.5889 -0.4269
  120MOL   O22838546   7.715   5.850   4.827 -0.1117 -0.0646 -0.0689
  120MOL   C22938547   7.692   5.770   4.941 -0.1164 -0.6999  0.5704
  120MOL   C23038548   7.702   5.631   4.882 -0.4293  0.3596  0.0306
  120MOL   C23138549   7.548   5.791   5.000  0.2064 -0.1784 -0.4121
  120MOL   H23238550   0.043   5.979   4.640  1.2631 -1.8610  0.2821
  120MOL   H23338551   0.115   6.085   4.749 -0.1263 -1.2282 -0.1642
  120MOL   H23438552   0.006   5.983   4.944 -2.8136 -0.8099  1.3489
  120MOL   H23538553   7.774   5.775   5.013  2.3102  1.4979 -2.2392
  120MOL   H23638554   7.627   5.622   4.804 -0.7288 -0.0984  0.3691
  120MOL   H23738555   7.797   5.627   4.830 -0.4058 -0.7339  0.1443
  120MOL   H23838556   7.699   5.546   4.951  0.4538 -0.1410 -0.5384
  120MOL   H23938557   7.519   5.714   5.070 -0.1470  0.7090  0.4335
  120MOL   H24038558   7.487   5.800   4.910  0.4338 -0.3298 -0.5841
  120MOL   H24138559   7.529   5.876   5.066  0.5793 -0.0809 -0.4245
  120MOL   C24238560   7.657   6.064   4.820  0.9553  0.3312 -0.5112
  120MOL   C24338561   7.678   6.215   4.835  0.0721  0.0704  0.3899
  120MOL   O24438562   7.640   6.265   4.964  0.0302 -0.7755  0.0421
  120MOL   C24538563   7.692   6.207   5.085  0.0002 -0.3056  0.7208
  120MOL   C24638564   0.021   6.246   5.096  0.5731 -0.7615 -0.1240
  120MOL   C24738565   7.614   6.257   5.206  0.0210  0.4758 -0.1163
  120MOL   H24838566   7.614   6.045   4.721 -0.5206 -2.0684  0.5562
  120MOL   H24938567   7.579   6.035   4.890  1.9103 -0.5044  0.2184
  120MOL   H25038568   7.784   6.239   4.828 -0.1101  0.6149 -0.5401
  120MOL   H25138569   7.687   6.099   5.078 -1.5768 -0.1537 -0.7828
  120MOL   H25238570   0.082   6.171   5.046  0.8471 -1.4676  1.2438
  120MOL   H25338571   0.044   6.340   5.045  0.0634 -0.2851  0.5222
  120MOL   H25438572   0.041   6.268   5.201 -2.8762 -0.1292  0.4679
  120MOL   H25538573   7.661   6.221   5.298  0.3190 -1.9968 -1.2109
  120MOL   H25638574   7.622   6.365   5.199  1.7362  0.2672 -1.5878
  120MOL   H25738575   7.509   6.232   5.222 -0.0281  1.2785  0.8742
  120MOL   C25838576   7.585   6.291   4.733 -0.2195 -0.0796 -0.1669
  120MOL   C25938577   7.651   6.337   4.597  0.2812  0.3031 -0.0917
  120MOL   O26038578   7.703   6.229   4.522  0.2520  0.0354  0.4428
  120MOL   C26138579   7.605   6.137   4.463 -0.1707 -0.0077  0.4529
  120MOL   C26238580   7.540   6.211   4.338 -0.2386 -0.4250  0.3107
  120MOL   C26338581   7.680   6.009   4.421 -0.3983 -0.0950 -0.2248
  120MOL   H26438582   7.496   6.230   4.723 -0.1114 -0.7016  2.2446
  120MOL   H26538583   7.544   6.375   4.789 -1.8997 -1.0389  0.0716
  120MOL   H26638584   7.578   6.388   4.534 -0.2530 -0.1216  0.1739
  120MOL   H26738585   7.531   6.104   4.535 -1.1864  0.6576 -0.2756
  120MOL   H26838586   7.513   6.143   4.257  0.1352 -0.3500  0.1212
  120MOL   H26938587   7.625   6.266   4.297 -0.8392 -0.4749 -1.0297
  120MOL   H27038588   7.462   6.280   4.372 -1.1433 -0.0216 -2.4303
  120MOL   H27138589   7.706   5.946   4.506 -1.0412 -1.5663 -1.0972
  120MOL   H27238590   7.633   5.947   4.345 -2.5239  0.2038  0.8057
  120MOL   H27338591   7.776   6.033   4.375 -0.4885 -0.4382 -0.5893
  120MOL   C27438592   7.753   6.443   4.622  0.4078  0.2217 -0.7658
  120MOL   C27538593   7.804   6.523   4.493 -0.3598 -0.5451  0.2421
  120MOL   O27638594   0.018   6.658   4.518 -0.2529 -0.1971  0.0169
  120MOL   C27738595   7.727   6.745   4.511 -0.0560  0.0149 -0.2960
  120MOL   C27838596   7.713   6.801   4.367 -0.3285  0.0094 -0.4502
  120MOL   C27938597   7.743   6.865   4.601  0.2239  0.0201  0.1617
  120MOL   H28038598   7.709   6.516   4.689  0.1463 -1.3619  0.8300
  120MOL   H28138599   0.016   6.393   4.673 -0.1459 -0.8437 -0.8837
  120MOL   H28238600   7.728   6.518   4.415 -0.4883 -1.3417  0.4141
  120MOL   H28338601   7.635   6.693   4.540 -0.1121  0.5278  0.4601
  120MOL   H28438602   7.634   6.875   4.356  0.3267  0.9796  1.2853
  120MOL   H28538603   7.807   6.843   4.331 -1.9270  3.0718 -1.2401
  120MOL   H28638604   7.697   6.720   4.296 -1.7585  1.3448 -1.6772
  120MOL   H28738605   7.658   6.932   4.597 -0.8551 -1.2795  0.7546
  120MOL   H28838606   0.011   6.929   4.592  0.6507 -0.5968 -0.0856
  120MOL   H28938607   7.742   6.832   4.705  0.0276 -1.4272 -0.2816
  120MOL   C29038608   0.118   6.466   4.447 -0.0053 -0.3692  0.1806
  120MOL   C29138609   0.164   6.523   4.307  0.5813  0.4045  0.1158
  120MOL   O29238610   0.302   6.493   4.303 -0.0418  0.2330  0.1691
  120MOL   C29338611   0.386   6.602   4.302 -0.3393 -0.6737  0.2869
  120MOL   C29438612   0.509   6.555   4.223 -0.4629  1.0260  0.2416
  120MOL   C29538613   0.436   6.647   4.442  0.1203  0.4347 -0.2436
  120MOL   H29638614   0.115   6.358   4.434 -0.5803 -0.3428  0.0930
  120MOL   H29738615   0.200   6.489   4.515 -0.5969 -2.6396  1.7129
  120MOL   H29838616   0.145   6.630   4.302 -0.0005  0.3046  0.1448
  120MOL   H29938617   0.335   6.691   4.263 -5.0692 -2.9434  0.8478
  120MOL   H30038618   0.561   6.470   4.267  1.6324  1.9516 -0.4073
  120MOL   H30138619   0.473   6.513   4.129 -1.8660  2.6493  0.0258
  120MOL   H30238620   0.578   6.636   4.200  0.1609  0.3142 -0.4094
  120MOL   H30338621   0.496   6.569   4.488 -0.6421  0.4425  0.7960
  120MOL   H30438622   0.507   6.728   4.430  0.6055  0.0838  0.2313
  120MOL   H30538623   0.354   6.683   4.504 -0.1334  1.6115 -1.2503
  120MOL   C30638624   0.093   6.452   4.200 -0.0887 -0.2706 -0.6371
  120MOL   C30738625   0.117   6.513   4.061 -0.2120  0.1603 -0.7510
  120MOL   O30838626   0.046   6.638   4.039 -0.7025  0.3095  0.3193
  120MOL   C30938627   0.117   6.728   3.953  0.4069 -0.6411 -0.0776
  120MOL   C31038628   0.018   6.839   3.920  0.6363  0.4340 -0.2317
  120MOL   C31138629   0.248   6.793   4.002 -0.2076  0.5623  1.0812
  120MOL   H31238630   7.807   6.458   4.225  0.7135  2.2094  2.4737
  120MOL   H31338631   0.109   6.344   4.209  2.5661 -0.0088 -1.8011
  120MOL   H31438632   0.225   6.513   4.045 -0.2360 -1.7049 -1.0457
  120MOL   H31538633   0.141   6.672   3.862  2.3271 -0.8318  0.5229
  120MOL   H31638634   0.066   6.920   3.865 -0.3636  0.4513 -1.0796
  120MOL   H31738635   7.794   6.867   4.016 -0.5181  1.8934 -1.1713
  120MOL   H31838636   7.757   6.796   3.863 -1.3276  0.4022  2.5025
  120MOL   H31938637   0.285   6.862   3.926  0.5046  0.6275  1.4809
  120MOL   H32038638   0.327   6.722   4.026  1.0087  1.5434  0.0510
  120MOL   H32138639   0.226   6.844   4.096 -1.5933  0.1910  0.9716
  120MOL   H32238640   0.089   6.440   3.985  0.3298 -3.3822  2.2807
  121MOL     C138641   5.833   1.687   0.393  0.1758 -0.2745 -0.4435
  121MOL     C238642   5.828   1.670   0.244 -0.5117  0.3584 -0.3867
  121MOL     O338643   5.897   1.553   0.204 -0.3735 -0.4296  0.2572
  121MOL     C438644   6.042   1.566   0.187 -0.1789 -0.4476  0.4393
  121MOL     C538645   6.073   1.459   0.088 -0.1198 -0.3927 -0.3084
  121MOL     C638646   6.116   1.534   0.318 -0.5782  0.0066 -0.0834
  121MOL     H738647   5.788   1.603   0.446  2.3995 -1.6222 -0.5917
  121MOL     H838648   5.922   1.711   0.452 -1.2187 -0.3527  1.7635
  121MOL     H938649   5.871   1.763   0.205  2.3219 -0.1511  1.3989
  121MOL    H1038650   6.068   1.664   0.146 -0.4415 -1.5892 -2.6126
  121MOL    H1138651   6.181   1.460   0.071 -0.4942 -1.5593 -2.8987
  121MOL    H1238652   6.034   1.360   0.112  0.4421 -0.1664  1.6747
  121MOL    H1338653   6.016   1.479   7.818 -2.1593 -0.7879  0.8610
  121MOL    H1438654   6.057   1.452   0.361 -0.2691 -0.2413 -0.1269
  121MOL    H1538655   6.208   1.478   0.300  0.8156  1.6122  1.9252
  121MOL    H1638656   6.116   1.610   0.395 -0.7446 -0.4608  0.3845
  121MOL    H1738657   5.767   1.772   0.410  0.7788  0.3489 -1.1656
  121MOL    C1838658   5.681   1.643   0.199  0.4988  0.0707  0.1011
  121MOL    C1938659   5.663   1.628   0.048  0.4500  0.6045 -1.0245
  121MOL    O2038660   5.677   1.755   7.805 -0.4064 -0.0765  0.0905
  121MOL    C2138661   5.745   1.756   7.677  0.3853  0.1537  0.0692
  121MOL    C2238662   5.898   1.759   7.690  0.3953  0.5925  0.3024
  121MOL    C2338663   5.712   1.873   7.584  0.0439 -0.3091  0.2728
  121MOL    H2438664   5.637   1.555   0.247 -0.5236  0.9611  0.8116
  121MOL    H2538665   5.628   1.728   0.241 -1.8006 -0.8680 -0.8142
  121MOL    H2638666   5.745   1.565   0.015  1.2324  1.4923 -0.7979
  121MOL    H2738667   5.715   1.661   7.632 -2.5120  0.8590  0.3782
  121MOL    H2838668   5.931   1.833   7.763  1.4296 -1.5026  2.0104
  121MOL    H2938669   5.919   1.655   7.713 -0.3702  0.2296 -0.5783
  121MOL    H3038670   5.946   1.768   7.592  1.1085  0.2946  0.6189
  121MOL    H3138671   5.759   1.968   7.606  0.0678 -0.4381  0.7764
  121MOL    H3238672   5.604   1.884   7.582  0.3701  3.3222  0.0700
  121MOL    H3338673   5.738   1.852   7.480  0.5172 -1.9041  0.6968
  121MOL    C3438674   5.515   1.583   0.012 -0.4677 -0.4804  0.7251
  121MOL    C3538675   5.489   1.428   0.027 -0.4817  0.2250 -0.6827
  121MOL    O3638676   5.435   1.400   0.158 -0.3735  0.1625 -0.5417
  121MOL    C3738677   5.479   1.275   0.211  0.5669  0.2341 -0.4026
  121MOL    C3838678   5.615   1.287   0.276  0.2002 -0.6100 -0.3870
  121MOL    C3938679   5.371   1.253   0.316  1.0328  0.0963  0.5206
  121MOL    H4038680   5.500   1.624   7.733 -0.1419 -0.2450  0.7713
  121MOL    H4138681   5.447   1.642   0.072 -0.6750 -0.5027  0.5133
  121MOL    H4238682   5.581   1.370   0.024 -0.3069  0.4413  0.2841
  121MOL    H4338683   5.463   1.202   0.132 -2.6754  0.3116  0.1087
  121MOL    H4438684   5.662   1.189   0.292 -0.9696 -1.0559  0.3477
  121MOL    H4538685   5.606   1.339   0.371  0.9961 -1.5954  0.2387
  121MOL    H4638686   5.688   1.335   0.211  0.6936 -1.5257 -0.5213
  121MOL    H4738687   5.275   1.247   0.265  0.4724 -0.3271  1.5918
  121MOL    H4838688   5.386   1.158   0.367 -0.2127 -0.1667  0.4100
  121MOL    H4938689   5.363   1.338   0.384  2.1112  3.3220 -3.1654
  121MOL    C5038690   5.379   1.371   7.752  0.4378  0.2693 -0.0500
  121MOL    C5138691   5.406   1.402   7.603 -0.0712 -0.4472  0.5990
  121MOL    O5238692   5.300   1.347   7.523 -0.0765  0.1402  0.0320
  121MOL    C5338693   5.179   1.427   7.521 -0.2654 -0.2913  0.1224
  121MOL    C5438694   5.069   1.324   7.525  0.1372 -0.2973 -0.6812
  121MOL    C5538695   5.172   1.513   7.393  0.3360  0.0389 -0.6533
  121MOL    H5638696   5.366   1.265   7.772 -4.3616  0.7654  0.0186
  121MOL    H5738697   5.284   1.418   7.778 -1.5275 -2.7560 -1.5033
  121MOL    H5838698   5.422   1.506   7.576  0.2537 -1.0610 -1.6559
  121MOL    H5938699   5.161   1.487   7.609  2.0714 -1.2527  1.3101
  121MOL    H6038700   5.079   1.235   7.586  0.9170  0.3306  0.1214
  121MOL    H6138701   5.070   1.295   7.420 -1.0219  1.2474 -1.1320
  121MOL    H6238702   4.975   1.373   7.552  0.3844  0.0703 -0.4712
  121MOL    H6338703   5.150   1.458   7.302 -1.1925 -0.2728 -0.1176
  121MOL    H6438704   5.272   1.553   7.380  0.3786  0.1323 -0.0801
  121MOL    H6538705   5.109   1.600   7.409 -0.6947 -0.9675  0.9512
  121MOL    C6638706   5.530   1.313   7.556  0.3054 -0.6636 -0.4693
  121MOL    C6738707   5.567   1.353   7.406  0.5849  0.6663 -0.9952
  121MOL    O6838708   5.610   1.241   7.331 -0.0607 -0.3372  0.3657
  121MOL    C6938709   5.528   1.128   7.308 -0.6060  0.5303  0.2659
  121MOL    C7038710   5.480   1.107   7.162 -0.3630 -0.6478  0.1739
  121MOL    C7138711   5.611   1.004   7.356  0.1157 -0.6764  0.0509
  121MOL    H7238712   5.615   1.323   7.622 -0.4793 -1.5477  0.7170
  121MOL    H7338713   5.502   1.207   7.554  0.5717 -0.7111 -2.8456
  121MOL    H7438714   5.477   1.397   7.362 -1.4905 -1.5836  0.8440
  121MOL    H7538715   5.441   1.134   7.374 -0.1055  1.8368  0.8049
  121MOL    H7638716   5.433   1.008   7.158  1.5848 -1.5768 -0.3663
  121MOL    H7738717   5.407   1.186   7.143  1.4663  1.1389  0.4380
  121MOL    H7838718   5.547   1.121   7.077 -0.9463  1.6639  0.0734
  121MOL    H7938719   5.671   0.971   7.271 -1.3469  0.2893 -1.3918
  121MOL    H8038720   5.550   0.919   7.384 -0.2344 -0.2253  0.6797
  121MOL    H8138721   5.677   1.029   7.440 -0.4851  2.5869 -0.3715
  121MOL    C8238722   5.693   1.437   7.405 -0.3877 -0.4841 -0.1623
  121MOL    C8338723   5.729   1.503   7.275  0.5394 -0.2146  0.3423
  121MOL    O8438724   5.636   1.602   7.236 -0.0734  0.1790  1.0936
  121MOL    C8538725   5.618   1.622   7.093  0.7269 -0.4808  0.5059
  121MOL    C8638726   5.607   1.773   7.097  0.0976 -0.3873 -0.4284
  121MOL    C8738727   5.492   1.543   7.054  0.2251  0.4208  0.2196
  121MOL    H8838728   5.675   1.518   7.476  0.6399 -0.4023  0.0094
  121MOL    H8938729   5.784   1.392   7.446 -0.1201  1.0764  1.0081
  121MOL    H9038730   5.730   1.417   7.208 -1.0525  0.5411 -0.6804
  121MOL    H9138731   5.702   1.588   7.033 -0.5724 -0.6129 -1.2830
  121MOL    H9238732   5.706   1.805   7.130  0.0032 -1.6574  1.1747
  121MOL    H9338733   5.605   1.826   7.002  2.2514 -0.8847 -0.7792
  121MOL    H9438734   5.542   1.820   7.172  0.1265  1.3976 -1.5027
  121MOL    H9538735   5.402   1.581   7.103  1.3158  2.0129  1.0069
  121MOL    H9638736   5.479   1.551   6.946 -0.3775  0.4658  0.2928
  121MOL    H9738737   5.503   1.436   7.068  1.2526  0.3926 -0.7218
  121MOL    C9838738   5.868   1.575   7.282  0.2805  0.7482  0.7320
  121MOL    C9938739   5.991   1.482   7.266  0.2318  0.5540  0.8707
  121MOL   O10038740   6.087   1.564   7.330  0.0632  0.2632  0.8866
  121MOL   C10138741   6.222   1.507   7.340  0.2440  0.8256 -0.5291
  121MOL   C10238742   6.218   1.492   7.498 -0.4968 -0.0815 -0.7260
  121MOL   C10338743   6.337   1.585   7.282  0.5400 -0.1671  0.0986
  121MOL   H10438744   5.874   1.651   7.205  1.9634 -0.6711 -0.5836
  121MOL   H10538745   5.871   1.623   7.380 -0.1938  0.6369  0.7993
  121MOL   H10638746   5.978   1.388   7.319 -0.2252 -0.2150 -0.5557
  121MOL   H10738747   6.221   1.411   7.288  0.2823  0.0106  0.9613
  121MOL   H10838748   6.213   1.593   7.539 -0.5756 -0.2436 -0.3291
  121MOL   H10938749   6.317   1.461   7.531 -1.5564  0.0886  2.7768
  121MOL   H11038750   6.146   1.425   7.544  1.6665 -0.7043  1.8814
  121MOL   H11138751   6.437   1.552   7.310  0.2907 -1.8170 -0.8763
  121MOL   H11238752   6.320   1.689   7.309 -0.6615 -1.1001  3.1805
  121MOL   H11338753   6.336   1.581   7.173 -2.0364  2.5084 -0.0331
  121MOL   C11438754   6.020   1.447   7.116 -0.2756  0.4494  0.7478
  121MOL   C11538755   6.083   1.305   7.086  0.2270  0.0821 -0.3275
  121MOL   O11638756   5.980   1.201   7.084 -0.4037 -0.1792  0.6653
  121MOL   C11738757   6.027   1.065   7.115  0.3280  0.6753  0.0968
  121MOL   C11838758   5.919   0.979   7.050  0.5128 -0.0085  0.9885
  121MOL   C11938759   6.027   1.044   7.266 -0.4889  0.8769 -0.5426
  121MOL   H12038760   6.079   1.529   7.076 -0.2313 -0.3890 -0.9572
  121MOL   H12138761   5.929   1.449   7.056  0.1666 -0.5787  0.0252
  121MOL   H12238762   6.155   1.272   7.161 -0.4697 -0.3623  0.1560
  121MOL   H12338763   6.121   1.032   7.071  0.1090 -2.1871  1.6638
  121MOL   H12438764   5.824   1.013   7.092 -1.0068 -0.6820 -1.7396
  121MOL   H12538765   5.925   0.871   7.065 -0.6406 -0.2970 -0.4993
  121MOL   H12638766   5.918   1.003   6.943  3.2744  3.3386  1.6171
  121MOL   H12738767   6.074   0.948   7.287 -1.1609  0.7818  0.5838
  121MOL   H12838768   5.925   1.031   7.304  0.6336  0.1967  2.4068
  121MOL   H12938769   6.085   1.114   7.327  0.2042 -0.8561  0.8437
  121MOL   C13038770   6.162   1.303   6.951  0.1243 -0.4868 -0.0698
  121MOL   C13138771   6.302   1.365   6.939 -0.0476 -0.4467  1.0497
  121MOL   O13238772   6.353   1.343   6.806  0.0000  0.3686  0.2805
  121MOL   C13338773   6.275   1.396   6.695  0.1838 -0.8085 -0.0944
  121MOL   C13438774   6.226   1.544   6.721 -0.7184  0.4881 -0.5491
  121MOL   C13538775   6.362   1.388   6.569  0.0198 -0.1073  0.1296
  121MOL   H13638776   6.099   1.352   6.876  4.1017  1.0659 -2.5556
  121MOL   H13738777   6.173   1.202   6.911 -0.4936 -0.7131  0.3212
  121MOL   H13838778   6.299   1.470   6.966 -3.3219 -0.0257 -0.7038
  121MOL   H13938779   6.184   1.337   6.683 -0.1446 -0.3064 -0.1265
  121MOL   H14038780   6.185   1.565   6.820 -1.0546 -2.0760 -0.1180
  121MOL   H14138781   6.157   1.587   6.648  0.3531 -0.4740 -2.1778
  121MOL   H14238782   6.316   1.607   6.723 -0.2296 -0.2297  2.1871
  121MOL   H14338783   6.381   1.287   6.532 -0.6456  0.0804 -0.7245
  121MOL   H14438784   6.302   1.426   6.487  1.1131 -0.5005 -0.8697
  121MOL   H14538785   6.462   1.427   6.586 -0.5011  1.0150  0.6353
  121MOL   C14638786   6.405   1.289   7.022 -0.9250  0.7477 -0.6284
  121MOL   C14738787   6.544   1.337   7.006  0.3206 -0.3267 -0.1749
  121MOL   O14838788   6.555   1.457   7.079 -0.0578  0.0800  0.6062
  121MOL   C14938789   6.633   1.568   7.020 -0.0022  0.2966  0.5112
  121MOL   C15038790   6.653   1.661   7.138  0.7045 -0.6535  0.2435
  121MOL   C15138791   6.574   1.634   6.889 -0.5543 -0.2321 -0.1058
  121MOL   H15238792   6.407   1.185   6.990  1.3567  0.5449  0.0776
  121MOL   H15338793   6.380   1.292   7.128 -1.4412  0.3526 -0.7374
  121MOL   H15438794   6.580   1.351   6.904  0.7607  1.7977  0.2626
  121MOL   H15538795   6.731   1.537   6.985 -0.4548  0.7029 -1.1618
  121MOL   H15638796   6.724   1.739   7.112 -0.2487  0.3262  0.5321
  121MOL   H15738797   6.696   1.606   7.222  0.7783 -0.6511  0.2072
  121MOL   H15838798   6.562   1.708   7.176 -0.2863  0.0073 -2.8158
  121MOL   H15938799   6.554   1.571   6.802 -2.0063  0.9412 -0.6684
  121MOL   H16038800   6.628   1.724   6.859 -1.6080  0.7850  0.9513
  121MOL   H16138801   6.473   1.670   6.909 -0.3233 -0.7768  2.0738
  121MOL   C16238802   6.648   1.250   7.077  1.1126 -0.1319  0.3990
  121MOL   C16338803   6.658   1.101   7.045 -0.4929 -0.5653  0.2989
  121MOL   O16438804   6.703   1.096   6.911  0.5604  0.4705  0.1990
  121MOL   C16538805   6.646   0.992   6.835  0.3033  0.1748  0.0657
  121MOL   C16638806   6.754   0.979   6.732  0.6413  0.5908 -0.2236
  121MOL   C16738807   6.513   1.040   6.769  0.0092  0.2671 -0.1197
  121MOL   H16838808   6.745   1.295   7.055  2.3248 -2.3508  1.0981
  121MOL   H16938809   6.639   1.251   7.185  0.6021  1.4371  0.3507
  121MOL   H17038810   6.558   1.059   7.049 -1.2798  1.4645  3.3391
  121MOL   H17138811   6.637   0.903   6.898  2.0761  0.3011  0.5162
  121MOL   H17238812   6.855   0.960   6.768 -0.5692 -0.9596  2.5665
  121MOL   H17338813   6.762   1.067   6.669 -0.1857 -0.8580 -2.3903
  121MOL   H17438814   6.728   0.894   6.669  0.0337 -0.5526  1.5268
  121MOL   H17538815   6.495   0.986   6.676 -1.2804 -0.7944  0.7377
  121MOL   H17638816   6.522   1.144   6.737  0.1317  0.1253 -0.5501
  121MOL   H17738817   6.427   1.019   6.833 -0.6613 -3.3343 -2.0791
  121MOL   C17838818   6.751   1.024   7.147  0.6673 -0.3184  0.3760
  121MOL   C17938819   6.685   0.990   7.281 -0.1076  0.1309  0.0292
  121MOL   O18038820   6.567   0.912   7.262 -0.0473 -0.0971 -0.2173
  121MOL   C18138821   6.469   0.908   7.365 -0.2627 -0.5321  0.2339
  121MOL   C18238822   6.406   0.763   7.349  0.1707  0.0210 -0.3969
  121MOL   C18338823   6.368   1.017   7.345 -0.0229 -0.2360 -0.1634
  121MOL   H18438824   6.830   1.098   7.163  0.1081 -0.0874  2.2963
  121MOL   H18538825   6.785   0.930   7.105 -0.4030 -0.3101 -0.5104
  121MOL   H18638826   6.660   1.083   7.333  3.7432  0.9610  0.5156
  121MOL   H18738827   6.505   0.934   7.465 -3.3504  1.5548  0.8700
  121MOL   H18838828   6.338   0.748   7.433  1.3580 -0.0879  0.5434
  121MOL   H18938829   6.484   0.689   7.359 -0.9987 -0.9738  1.8241
  121MOL   H19038830   6.353   0.751   7.254 -0.9016 -0.0434  0.2041
  121MOL   H19138831   6.322   1.011   7.246  1.7308 -1.0933 -0.9395
  121MOL   H19238832   6.409   1.117   7.356 -2.8526  0.8493  1.1835
  121MOL   H19338833   6.282   1.011   7.412 -0.8568  1.5638 -1.0295
  121MOL   C19438834   6.778   0.914   7.378  0.7476  0.2371 -0.1863
  121MOL   C19538835   6.920   0.973   7.399  0.6419 -1.1548 -0.4619
  121MOL   O19638836   7.008   0.863   7.431  0.1292 -0.2279  0.1831
  121MOL   C19738837   7.037   0.774   7.326 -0.0947 -0.2435 -0.6887
  121MOL   C19838838   7.180   0.816   7.275  0.8197  0.0145  0.1885
  121MOL   C19938839   7.025   0.631   7.377 -0.1818  0.3990 -0.1494
  121MOL   H20038840   6.727   0.898   7.473 -0.8731 -0.6189 -1.1657
  121MOL   H20138841   6.776   0.811   7.341  0.0118  0.2116 -0.0796
  121MOL   H20238842   6.955   1.019   7.306  2.7786 -0.1018  0.8234
  121MOL   H20338843   6.969   0.781   7.241 -1.6075 -1.0977  0.4341
  121MOL   H20438844   7.179   0.919   7.241  0.5441  0.0619  0.3357
  121MOL   H20538845   7.249   0.809   7.359 -0.7813  0.1458  1.5353
  121MOL   H20638846   7.209   0.757   7.188  0.6603  1.4497 -0.8625
  121MOL   H20738847   7.110   0.594   7.435 -0.8160  0.1038  0.5979
  121MOL   H20838848   6.938   0.614   7.439 -0.7436 -1.8999 -1.5250
  121MOL   H20938849   7.012   0.563   7.293  1.8880  1.1525 -1.1240
  121MOL   C21038850   6.921   1.084   7.508 -0.1071 -0.0084 -0.1048
  121MOL   C21138851   7.031   1.196   7.491  0.4150  0.5396  0.0121
  121MOL   O21238852   7.003   1.291   7.591 -0.4194  0.1067  0.0233
  121MOL   C21338853   6.938   1.414   7.557 -0.4636  0.5326  0.6984
  121MOL   C21438854   6.789   1.408   7.530  0.2838 -0.3007  0.5404
  121MOL   C21538855   6.959   1.493   7.677 -0.4154 -0.6586  0.5467
  121MOL   H21638856   6.939   1.034   7.603  0.5653 -0.8780 -0.6750
  121MOL   H21738857   6.824   1.132   7.512 -0.4926 -0.5811 -1.9279
  121MOL   H21838858   7.007   1.238   7.394  0.0919  0.6474  0.1362
  121MOL   H21938859   6.980   1.463   7.469 -1.5497 -0.4078 -0.3584
  121MOL   H22038860   6.770   1.352   7.439 -0.7393  0.0289  0.5527
  121MOL   H22138861   6.763   1.512   7.515  0.6850 -0.5746 -2.2470
  121MOL   H22238862   6.736   1.355   7.609 -0.6131  1.5917  1.2292
  121MOL   H22338863   6.917   1.592   7.660 -1.2392 -1.5790 -3.4322
  121MOL   H22438864   7.065   1.502   7.701 -0.1092  2.1601 -1.6413
  121MOL   H22538865   6.913   1.443   7.762  0.1961 -2.9828 -0.4510
  121MOL   C22638866   7.163   1.126   7.517  0.3754 -0.0928 -0.0345
  121MOL   C22738867   7.279   1.225   7.495 -0.6578 -0.5260  0.8624
  121MOL   O22838868   7.275   1.258   7.358 -0.4493  0.3136  0.3529
  121MOL   C22938869   7.349   1.370   7.329 -0.3615 -0.3555 -0.1834
  121MOL   C23038870   7.263   1.495   7.341  0.1533 -0.3482 -0.0680
  121MOL   C23138871   7.402   1.362   7.182  0.2321 -0.2965  0.5310
  121MOL   H23238872   7.185   1.050   7.442 -0.9120 -1.3825  0.8799
  121MOL   H23338873   7.158   1.090   7.619 -0.5954  0.9024  0.2866
  121MOL   H23438874   7.265   1.307   7.566 -0.6896 -1.3267  1.8015
  121MOL   H23538875   7.440   1.393   7.384 -0.6387  0.5194 -0.0863
  121MOL   H23638876   7.178   1.475   7.276 -0.3522 -3.8446  1.5853
  121MOL   H23738877   7.222   1.510   7.441 -1.9954  1.3853 -1.1637
  121MOL   H23838878   7.314   1.584   7.302 -1.9247  1.4209  1.1255
  121MOL   H23938879   7.470   1.438   7.144 -0.7589 -0.9913 -2.8223
  121MOL   H24038880   7.318   1.362   7.113 -0.4314  0.0325  1.3281
  121MOL   H24138881   7.456   1.269   7.161 -0.7625 -0.9744  0.9427
  121MOL   C24238882   7.406   1.147   7.528 -0.0804 -0.5193  0.3584
  121MOL   C24338883   7.418   1.113   7.679  0.7795 -0.1600 -0.5349
  121MOL   O24438884   7.432   1.240   7.743 -0.1050  0.3561  0.8930
  121MOL   C24538885   7.390   1.263   0.059 -0.2136  0.0210 -0.0276
  121MOL   C24638886   7.471   1.379   0.121  0.1329  0.5278 -0.3215
  121MOL   C24738887   7.238   1.303   0.055  0.6034  0.1754 -0.1723
  121MOL   H24838888   7.420   1.063   7.461  0.1701 -0.5303  0.4227
  121MOL   H24938889   7.494   1.208   7.508 -0.8242  1.4980  2.9115
  121MOL   H25038890   7.333   1.054   7.713  0.5008 -0.0974 -1.1185
  121MOL   H25138891   7.412   1.172   0.114 -0.2905 -0.0751 -0.1568
  121MOL   H25238892   7.457   1.370   0.228  2.4710  0.1622 -0.0220
  121MOL   H25338893   7.577   1.376   0.098  0.3499  1.1749  0.5757
  121MOL   H25438894   7.434   1.479   0.099 -1.7345 -0.0752  0.0067
  121MOL   H25538895   7.226   1.396   7.818 -0.4934 -0.2542 -0.6551
  121MOL   H25638896   7.184   1.228   7.818 -0.6767  1.9434 -1.3663
  121MOL   H25738897   7.196   1.309   0.155  3.1734  0.3582  0.9272
  121MOL   C25838898   7.545   1.028   7.710  0.1890  0.0301  0.0944
  121MOL   C25938899   7.525   0.877   7.690 -1.0903  0.5741  0.0580
  121MOL   O26038900   7.437   0.843   7.798 -0.3929 -0.2535  0.2222
  121MOL   C26138901   7.369   0.718   7.782 -0.8810 -0.3548  0.2877
  121MOL   C26238902   7.365   0.656   0.102 -0.0761 -0.1533  0.7334
  121MOL   C26338903   7.232   0.757   7.734  0.0195 -0.5652 -0.0016
  121MOL   H26438904   7.632   1.059   7.652  0.3103 -2.6698 -1.2771
  121MOL   H26538905   7.574   1.052   7.812  1.5093  1.5084 -0.6109
  121MOL   H26638906   7.495   0.857   7.587  0.7224 -0.1090 -0.3555
  121MOL   H26738907   7.411   0.653   7.705 -0.0846  0.0398  0.3795
  121MOL   H26838908   7.314   0.560   0.099 -2.0387  0.8843 -0.3540
  121MOL   H26938909   7.316   0.727   0.168 -0.4333 -1.1433  1.5398
  121MOL   H27038910   7.468   0.653   0.139 -0.0300 -2.2502  0.5183
  121MOL   H27138911   7.171   0.805   7.810 -0.1686  0.3014 -0.6951
  121MOL   H27238912   7.238   0.814   7.641  3.1567  0.9871  1.0635
  121MOL   H27338913   7.172   0.668   7.713 -0.2979 -0.3346 -0.0744
  121MOL   C27438914   7.651   0.788   7.711 -0.5613  0.0241  0.3017
  121MOL   C27538915   7.763   0.791   7.607 -0.0681 -0.0090  0.5856
  121MOL   O27638916   0.028   0.903   7.621 -0.1306 -0.8589  0.0535
  121MOL   C27738917   0.095   0.939   7.502 -0.6334 -1.1802  0.4621
  121MOL   C27838918   0.247   0.939   7.520 -0.1399 -0.4640  0.3176
  121MOL   C27938919   0.040   1.081   7.462 -0.2360 -1.3028 -0.2569
  121MOL   H28038920   7.687   0.803   7.813  0.0280  2.1148 -0.1718
  121MOL   H28138921   7.615   0.685   7.712  3.1129 -1.3367 -0.1294
  121MOL   H28238922   7.710   0.792   7.512 -1.2296 -1.4026  1.2120
  121MOL   H28338923   0.078   0.879   7.412  1.4784 -0.2634 -0.5770
  121MOL   H28438924   0.282   1.000   7.603  2.7294 -1.8444  0.1840
  121MOL   H28538925   0.303   0.846   7.518 -0.4394 -0.6291 -0.3099
  121MOL   H28638926   0.281   0.985   7.427  3.6284  0.7220  2.1788
  121MOL   H28738927   0.103   1.124   7.385  1.3599  1.0606  2.3109
  121MOL   H28838928   0.058   1.150   7.544 -1.0827 -0.6360 -0.6192
  121MOL   H28938929   7.757   1.080   7.427 -0.5103  0.6716  0.4834
  121MOL   C29038930   0.036   0.665   7.612  0.4845 -0.5559  0.1360
  121MOL   C29138931   7.816   0.543   7.523  0.1326 -0.5219 -0.2937
  121MOL   O29238932   7.687   0.495   7.554  0.6322  0.4601 -0.6164
  121MOL   C29338933   7.670   0.369   7.613  0.1814  0.5498 -0.1726
  121MOL   C29438934   7.645   0.261   7.497 -1.1329  0.4483 -0.4055
  121MOL   C29538935   7.548   0.383   7.710  0.4192 -0.2638 -0.6331
  121MOL   H29638936   0.044   0.637   7.717 -1.0447  0.9301  0.6658
  121MOL   H29738937   0.136   0.696   7.582 -0.3072  1.1066 -0.8654
  121MOL   H29838938   0.073   0.466   7.529 -0.9084 -1.7522 -2.0804
  121MOL   H29938939   7.759   0.337   7.667 -0.3584  2.1935  1.7880
  121MOL   H30038940   7.610   0.166   7.537 -0.1762  0.8158  1.3449
  121MOL   H30138941   7.572   0.304   7.428 -0.7321  1.3630 -0.2697
  121MOL   H30238942   7.734   0.254   7.435 -0.2447  0.4169  0.8398
  121MOL   H30338943   7.463   0.430   7.660  0.7788 -0.5375 -1.5064
  121MOL   H30438944   7.520   0.280   7.732 -2.6843  0.9082  1.2752
  121MOL   H30538945   7.560   0.429   7.808  0.7475 -1.3508 -0.1543
  121MOL   C30638946   7.817   0.564   7.371  0.0953  0.0376 -0.1123
  121MOL   C30738947   0.134   0.594   7.320  0.0699 -1.1606 -0.4370
  121MOL   O30838948   0.125   0.636   7.185  0.0165  0.5163 -0.2788
  121MOL   C30938949   0.247   0.663   7.120 -0.3176 -0.2675  0.7010
  121MOL   C31038950   0.229   0.628   6.968  0.1149 -0.3463 -0.9386
  121MOL   C31138951   0.295   0.806   7.142 -0.7372 -0.1521  0.7795
  121MOL   H31238952   7.737   0.625   7.329 -1.8820 -2.2939  0.1676
  121MOL   H31338953   7.789   0.467   7.329  2.0594  0.2567 -2.0212
  121MOL   H31438954   0.165   0.687   7.368 -2.5501  0.0779 -1.0557
  121MOL   H31538955   0.325   0.594   7.152 -0.6126 -0.9519 -0.0592
  121MOL   H31638956   0.159   0.698   6.921 -0.9597 -1.3377 -0.8513
  121MOL   H31738957   0.201   0.523   6.954 -0.2975 -0.5796  1.4932
  121MOL   H31838958   0.317   0.646   6.906 -0.7472 -1.4605 -2.5291
  121MOL   H31938959   0.385   0.808   7.081 -1.2244  0.0581  0.0595
  121MOL   H32038960   0.312   0.825   7.248 -2.2346  0.6668  0.8976
  121MOL   H32138961   0.209   0.859   7.100  0.8395 -0.4548 -3.0548
  121MOL   H32238962   0.202   0.512   7.344  1.4494  0.0836  0.0417
  122MOL     C138963   4.915   7.049   1.930 -0.0322 -0.0048  0.3949
  122MOL     C238964   4.870   7.121   2.056  0.2867 -1.1060 -0.8311
  122MOL     O338965   4.816   7.250   2.018 -0.7239 -0.0239 -0.0429
  122MOL     C438966   4.909   7.357   2.023  0.1799  0.3011 -0.3803
  122MOL     C538967   4.915   7.406   2.164  0.1454  0.1419  0.0308
  122MOL     C638968   4.865   7.463   1.923  0.0260 -0.4329 -0.3792
  122MOL     H738969   4.966   6.955   1.946 -0.6437 -0.8006 -2.0569
  122MOL     H838970   4.832   7.021   1.865 -0.7034 -0.5791  1.5019
  122MOL     H938971   4.960   7.129   2.118 -0.3843  0.4975 -0.0490
  122MOL    H1038972   5.008   7.329   1.985  0.7762  2.9907 -0.9455
  122MOL    H1138973   4.818   7.429   2.208 -0.7134 -0.5328 -1.4593
  122MOL    H1238974   4.969   7.329   2.219  0.1101  0.3715  0.3861
  122MOL    H1338975   4.982   7.491   2.179 -1.7456  1.6915 -0.1240
  122MOL    H1438976   4.833   7.413   1.832 -1.4913  0.8504 -0.5682
  122MOL    H1538977   4.781   7.510   1.974  0.0245 -0.3417 -0.4680
  122MOL    H1638978   4.941   7.533   1.889  1.4216 -1.4181  0.6482
  122MOL    H1738979   4.988   7.104   1.870 -0.2176  1.5388  1.5632
  122MOL    C1838980   4.766   7.042   2.137  0.3350  0.6519  0.1767
  122MOL    C1938981   4.811   6.908   2.201 -1.1293  0.3119 -0.3387
  122MOL    O2038982   4.692   6.846   2.243  0.6868 -0.0518 -0.4178
  122MOL    C2138983   4.638   6.730   2.162 -0.2707  0.6340  0.3279
  122MOL    C2238984   4.490   6.716   2.187  0.6014 -0.7391 -0.6324
  122MOL    C2338985   4.717   6.601   2.178 -0.2514 -0.4028 -0.4492
  122MOL    H2438986   4.727   7.112   2.211 -0.5941  1.0239 -0.6519
  122MOL    H2538987   4.682   7.028   2.069  1.4501  0.9244 -1.2834
  122MOL    H2638988   4.864   6.853   2.124  0.3628 -0.3283  1.1099
  122MOL    H2738989   4.648   6.763   2.059  4.5632  0.0363  0.4983
  122MOL    H2838990   4.433   6.806   2.165 -0.6661 -0.7066  2.4291
  122MOL    H2938991   4.439   6.634   2.136  0.4488 -1.0978  0.0894
  122MOL    H3038992   4.472   6.689   2.292  0.0401 -1.3463 -0.8742
  122MOL    H3138993   4.677   6.525   2.112 -0.7052  0.3918 -1.0957
  122MOL    H3238994   4.727   6.562   2.280  0.2740 -0.3007 -0.4596
  122MOL    H3338995   4.815   6.615   2.132 -1.0208 -1.7674 -2.5886
  122MOL    C3438996   4.900   6.913   2.332 -0.0050 -0.4585 -0.4907
  122MOL    C3538997   4.984   6.788   2.366  0.4673  0.2420 -0.3051
  122MOL    O3638998   5.075   6.763   2.260  0.1625  0.5582 -0.3045
  122MOL    C3738999   5.138   6.632   2.266  0.4328 -0.5649 -0.0203
  122MOL    C3839000   5.106   6.553   2.139 -0.0234 -0.2839  0.1185
  122MOL    C3939001   5.288   6.669   2.273  0.1933 -0.3154 -0.0954
  122MOL    H4039002   4.837   6.934   2.419  1.5877 -0.3002  0.6562
  122MOL    H4139003   4.967   6.999   2.332 -0.5549 -0.0272 -0.4251
  122MOL    H4239004   4.921   6.700   2.351 -1.6060  1.5515  0.5883
  122MOL    H4339005   5.113   6.567   2.350 -0.0703 -0.2368  0.0819
  122MOL    H4439006   5.191   6.485   2.134 -0.8590 -1.1959 -2.3445
  122MOL    H4539007   5.110   6.619   2.052 -2.7504 -0.6523 -0.3253
  122MOL    H4639008   5.012   6.497   2.144 -0.5585  0.5530 -0.3903
  122MOL    H4739009   5.303   6.706   2.374 -0.5941  0.6571 -0.3252
  122MOL    H4839010   5.352   6.582   2.270  0.5854 -0.0060 -0.6734
  122MOL    H4939011   5.313   6.736   2.191 -0.6403  0.1894  0.0534
  122MOL    C5039012   5.073   6.801   2.494  0.1760 -0.2390 -0.1793
  122MOL    C5139013   4.990   6.821   2.623  0.1090 -0.0585 -0.8477
  122MOL    O5239014   5.082   6.834   2.730  0.3110  0.1899  0.4286
  122MOL    C5339015   5.070   6.946   2.819 -0.7192 -0.9771 -0.2531
  122MOL    C5439016   5.137   7.073   2.761  0.0424  0.1567 -0.2765
  122MOL    C5539017   5.155   6.906   2.940 -0.3511  0.5790 -0.9377
  122MOL    H5639018   5.132   6.711   2.512  0.3066 -0.4212 -1.4584
  122MOL    H5739019   5.138   6.889   2.494  0.0172 -0.1059 -1.1951
  122MOL    H5839020   4.946   6.919   2.610 -2.9469 -1.1739  0.4976
  122MOL    H5939021   4.971   6.962   2.862 -1.1800  0.2602 -1.7411
  122MOL    H6039022   5.236   7.040   2.732 -0.2424 -0.6834 -0.3058
  122MOL    H6139023   5.133   7.165   2.820  0.2905 -1.3580  2.1704
  122MOL    H6239024   5.103   7.098   2.661  0.4032 -0.0372 -0.4467
  122MOL    H6339025   5.102   6.819   2.977  1.0221 -1.0664 -2.7213
  122MOL    H6439026   5.172   6.977   3.020  1.4064  1.6739 -2.2296
  122MOL    H6539027   5.250   6.872   2.899 -0.4015 -0.3630 -0.2696
  122MOL    C6639028   4.889   6.717   2.651  0.2055  0.6134  0.4054
  122MOL    C6739029   4.804   6.730   2.777  0.2173  0.0145 -0.3052
  122MOL    O6839030   4.725   6.618   2.771 -0.0249 -0.2675  0.1441
  122MOL    C6939031   4.766   6.497   2.826  0.1258 -0.2773 -0.4169
  122MOL    C7039032   4.714   6.489   2.972  0.1379  0.0311 -0.1299
  122MOL    C7139033   4.711   6.381   2.736 -0.3059 -0.0680  0.2849
  122MOL    H7239034   4.818   6.702   2.570 -1.2029  1.4121  1.4688
  122MOL    H7339035   4.939   6.620   2.651  0.9152  0.9838  0.8980
  122MOL    H7439036   4.861   6.729   2.870  0.7782 -1.3818 -0.6579
  122MOL    H7539037   4.874   6.489   2.824  0.0787 -1.0848 -0.0670
  122MOL    H7639038   4.740   6.392   3.015  2.0241 -0.9109 -3.2707
  122MOL    H7739039   4.746   6.575   3.032  1.5486 -0.2766 -0.4152
  122MOL    H7839040   4.605   6.490   2.978  0.1973 -0.8007  1.3249
  122MOL    H7939041   4.603   6.377   2.721 -0.6033 -4.0655  2.8924
  122MOL    H8039042   4.750   6.288   2.776 -0.6560 -0.8387 -1.1072
  122MOL    H8139043   4.760   6.392   2.639  1.5621  2.1257  1.4253
  122MOL    C8239044   4.714   6.860   2.769 -0.1373 -0.8536  1.2853
  122MOL    C8339045   4.622   6.886   2.887 -0.2075 -0.9199  0.0638
  122MOL    O8439046   4.692   6.964   2.987  0.4024  0.5688 -0.1847
  122MOL    C8539047   4.726   6.895   3.106  0.4140  0.2546 -0.4067
  122MOL    C8639048   4.620   6.918   3.210 -0.0173  0.0331 -0.1009
  122MOL    C8739049   4.857   6.954   3.146 -0.5492  0.2138  0.5711
  122MOL    H8839050   4.770   6.946   2.734 -0.9793 -1.3738 -1.4477
  122MOL    H8939051   4.641   6.833   2.693  0.6227 -2.6711  1.1706
  122MOL    H9039052   4.589   6.789   2.924 -0.4903 -1.0925 -0.6469
  122MOL    H9139053   4.738   6.787   3.093 -0.5601 -0.0073  0.7354
  122MOL    H9239054   4.656   6.878   3.305  0.6908 -0.7233 -0.6736
  122MOL    H9339055   4.575   7.016   3.224 -1.7677 -1.1159  2.9206
  122MOL    H9439056   4.539   6.853   3.177 -0.0270  0.8477 -1.7139
  122MOL    H9539057   4.934   6.919   3.077  0.7193  1.0523  1.5164
  122MOL    H9639058   4.863   7.062   3.155 -2.1868  0.3702 -0.1174
  122MOL    H9739059   4.889   6.913   3.242  1.8088  0.0278 -0.2551
  122MOL    C9839060   4.495   6.972   2.863  0.2499  0.3780  0.1130
  122MOL    C9939061   4.373   6.892   2.814  0.8719  0.2290  0.4400
  122MOL   O10039062   4.388   6.845   2.680  0.1464  0.7531  0.0432
  122MOL   C10139063   4.322   6.723   2.644  0.3241  0.3341 -0.6656
  122MOL   C10239064   4.414   6.593   2.677 -0.3060 -0.4626  0.6264
  122MOL   C10339065   4.281   6.745   2.493 -0.0460 -0.0135 -0.0339
  122MOL   H10439066   4.470   7.021   2.957  1.2966 -0.2326  0.7089
  122MOL   H10539067   4.512   7.062   2.804 -0.8417 -1.1103 -2.5920
  122MOL   H10639068   4.358   6.807   2.880  1.4388  1.2712  1.9542
  122MOL   H10739069   4.229   6.716   2.700  1.1407  2.7855  1.1326
  122MOL   H10839070   4.489   6.565   2.602  1.5034 -2.3709  3.0651
  122MOL   H10939071   4.352   6.504   2.682 -1.9017  0.4872 -1.5326
  122MOL   H11039072   4.465   6.607   2.772  0.8132  1.4990 -0.2340
  122MOL   H11139073   4.265   6.645   2.452 -2.5756 -0.4029  1.7752
  122MOL   H11239074   4.353   6.807   2.439  2.6230 -2.0822  1.0243
  122MOL   H11339075   4.184   6.795   2.489 -0.3661 -0.6130  0.0868
  122MOL   C11439076   4.249   6.973   2.815  0.2343 -0.8941 -0.2309
  122MOL   C11539077   4.177   6.981   2.950  0.1994  0.0683  0.0450
  122MOL   O11639078   4.045   7.035   2.923  0.0239 -0.4069 -0.1385
  122MOL   C11739079   4.034   7.178   2.905 -0.1807 -0.6797 -0.0419
  122MOL   C11839080   3.989   7.239   3.033 -0.0397 -0.4286 -0.1400
  122MOL   C11939081   3.937   7.222   2.784 -0.3686 -0.1026  0.1763
  122MOL   H12039082   4.171   6.929   2.753  0.4639  1.0313 -1.9229
  122MOL   H12139083   4.254   7.073   2.772  0.9996 -0.4916  0.7776
  122MOL   H12239084   4.236   7.043   3.017  0.8498 -0.4278 -0.0641
  122MOL   H12339085   4.126   7.233   2.885 -0.3003 -0.1528  0.8419
  122MOL   H12439086   3.887   7.211   3.056 -0.4980  1.5769  0.3616
  122MOL   H12539087   3.984   7.347   3.026  0.6230 -0.4749 -1.5215
  122MOL   H12639088   4.055   7.205   3.113 -0.1840 -1.6042 -0.5079
  122MOL   H12739089   3.980   7.178   2.694  0.1979 -0.3462  0.5634
  122MOL   H12839090   3.935   7.331   2.782 -1.2726 -0.1190 -1.2862
  122MOL   H12939091   3.834   7.192   2.804 -0.1371 -0.2081  1.1890
  122MOL   C13039092   4.148   6.841   3.007  0.1988  0.0513 -0.9959
  122MOL   C13139093   4.090   6.838   3.149  0.0959 -0.7059  0.7921
  122MOL   O13239094   4.193   6.904   3.230  0.4223 -0.0691  0.3405
  122MOL   C13339095   4.145   7.001   3.323 -0.1823 -0.0347 -0.5007
  122MOL   C13439096   4.039   6.950   3.428 -0.7999 -0.8741  0.5368
  122MOL   C13539097   4.270   7.054   3.394  0.1281 -0.2419 -0.0974
  122MOL   H13639098   4.243   6.790   3.025  0.1800 -0.7383 -2.9835
  122MOL   H13739099   4.095   6.783   2.932  1.3343  0.7528 -2.3685
  122MOL   H13839100   4.003   6.904   3.151 -0.5641 -1.5605  0.3917
  122MOL   H13939101   4.098   7.086   3.274  0.5516 -1.0559 -3.0931
  122MOL   H14039102   4.071   6.863   3.486 -0.4282 -0.6673  0.6427
  122MOL   H14139103   3.949   6.910   3.381 -1.8240  0.7463  1.0660
  122MOL   H14239104   4.018   7.014   3.514 -3.7390 -0.3069 -0.5475
  122MOL   H14339105   4.342   7.103   3.328 -1.6927  1.3640 -0.9413
  122MOL   H14439106   4.256   7.116   3.482  0.3806  1.1537 -1.0193
  122MOL   H14539107   4.322   6.968   3.437  0.7440 -0.5987 -1.5071
  122MOL   C14639108   4.066   6.693   3.205 -0.1600 -0.1507 -0.8488
  122MOL   C14739109   4.184   6.597   3.225 -0.0461  0.4883 -0.3642
  122MOL   O14839110   4.147   6.484   3.306  0.0956  0.7201 -0.2154
  122MOL   C14939111   4.156   6.506   3.449  0.6693 -1.0127 -0.2167
  122MOL   C15039112   4.284   6.448   3.487  0.4864 -0.8174  0.9774
  122MOL   C15139113   4.040   6.433   3.516 -0.0621 -0.7052  0.2495
  122MOL   H15239114   3.998   6.645   3.134  1.5572 -0.1833 -2.5244
  122MOL   H15339115   4.012   6.704   3.299 -0.3743  2.8732 -1.2591
  122MOL   H15439116   4.257   6.661   3.275  1.4570  1.2732 -3.4128
  122MOL   H15539117   4.160   6.613   3.469 -1.7457 -1.1580  1.1398
  122MOL   H15639118   4.308   6.444   3.593  3.1157  0.4726  0.4718
  122MOL   H15739119   4.371   6.481   3.430  0.3304 -1.0793  0.5883
  122MOL   H15839120   4.274   6.341   3.467  0.2904 -0.6984  0.4476
  122MOL   H15939121   4.057   6.424   3.623  1.8949  3.7444  0.4341
  122MOL   H16039122   4.033   6.334   3.470  0.0409 -0.2225 -0.8206
  122MOL   H16139123   3.950   6.495   3.513 -0.3783 -1.2336 -2.0599
  122MOL   C16239124   4.255   6.537   3.099 -0.2817 -0.0462  0.7712
  122MOL   C16339125   4.172   6.450   3.003 -0.4954 -0.0718 -0.0782
  122MOL   O16439126   4.150   6.523   2.883 -0.3729 -0.2112  0.5836
  122MOL   C16539127   4.027   6.498   2.824  0.9203  0.4933 -0.1648
  122MOL   C16639128   4.026   6.549   2.679 -0.3205 -0.4208  0.0576
  122MOL   C16739129   3.913   6.556   2.909 -0.1615 -0.1752  0.1987
  122MOL   H16839130   4.311   6.608   3.038 -1.0027 -1.3018 -1.4178
  122MOL   H16939131   4.329   6.469   3.141  0.1865 -0.8344 -1.2509
  122MOL   H17039132   4.086   6.429   3.067  0.6789 -0.3741  1.4566
  122MOL   H17139133   4.020   6.390   2.817 -0.1764  0.5402  0.1288
  122MOL   H17239134   4.035   6.657   2.678  2.2498 -0.5666  2.1032
  122MOL   H17339135   3.927   6.536   2.634 -0.2132 -1.2639  0.0532
  122MOL   H17439136   4.096   6.504   2.609 -0.7120  0.5305 -0.9660
  122MOL   H17539137   3.829   6.554   2.839  0.2253  0.8702 -0.3048
  122MOL   H17639138   3.933   6.662   2.927 -2.3024  0.2725  0.0725
  122MOL   H17739139   3.891   6.492   2.994 -1.1016 -0.2551 -0.0983
  122MOL   C17839140   4.240   6.323   2.957  0.7328 -0.1483  0.2328
  122MOL   C17939141   4.216   6.202   3.054  0.0570  0.4312  0.7125
  122MOL   O18039142   4.093   6.137   3.031 -0.3769  0.2187  0.1325
  122MOL   C18139143   4.022   6.101   3.142  0.5115  0.6721  0.0853
  122MOL   C18239144   3.921   6.004   3.095  0.3857 -0.5273  0.2549
  122MOL   C18339145   3.952   6.210   3.210  0.1387  0.2706 -0.4964
  122MOL   H18439146   4.348   6.332   2.944  1.1065 -0.4090  2.9238
  122MOL   H18539147   4.207   6.296   2.856  1.7390  0.3466 -0.2420
  122MOL   H18639148   4.233   6.232   3.157  1.2579  0.2311  0.5792
  122MOL   H18739149   4.084   6.048   3.215 -0.2595  0.3613  0.5274
  122MOL   H18839150   3.863   6.050   3.016 -0.5855  2.4913  2.6347
  122MOL   H18939151   3.859   5.965   3.175  1.4049 -1.3830  0.6467
  122MOL   H19039152   3.964   5.915   3.047  0.2977 -1.4894  1.9156
  122MOL   H19139153   4.016   6.285   3.256  0.2800  0.6479 -1.2877
  122MOL   H19239154   3.897   6.173   3.296 -0.5107  0.5202 -0.8009
  122MOL   H19339155   3.904   6.278   3.139  0.3356  0.9273 -0.0079
  122MOL   C19439156   4.322   6.094   3.028 -0.3263  0.1364 -0.3604
  122MOL   C19539157   4.337   6.032   2.887 -0.2351  0.7453  0.2783
  122MOL   O19639158   4.396   5.897   2.896 -0.2279  0.3118  0.2952
  122MOL   C19739159   4.301   5.792   2.917  0.4024 -0.2345 -0.0043
  122MOL   C19839160   4.198   5.782   2.802 -1.2503 -0.5089 -0.2117
  122MOL   C19939161   4.373   5.656   2.934  0.0611  0.1637 -0.0191
  122MOL   H20039162   4.424   6.127   3.048  0.0041 -0.7136 -0.6312
  122MOL   H20139163   4.302   6.007   3.091 -1.3073  0.9855  0.5347
  122MOL   H20239164   4.238   6.034   2.842 -0.3761  0.3840  0.5719
  122MOL   H20339165   4.246   5.812   3.009  0.3627  0.3259 -0.1458
  122MOL   H20439166   4.120   5.859   2.803 -2.2144 -1.4902  2.0689
  122MOL   H20539167   4.240   5.787   2.701 -1.2034  2.2613 -0.1121
  122MOL   H20639168   4.147   5.686   2.803 -2.1995 -0.0213 -0.5369
  122MOL   H20739169   4.300   5.576   2.949  0.1066  0.2837  0.9076
  122MOL   H20839170   4.431   5.632   2.845 -0.8400  0.8776 -0.8126
  122MOL   H20939171   4.428   5.658   3.028 -0.8998  1.3678  0.5361
  122MOL   C21039172   4.432   6.109   2.797  0.3978  0.2473  1.2015
  122MOL   C21139173   4.432   6.045   2.650  0.0668  0.5624  0.0913
  122MOL   O21239174   4.352   6.117   2.565  0.4027 -0.4599 -0.3285
  122MOL   C21339175   4.212   6.079   2.557 -0.1304  0.2663  0.0488
  122MOL   C21439176   4.136   6.214   2.519  0.0852 -0.7993  0.3505
  122MOL   C21539177   4.209   5.974   2.449  0.2419 -0.0855 -0.0097
  122MOL   H21639178   4.530   6.133   2.838 -0.0524  1.7012  1.4690
  122MOL   H21739179   4.384   6.206   2.781 -1.0897 -0.6434  0.1615
  122MOL   H21839180   4.411   5.938   2.661 -1.0188  0.9185  1.7301
  122MOL   H21939181   4.169   6.042   2.649  1.9241  0.1848  1.0158
  122MOL   H22039182   4.147   6.287   2.599  0.1712 -0.5713  0.1348
  122MOL   H22139183   4.030   6.198   2.503 -0.0910  2.6083 -2.7930
  122MOL   H22239184   4.180   6.249   2.425  0.6651 -0.1530  0.8570
  122MOL   H22339185   4.226   5.877   2.495 -1.6319  0.3491  1.7021
  122MOL   H22439186   4.280   5.990   2.368 -0.9820  0.8223 -0.9090
  122MOL   H22539187   4.109   5.970   2.407 -0.4873  0.4009  1.6264
  122MOL   C22639188   4.572   6.060   2.580 -0.1882 -0.0337  0.3569
  122MOL   C22739189   4.673   5.948   2.619  0.6866 -0.2468  0.5109
  122MOL   O22839190   4.742   6.014   2.723 -0.0957  0.0502  0.2368
  122MOL   C22939191   4.803   5.926   2.815 -0.7593 -0.0608  0.1219
  122MOL   C23039192   4.726   5.901   2.937  0.3376  0.8024  0.0984
  122MOL   C23139193   4.948   5.971   2.849 -0.1011  0.3398 -0.1109
  122MOL   H23239194   4.613   6.156   2.609 -0.0562 -0.0754  0.3077
  122MOL   H23339195   4.549   6.052   2.474  0.2463 -4.0026  0.4654
  122MOL   H23439196   4.632   5.851   2.645 -1.9559  0.1809 -1.8148
  122MOL   H23539197   4.820   5.830   2.767 -0.0116 -0.7824  1.8003
  122MOL   H23639198   4.784   5.845   3.010 -0.4996 -0.0210  0.1427
  122MOL   H23739199   4.692   5.997   2.977 -0.5601  0.5943 -0.1385
  122MOL   H23839200   4.634   5.846   2.918  0.5539  0.0887  1.0841
  122MOL   H23939201   5.017   5.980   2.766 -0.5995  0.7173 -0.4857
  122MOL   H24039202   4.989   5.895   2.916  0.8404  1.1347  0.2362
  122MOL   H24139203   4.941   6.062   2.910  0.4666 -0.6338  1.4239
  122MOL   C24239204   4.782   5.929   2.503 -0.4452 -0.4507 -0.6297
  122MOL   C24339205   4.752   5.821   2.398 -0.8716 -0.5752  0.2270
  122MOL   O24439206   4.622   5.835   2.333  0.1265 -0.7014  0.1244
  122MOL   C24539207   4.614   5.831   2.192 -0.0655  0.1006  0.0658
  122MOL   C24639208   4.460   5.820   2.167 -0.1365 -0.8152  0.1684
  122MOL   C24739209   4.676   5.955   2.133  0.0164  0.3305 -0.6350
  122MOL   H24839210   4.784   6.024   2.451 -3.3476  0.4832  0.8266
  122MOL   H24939211   4.882   5.906   2.540 -0.9482  0.2818  1.2332
  122MOL   H25039212   4.825   5.828   2.318 -0.0945  2.1690  1.1494
  122MOL   H25139213   4.654   5.737   2.154  1.0518  1.5838 -2.5661
  122MOL   H25239214   4.421   5.806   2.066 -0.7526  1.3689  0.0625
  122MOL   H25339215   4.428   5.748   2.242 -2.3512  1.2536  1.2517
  122MOL   H25439216   4.410   5.911   2.200  0.9578  0.1217 -0.6871
  122MOL   H25539217   4.636   6.040   2.190 -1.0531 -0.0905 -0.7409
  122MOL   H25639218   4.783   5.953   2.151 -0.0237  1.7759 -0.1325
  122MOL   H25739219   4.666   5.972   2.026 -0.5146 -0.4048 -0.7101
  122MOL   C25839220   4.755   5.675   2.451  0.0386  0.0370 -0.7655
  122MOL   C25939221   4.878   5.612   2.524  0.0315 -0.2676 -0.2566
  122MOL   O26039222   4.981   5.609   2.426 -0.0369  0.2807 -0.1335
  122MOL   C26139223   5.104   5.668   2.463  0.7396 -0.0014 -0.1090
  122MOL   C26239224   5.197   5.564   2.527 -0.3731  0.1374 -0.8858
  122MOL   C26339225   5.178   5.714   2.346  0.0688 -0.1214 -0.3097
  122MOL   H26439226   4.669   5.649   2.513  2.2886  0.0544  2.4905
  122MOL   H26539227   4.746   5.617   2.359 -1.2169  0.6386 -1.0476
  122MOL   H26639228   4.907   5.665   2.615  0.7566  1.2308 -1.3306
  122MOL   H26739229   5.086   5.747   2.535 -1.7927  0.5414 -1.2974
  122MOL   H26839230   5.234   5.483   2.464  0.0267 -0.4842  0.1350
  122MOL   H26939231   5.146   5.511   2.608  1.0688 -0.4333 -0.3280
  122MOL   H27039232   5.285   5.616   2.565 -1.5738  0.9283  0.8867
  122MOL   H27139233   5.188   5.641   2.266  0.9736 -0.3125 -0.0307
  122MOL   H27239234   5.124   5.803   2.311 -0.7677  0.5160  2.4526
  122MOL   H27339235   5.275   5.758   2.368 -1.5399  2.2984  2.3904
  122MOL   C27439236   4.853   5.471   2.569  0.1290  0.2333 -0.2903
  122MOL   C27539237   4.790   5.448   2.705  0.0410 -0.0252 -0.1390
  122MOL   O27639238   4.711   5.327   2.702  0.0308 -0.1548 -0.1140
  122MOL   C27739239   4.582   5.332   2.645 -0.6931 -0.3874 -0.6531
  122MOL   C27839240   4.469   5.319   2.745 -0.4440  0.1541  0.3421
  122MOL   C27939241   4.588   5.215   2.551 -0.3150  0.0032 -0.3449
  122MOL   H28039242   4.791   5.416   2.497  0.0922  0.5816 -0.5227
  122MOL   H28139243   4.941   5.407   2.570  0.1553  0.2732  0.0003
  122MOL   H28239244   4.723   5.533   2.718 -1.1719 -1.0063  0.1603
  122MOL   H28339245   4.573   5.424   2.588 -1.4236 -0.7125 -1.0631
  122MOL   H28439246   4.448   5.416   2.791  0.5096  0.6481 -0.2480
  122MOL   H28539247   4.376   5.292   2.695 -0.6892 -0.7399  1.2683
  122MOL   H28639248   4.483   5.251   2.829  0.1595 -0.2581 -0.0928
  122MOL   H28739249   4.657   5.205   2.467  1.2238  0.1044  0.8724
  122MOL   H28839250   4.496   5.197   2.497 -0.4542  0.7766 -0.3631
  122MOL   H28939251   4.599   5.117   2.599 -2.9936 -0.1022  0.1179
  122MOL   C29039252   4.885   5.446   2.824  0.7966 -0.3146  0.1735
  122MOL   C29139253   4.822   5.391   2.957  1.2718 -0.7811  0.1525
  122MOL   O29239254   4.913   5.395   3.056 -0.3513  0.4306  0.7823
  122MOL   C29339255   4.940   5.281   3.132 -0.1449  0.1662 -0.9931
  122MOL   C29439256   5.022   5.317   3.255  0.2748  0.0001 -0.2338
  122MOL   C29539257   5.017   5.175   3.043  0.1595  0.1871  0.0997
  122MOL   H29639258   4.933   5.544   2.821  0.4880 -0.2128 -4.8635
  122MOL   H29739259   4.966   5.376   2.801 -1.4658 -2.8562 -0.3313
  122MOL   H29839260   4.804   5.284   2.946 -0.4345 -0.7758  2.5476
  122MOL   H29939261   4.858   5.225   3.177  0.4745  1.1624  1.4162
  122MOL   H30039262   5.121   5.359   3.238  0.8899  0.0377  3.0840
  122MOL   H30139263   4.963   5.387   3.313 -2.3135 -2.6983  0.5326
  122MOL   H30239264   5.039   5.232   3.322  0.6846  0.3685  0.1319
  122MOL   H30339265   4.968   5.147   2.950 -0.8656 -0.7336  0.8972
  122MOL   H30439266   5.116   5.216   3.024  0.0834  0.9579  1.3123
  122MOL   H30539267   5.027   5.079   3.094  0.3886 -0.6512 -1.4781
  122MOL   C30639268   4.689   5.458   2.998  0.1343 -0.0852  0.1002
  122MOL   C30739269   4.617   5.379   3.121 -0.2413  1.1890  0.5172
  122MOL   O30839270   4.546   5.264   3.065  0.1470 -0.2551  0.4044
  122MOL   C30939271   4.501   5.162   3.147  0.7288 -0.5595 -0.6148
  122MOL   C31039272   4.367   5.213   3.198 -0.1913  0.9032  0.2992
  122MOL   C31139273   4.483   5.029   3.060  0.5239  0.4926 -0.1663
  122MOL   H31239274   4.629   5.470   2.908  1.7996  0.3187 -0.9804
  122MOL   H31339275   4.719   5.558   3.030  1.3965  0.2275 -1.9567
  122MOL   H31439276   4.683   5.346   3.201 -3.0187 -2.8631  1.2909
  122MOL   H31539277   4.565   5.152   3.234  0.5295 -0.2725 -0.4363
  122MOL   H31639278   4.310   5.259   3.117 -0.0817 -0.1196 -0.3586
  122MOL   H31739279   4.378   5.288   3.277 -5.5780 -0.5943  2.6666
  122MOL   H31839280   4.307   5.132   3.238 -0.0556  1.5341  1.8431
  122MOL   H31939281   4.441   4.942   3.111  0.2468 -0.2553 -1.6347
  122MOL   H32039282   4.572   4.995   3.007  1.4254  0.7331  1.1692
  122MOL   H32139283   4.411   5.058   2.983 -0.1406  0.0297  0.2796
  122MOL   H32239284   4.547   5.447   3.168 -2.1330 -1.7197  2.0409
  123MOL     C139285   3.429   0.260   5.762  0.5348  0.1140 -0.0485
  123MOL     C239286   3.434   0.155   5.644  0.2318 -0.4056 -0.1048
  123MOL     O339287   3.375   0.205   5.526  0.5809  0.4490  0.3102
  123MOL     C439288   3.241   0.168   5.492 -0.2966 -0.1927  0.1087
  123MOL     C539289   3.209   0.198   5.344 -0.3224  0.3727  0.3476
  123MOL     C639290   3.136   0.243   5.584  0.1126 -0.1515 -0.1768
  123MOL     H739291   3.497   0.218   5.837 -1.0097 -1.0335  0.7365
  123MOL     H839292   3.462   0.355   5.720  1.4376 -0.2133 -0.0813
  123MOL     H939293   3.394   0.059   5.678 -0.3622  0.3673  1.4617
  123MOL    H1039294   3.232   0.060   5.504 -2.1552 -0.2057 -1.1783
  123MOL    H1139295   3.120   0.141   5.319 -0.4988  0.4252  0.8545
  123MOL    H1239296   3.180   0.302   5.331 -0.1597  0.4852  0.8713
  123MOL    H1339297   3.292   0.171   5.279  0.2458  0.7844  0.8849
  123MOL    H1439298   3.033   0.208   5.578 -0.1559  0.5729  0.1242
  123MOL    H1539299   3.166   0.210   5.683  1.2690 -0.8062 -0.7290
  123MOL    H1639300   3.142   0.352   5.580  1.0442 -0.0826  2.3921
  123MOL    H1739301   3.333   0.272   5.811  0.4629 -1.4739  0.2256
  123MOL    C1839302   3.580   0.135   5.606  0.1289 -0.6440 -0.5702
  123MOL    C1939303   3.597   0.014   5.514 -0.5867  0.2416  0.9349
  123MOL    O2039304   3.600   7.716   5.593  0.6312 -0.1994 -0.5779
  123MOL    C2139305   3.558   7.603   5.520  0.9500 -0.5133  0.9227
  123MOL    C2239306   3.411   7.571   5.547 -0.1224 -0.2121  0.4672
  123MOL    C2339307   3.647   7.484   5.569  0.2233  0.3985  0.3082
  123MOL    H2439308   3.621   0.226   5.562 -0.4251  0.9712  2.1740
  123MOL    H2539309   3.642   0.126   5.695  0.7765  3.0345 -0.5925
  123MOL    H2639310   3.515   0.023   5.443 -0.2286  2.5411  0.7599
  123MOL    H2739311   3.589   7.606   5.416 -2.0681  0.1384  0.0060
  123MOL    H2839312   3.345   7.644   5.500  0.4790  0.6359  0.9315
  123MOL    H2939313   3.372   7.475   5.514 -0.6767  1.1264 -2.9858
  123MOL    H3039314   3.389   7.580   5.654 -0.6530 -0.9415  0.4259
  123MOL    H3139315   3.749   7.522   5.561 -0.5607  2.6022  0.4955
  123MOL    H3239316   3.631   7.396   5.506  0.2851  1.7049 -1.5926
  123MOL    H3339317   3.619   7.453   5.669  0.7300  1.6196  0.8400
  123MOL    C3439318   3.724   0.024   5.441  0.9635 -0.2614 -0.6041
  123MOL    C3539319   3.716   0.120   5.322 -0.5183  0.8621 -0.0801
  123MOL    O3639320   3.849   0.139   5.270  0.4381  0.5005 -0.3337
  123MOL    C3739321   3.933   0.222   5.347 -0.2935 -0.2531  0.0109
  123MOL    C3839322   4.054   0.136   5.384  0.3614  0.8389  0.0542
  123MOL    C3939323   3.962   0.337   5.247  0.3775 -0.1578  0.5428
  123MOL    H4039324   3.771   7.749   5.413  1.4191 -0.4260  0.6979
  123MOL    H4139325   3.799   0.064   5.509  0.1144  1.6067 -0.7516
  123MOL    H4239326   3.693   0.223   5.347 -1.3773  0.3790  1.1700
  123MOL    H4339327   3.894   0.259   5.441  1.2574  0.4113  0.4054
  123MOL    H4439328   4.120   0.194   5.447 -0.2535 -0.4320  1.9092
  123MOL    H4539329   4.109   0.111   5.293 -0.0578  1.5051 -0.3891
  123MOL    H4639330   4.022   0.044   5.433 -1.3123  1.1713 -0.3758
  123MOL    H4739331   4.024   0.297   5.166 -1.0616  0.9092 -1.1356
  123MOL    H4839332   3.876   0.373   5.191  1.0488 -1.2444 -1.2266
  123MOL    H4939333   4.017   0.420   5.290 -0.2567 -0.9930  3.0641
  123MOL    C5039334   3.628   0.075   5.204  0.3431  0.1531  0.7142
  123MOL    C5139335   3.586   0.188   5.108 -0.2401  0.1344 -0.7598
  123MOL    O5239336   3.492   0.267   5.179  0.4633  0.7118  0.2470
  123MOL    C5339337   3.494   0.401   5.146 -0.3174  0.2325 -0.3338
  123MOL    C5439338   3.571   0.474   5.252 -0.0781 -0.6880 -0.4048
  123MOL    C5539339   3.355   0.454   5.129 -0.6777 -0.6418 -0.5190
  123MOL    H5639340   3.680   7.809   5.161  1.3286  1.8579 -1.6129
  123MOL    H5739341   3.538   0.030   5.247  0.0391  0.1272  0.0516
  123MOL    H5839342   3.672   0.243   5.072 -0.7733  2.2742  1.1428
  123MOL    H5939343   3.549   0.420   5.054  0.3251 -0.6350 -0.1376
  123MOL    H6039344   3.528   0.455   5.351  1.9428 -0.5012  0.5358
  123MOL    H6139345   3.577   0.579   5.225  1.9835 -0.7641 -0.2805
  123MOL    H6239346   3.675   0.445   5.262  0.6412  1.9099  0.0462
  123MOL    H6339347   3.309   0.469   5.227  3.2668  3.8911  0.8469
  123MOL    H6439348   3.286   0.388   5.076  1.7075 -2.3145 -1.6376
  123MOL    H6539349   3.351   0.553   5.085  4.5064  0.6823  1.6665
  123MOL    C6639350   3.510   0.137   4.986 -0.4638 -0.0035  0.2184
  123MOL    C6739351   3.605   0.100   4.863 -0.0543  0.7584  0.6388
  123MOL    O6839352   3.678   0.210   4.818 -0.0869  0.5365  0.5159
  123MOL    C6939353   3.818   0.209   4.831  0.0679  0.5963 -0.4995
  123MOL    C7039354   3.893   0.137   4.713 -0.5173 -0.4306  0.5929
  123MOL    C7139355   3.855   0.357   4.834 -1.1925  0.1893  0.0405
  123MOL    H7239356   3.457   0.047   5.018 -0.2203 -0.2671 -0.1173
  123MOL    H7339357   3.440   0.208   4.942  0.2116  1.1915  1.0575
  123MOL    H7439358   3.674   0.019   4.890 -2.0506 -1.5714 -1.0070
  123MOL    H7539359   3.860   0.170   4.923  0.0603  0.0888 -0.7104
  123MOL    H7639360   4.000   0.126   4.731 -0.2082  1.2317 -0.1410
  123MOL    H7739361   3.839   0.043   4.698  0.4508 -1.0266  0.7562
  123MOL    H7839362   3.890   0.193   4.620  0.6444 -0.4548  0.5337
  123MOL    H7939363   3.845   0.414   4.742  2.3585 -0.2397 -0.6606
  123MOL    H8039364   3.958   0.363   4.869 -2.0865  1.3027  2.6262
  123MOL    H8139365   3.806   0.404   4.919  1.7307  0.6961  1.5048
  123MOL    C8239366   3.524   0.057   4.734  0.1956 -0.0550 -0.3671
  123MOL    C8339367   3.435   7.748   4.762  0.1523 -0.6331  0.1730
  123MOL    O8439368   3.344   7.720   4.652 -0.3038 -0.8457 -0.6388
  123MOL    C8539369   3.230   7.805   4.649 -0.2671 -0.3020 -0.2078
  123MOL    C8639370   3.098   7.740   4.680 -0.0782 -0.0706 -0.0346
  123MOL    C8739371   3.236   0.057   4.512  0.1186  0.1458  0.1628
  123MOL    H8839372   3.464   0.140   4.697 -0.0320  0.6145  1.5023
  123MOL    H8939373   3.599   0.022   4.663  2.0136  2.5532  0.2079
  123MOL    H9039374   3.384   7.752   4.858  1.1288 -1.5146  0.7416
  123MOL    H9139375   3.250   0.056   4.729 -1.1642 -0.0122 -0.2449
  123MOL    H9239376   3.098   7.638   4.642 -2.4646  0.2574 -1.0775
  123MOL    H9339377   3.079   7.737   4.787 -0.4537 -1.1275 -0.1196
  123MOL    H9439378   3.016   7.786   4.624 -0.2606 -0.5619 -0.1775
  123MOL    H9539379   3.156   0.130   4.497 -0.8196 -1.0197 -0.5895
  123MOL    H9639380   3.329   0.114   4.520  0.5762 -0.5497 -0.2070
  123MOL    H9739381   3.227   7.807   4.429 -2.7056 -0.7162  1.1220
  123MOL    C9839382   3.527   7.618   4.774  0.4355 -0.0251 -0.6050
  123MOL    C9939383   3.459   7.507   4.862 -0.3223  0.2062 -1.1698
  123MOL   O10039384   3.482   7.530   5.000 -0.4284  0.0697  0.3144
  123MOL   C10139385   3.375   7.488   5.084  1.2861  0.5781 -0.7128
  123MOL   C10239386   3.275   7.605   5.111  0.0304  0.3552  0.0879
  123MOL   C10339387   3.439   7.422   5.208  0.3459  0.5688  0.1200
  123MOL   H10439388   3.547   7.578   4.675  1.9099  0.3030 -0.4476
  123MOL   H10539389   3.624   7.640   4.819  0.9553 -2.3341 -0.5171
  123MOL   H10639390   3.353   7.512   4.837 -0.5681 -1.6547 -0.5922
  123MOL   H10739391   3.315   7.403   5.051  0.3566  1.1213 -0.4718
  123MOL   H10839392   3.243   7.641   5.013 -1.8532  0.6818  0.8060
  123MOL   H10939393   3.312   7.690   5.169  1.5768  0.0358 -0.3931
  123MOL   H11039394   3.185   7.568   5.160 -2.1893  2.4282 -2.3136
  123MOL   H11139395   3.377   7.389   5.292  0.6760  0.1037  0.1861
  123MOL   H11239396   3.517   7.489   5.244  0.7380 -0.6606  1.6353
  123MOL   H11339397   3.484   7.325   5.186 -1.8187 -0.3084 -0.5813
  123MOL   C11439398   3.498   7.358   4.831 -0.4807  0.4245 -0.3557
  123MOL   C11539399   3.445   7.289   4.706 -0.1079  0.3814 -0.2585
  123MOL   O11639400   3.535   7.310   4.603  0.4456 -0.3783 -0.1487
  123MOL   C11739401   3.481   7.360   4.482 -0.1971  0.4486 -0.0140
  123MOL   C11839402   3.425   7.255   4.397 -0.5501 -0.0898 -0.4570
  123MOL   C11939403   3.586   7.428   4.398 -1.0310 -0.7555 -0.1722
  123MOL   H12039404   3.472   7.293   4.915  2.8236 -1.3927 -0.6605
  123MOL   H12139405   3.605   7.337   4.838 -0.2083  1.9062  0.1924
  123MOL   H12239406   3.348   7.329   4.675  0.0239  0.9465  0.0466
  123MOL   H12339407   3.396   7.428   4.486 -0.4905  0.0215  1.3415
  123MOL   H12439408   3.336   7.206   4.435 -0.6693  0.9374  0.6062
  123MOL   H12539409   3.500   7.177   4.385  0.4390  0.9015 -0.8475
  123MOL   H12639410   3.398   7.298   4.300  0.8733  2.0325  0.0506
  123MOL   H12739411   3.670   7.365   4.369  0.9007  2.4818 -1.8444
  123MOL   H12839412   3.631   7.512   4.451 -2.3439 -0.8772  1.1833
  123MOL   H12939413   3.559   7.470   4.302  2.6264 -1.2789 -1.5213
  123MOL   C13039414   3.432   7.132   4.731  0.5897  0.1451 -0.2206
  123MOL   C13139415   3.294   7.096   4.799  0.3732 -0.3040 -0.0713
  123MOL   O13239416   3.305   6.961   4.849 -0.4300  0.4662  0.1403
  123MOL   C13339417   3.352   6.948   4.978 -0.3092  0.3096  0.0333
  123MOL   C13439418   3.250   7.005   5.085  0.0638  0.0654  0.1154
  123MOL   C13539419   3.374   6.803   4.989 -0.2425  1.0279  0.4594
  123MOL   H13639420   3.517   7.090   4.784  0.2618 -1.6697 -1.0973
  123MOL   H13739421   3.431   7.079   4.636 -1.1676  0.6908 -0.5193
  123MOL   H13839422   3.264   7.174   4.869 -2.9131  0.1200 -1.8437
  123MOL   H13939423   3.442   7.010   4.984 -1.0868  1.7476 -2.3746
  123MOL   H14039424   3.245   7.113   5.103 -0.9696  0.0128  0.1771
  123MOL   H14139425   3.276   6.966   5.183  2.3929  0.9547 -0.1159
  123MOL   H14239426   3.151   6.966   5.060  0.6557 -2.0021  0.9523
  123MOL   H14339427   3.285   6.741   4.994  1.5306 -1.7531 -1.0277
  123MOL   H14439428   3.444   6.766   4.913  2.4059  3.0697  1.8329
  123MOL   H14539429   3.426   6.795   5.084 -1.8992 -0.2252  1.2809
  123MOL   C14639430   3.186   7.104   4.697  0.2018 -0.0333 -0.1874
  123MOL   C14739431   3.037   7.119   4.745 -0.2084  1.1585 -0.8040
  123MOL   O14839432   3.046   7.251   4.795 -0.3703 -0.7821 -0.0719
  123MOL   C14939433   2.936   7.292   4.875 -0.4438  0.4392  0.3665
  123MOL   C15039434   2.883   7.431   4.824 -0.0347  0.2925 -0.1082
  123MOL   C15139435   2.971   7.297   5.018  0.0324  0.2264  0.0956
  123MOL   H15239436   3.189   7.016   4.632 -0.1797  0.6896 -1.1767
  123MOL   H15339437   3.197   7.194   4.637  1.8676 -0.6716 -0.8625
  123MOL   H15439438   3.026   7.044   4.824 -0.2383  1.4889 -0.4925
  123MOL   H15539439   2.857   7.217   4.867  1.5080 -1.6336  0.1016
  123MOL   H15639440   2.797   7.465   4.881 -0.6435  1.9346 -1.9618
  123MOL   H15739441   2.867   7.418   4.717  1.6932 -0.8740 -0.2654
  123MOL   H15839442   2.953   7.513   4.841 -1.2178  1.5200 -1.0389
  123MOL   H15939443   3.049   7.370   5.042 -2.0558  1.5685  3.0476
  123MOL   H16039444   3.007   7.200   5.052  0.0444  0.3723  0.4984
  123MOL   H16139445   2.885   7.324   5.078  0.8073  1.0029  0.8719
  123MOL   C16239446   2.928   7.118   4.626 -0.7480 -0.5762 -0.7332
  123MOL   C16339447   2.917   6.977   4.560 -0.0703  0.1848 -0.1260
  123MOL   O16439448   2.868   6.887   4.658 -1.0319 -0.0319 -0.1420
  123MOL   C16539449   2.957   6.777   4.690  0.2897 -0.2956  0.6747
  123MOL   C16639450   2.948   6.673   4.580 -0.7411 -0.0778  0.0883
  123MOL   C16739451   2.910   6.709   4.824 -0.5415 -0.7842  0.6182
  123MOL   H16839452   2.835   7.154   4.669 -0.4298 -0.9566  0.2816
  123MOL   H16939453   2.948   7.204   4.562 -1.1136  0.0602  0.0008
  123MOL   H17039454   3.010   6.939   4.518 -0.8431 -3.0542  0.8862
  123MOL   H17139455   3.063   6.803   4.690  0.5538 -1.2385 -2.0615
  123MOL   H17239456   2.846   6.642   4.558 -0.7394  1.0136 -1.6010
  123MOL   H17339457   3.008   6.586   4.605 -1.1476 -0.5608 -0.5999
  123MOL   H17439458   2.990   6.709   4.486  0.6384 -1.3596  0.1982
  123MOL   H17539459   2.813   6.663   4.809 -0.6409 -0.3804 -0.0123
  123MOL   H17639460   2.898   6.777   4.909 -1.6489 -1.6385  1.1563
  123MOL   H17739461   2.979   6.631   4.855  0.0879 -0.5681 -0.2060
  123MOL   C17839462   2.822   6.970   4.450 -0.1041 -0.1991 -0.0053
  123MOL   C17939463   2.859   7.061   4.324  0.2700 -0.0433 -0.3142
  123MOL   O18039464   2.834   6.991   4.206 -0.2411 -0.1095  0.0715
  123MOL   C18139465   2.924   6.893   4.165 -0.2303  0.8330 -0.3298
  123MOL   C18239466   3.009   6.946   4.056 -0.1825  0.8411  0.1755
  123MOL   C18339467   2.835   6.773   4.108 -0.2621 -0.1809 -0.0758
  123MOL   H18439468   2.727   6.992   4.498 -1.5524 -1.8090 -2.0512
  123MOL   H18539469   2.794   6.870   4.417  2.1668 -1.7774  2.6077
  123MOL   H18639470   2.964   7.092   4.324  0.1713  0.2895 -0.4037
  123MOL   H18739471   2.983   6.856   4.249 -0.8767  2.4154  0.8484
  123MOL   H18839472   3.066   7.030   4.097  0.2302 -0.1131  1.5983
  123MOL   H18939473   2.953   6.976   3.967  0.0964 -0.8994 -0.5988
  123MOL   H19039474   3.083   6.870   4.032  1.1430  1.6931  1.4536
  123MOL   H19139475   2.758   6.811   4.042  0.2150  0.1334 -0.4516
  123MOL   H19239476   2.787   6.707   4.180 -1.4378 -0.1070 -0.7793
  123MOL   H19339477   2.905   6.706   4.058 -0.6806 -0.1581 -0.6944
  123MOL   C19439478   2.769   7.179   4.308 -0.3843 -0.3343  0.1010
  123MOL   C19539479   2.835   7.318   4.257  0.2867  0.2329 -0.0755
  123MOL   O19639480   2.746   7.422   4.294  0.1035  0.5328  0.7750
  123MOL   C19739481   2.762   7.474   4.420  0.4585  0.1132  0.0185
  123MOL   C19839482   2.871   7.587   4.420  0.3560 -0.5866  0.3484
  123MOL   C19939483   2.624   7.536   4.463 -0.0092 -0.1466 -0.2477
  123MOL   H20039484   2.678   7.158   4.251 -0.1179  0.5746 -0.6729
  123MOL   H20139485   2.734   7.208   4.406  0.1035  0.4087  0.0609
  123MOL   H20239486   2.932   7.326   4.306 -0.2295  2.9333  0.5777
  123MOL   H20339487   2.784   7.396   4.493 -1.9418 -1.0432 -0.4478
  123MOL   H20439488   2.851   7.662   4.343  0.1107 -0.7575  0.2438
  123MOL   H20539489   2.880   7.627   4.521  1.5818 -1.4984  0.6207
  123MOL   H20639490   2.963   7.538   4.387  0.1508 -1.4728  1.0868
  123MOL   H20739491   2.584   7.616   4.401 -0.0920 -1.1037 -1.4404
  123MOL   H20839492   2.542   7.467   4.485 -0.4646  0.6446  0.5955
  123MOL   H20939493   2.642   7.582   4.561 -1.7320  1.5778 -0.7226
  123MOL   C21039494   2.840   7.314   4.107  0.3038  1.1121  0.5834
  123MOL   C21139495   2.943   7.421   4.044 -0.2467  0.6072 -0.0742
  123MOL   O21239496   3.070   7.380   4.089 -0.1021 -0.0959 -0.1844
  123MOL   C21339497   3.173   7.477   4.090 -0.5789 -0.6301  0.1699
  123MOL   C21439498   3.199   7.509   4.238 -0.6960  0.0565 -0.6067
  123MOL   C21539499   3.299   7.403   4.045  0.3323  0.3890  0.1499
  123MOL   H21639500   2.741   7.328   4.065  0.6387  2.3005  0.1589
  123MOL   H21739501   2.867   7.214   4.072 -2.3978  0.6838 -0.3768
  123MOL   H21839502   2.913   7.517   4.084  0.0752  0.8854 -0.5051
  123MOL   H21939503   3.166   7.566   4.027 -1.4017 -1.1738 -0.5155
  123MOL   H22039504   3.143   7.598   4.266 -0.7724 -0.3930  0.6994
  123MOL   H22139505   3.301   7.542   4.258  0.0824 -1.1956 -2.3762
  123MOL   H22239506   3.178   7.422   4.301  1.4708  0.1252  0.2331
  123MOL   H22339507   3.385   7.465   4.070 -0.4358  2.1599 -1.4934
  123MOL   H22439508   3.301   7.378   3.939 -0.2653 -1.0488  0.4612
  123MOL   H22539509   3.311   7.308   4.098  1.7701  1.0129  0.9955
  123MOL   C22639510   2.946   7.415   3.888  0.1883 -0.1793 -0.1034
  123MOL   C22739511   2.847   7.507   3.818  0.6186  0.3032  0.5293
  123MOL   O22839512   2.720   7.460   3.856  0.5770  0.5163 -0.4096
  123MOL   C22939513   2.618   7.561   3.884 -0.4781 -0.1763  0.2945
  123MOL   C23039514   2.657   7.630   4.022  0.7235 -1.1939 -0.3926
  123MOL   C23139515   2.485   7.484   3.899  0.1512 -0.0412 -0.5794
  123MOL   H23239516   2.919   7.313   3.863  1.3032 -0.0363 -1.9543
  123MOL   H23339517   3.043   7.433   3.842 -0.0216 -0.3314 -0.6070
  123MOL   H23439518   2.884   7.605   3.849  2.7709 -1.1005  2.6179
  123MOL   H23539519   2.624   7.632   3.802  1.4680  0.1877  0.7205
  123MOL   H23639520   2.631   7.570   4.109 -1.9985  1.4082  0.6438
  123MOL   H23739521   2.758   7.669   4.013  0.3435  0.6125  2.3815
  123MOL   H23839522   2.586   7.708   4.050  2.8888  0.9413 -0.7211
  123MOL   H23939523   2.402   7.550   3.923 -1.1693 -2.3699  1.6183
  123MOL   H24039524   2.495   7.405   3.974 -0.8427  0.0001 -0.3992
  123MOL   H24139525   2.457   7.416   3.819 -1.5430  1.0368 -0.9327
  123MOL   C24239526   2.845   7.492   3.666 -0.7612  0.4046  0.8668
  123MOL   C24339527   2.974   7.525   3.595 -0.0763  0.2168 -0.5313
  123MOL   O24439528   3.016   7.664   3.615  0.0160 -0.3607 -0.4331
  123MOL   C24539529   3.156   7.683   3.602 -0.4722  0.4742 -0.5666
  123MOL   C24639530   3.184   0.012   3.570 -0.1746  0.0742  0.5015
  123MOL   C24739531   3.217   7.651   3.741  0.3476 -0.7142  0.7352
  123MOL   H24839532   2.830   7.386   3.642 -0.4878  0.5048  0.2452
  123MOL   H24939533   2.755   7.536   3.624 -0.7912  0.3277  0.8489
  123MOL   H25039534   3.052   7.460   3.635  1.3787  3.0592  1.4431
  123MOL   H25139535   3.210   7.620   3.531 -0.5748 -0.1249 -0.1218
  123MOL   H25239536   3.136   0.078   3.643  2.7331  1.1154  1.5458
  123MOL   H25339537   3.290   0.033   3.568 -0.4766  1.5890 -0.1570
  123MOL   H25439538   3.154   0.041   3.470  1.4043  0.1733  0.0464
  123MOL   H25539539   3.320   7.687   3.738 -0.0073  0.2832  0.3443
  123MOL   H25639540   3.172   7.692   3.831 -0.1195 -0.7008  0.4956
  123MOL   H25739541   3.222   7.545   3.768 -0.1434 -1.4173 -1.8162
  123MOL   C25839542   2.959   7.510   3.443 -0.3621  0.9642 -0.0599
  123MOL   C25939543   2.913   7.361   3.397 -0.3707  0.1024  0.0166
  123MOL   O26039544   2.979   7.324   3.273  0.6031 -0.4185  0.3552
  123MOL   C26139545   3.099   7.252   3.282  0.5440 -0.3319 -0.3639
  123MOL   C26239546   3.126   7.207   3.137 -0.2973  0.1294  0.5471
  123MOL   C26339547   3.225   7.323   3.337 -0.9112 -0.4023 -0.1022
  123MOL   H26439548   2.891   7.586   3.404 -0.2527  0.6735 -0.8149
  123MOL   H26539549   3.052   7.534   3.392 -0.6042  1.0979 -0.4437
  123MOL   H26639550   2.930   7.281   3.468 -0.0653 -1.7074 -2.0274
  123MOL   H26739551   3.073   7.170   3.350 -1.9461  0.1616 -0.6738
  123MOL   H26839552   3.044   7.142   3.108 -1.3646  2.4217 -1.8302
  123MOL   H26939553   3.212   7.142   3.122 -1.8681 -1.4655 -2.0110
  123MOL   H27039554   3.145   7.283   3.060  2.4770 -0.0652  0.9941
  123MOL   H27139555   3.269   7.398   3.272  0.1986 -2.4981 -1.8328
  123MOL   H27239556   3.202   7.377   3.428  0.8627  0.4692 -0.1551
  123MOL   H27339557   3.303   7.252   3.364 -0.3963  0.9181  1.9894
  123MOL   C27439558   2.762   7.351   3.356  0.6190  0.3994  0.3734
  123MOL   C27539559   2.696   7.219   3.343  0.7889 -0.0720  0.7628
  123MOL   O27639560   2.554   7.240   3.345  0.1364 -0.4678  0.0876
  123MOL   C27739561   2.488   7.198   3.466  0.1520 -0.1172  0.9375
  123MOL   C27839562   2.345   7.162   3.418  0.1732  0.5928  0.1089
  123MOL   C27939563   2.501   7.305   3.571 -0.0124 -0.5032 -0.5715
  123MOL   H28039564   2.701   7.398   3.434  1.4856  1.3617  0.4813
  123MOL   H28139565   2.738   7.403   3.264 -0.4313 -0.1823  0.3043
  123MOL   H28239566   2.716   7.165   3.436  2.9207 -0.4920  0.0949
  123MOL   H28339567   2.531   7.105   3.501  1.8642 -0.8492 -2.8827
  123MOL   H28439568   2.351   7.072   3.357 -0.1208  1.3058 -0.9714
  123MOL   H28539569   2.278   7.148   3.503 -0.6621  0.7745 -0.5285
  123MOL   H28639570   2.317   7.236   3.344  0.2711 -0.5902 -1.1314
  123MOL   H28739571   2.439   7.284   3.658  2.7448 -1.7243  1.1890
  123MOL   H28839572   2.472   7.401   3.530 -0.4190  0.1867  1.2867
  123MOL   H28939573   2.602   7.310   3.613 -1.0723 -0.6130  2.0707
  123MOL   C29039574   2.749   7.121   3.232  0.4230 -0.1533  0.2337
  123MOL   C29139575   2.682   6.979   3.237 -0.0159 -0.5129  0.4119
  123MOL   O29239576   2.708   6.904   3.116 -0.3657 -0.5033 -0.4872
  123MOL   C29339577   2.664   6.951   2.990 -0.6409 -0.9972 -0.3393
  123MOL   C29439578   2.611   6.833   2.917  0.2700 -0.0744 -0.1004
  123MOL   C29539579   2.793   7.006   2.921  0.5527 -0.0059 -0.3562
  123MOL   H29639580   2.858   7.113   3.232  0.4497  0.1585  0.7916
  123MOL   H29739581   2.723   7.159   3.133  0.4165 -0.6951  0.0305
  123MOL   H29839582   2.574   6.982   3.250  0.2570 -0.2888  2.8296
  123MOL   H29939583   2.592   7.032   3.000 -0.6009 -0.9571 -0.3789
  123MOL   H30039584   2.683   6.751   2.911 -1.2807 -1.4899  0.2254
  123MOL   H30139585   2.523   6.798   2.970  1.2297  0.8989  2.2117
  123MOL   H30239586   2.576   6.864   2.818 -3.0526 -1.3866  0.6012
  123MOL   H30339587   2.885   6.956   2.951 -0.2238 -1.5325 -0.4962
  123MOL   H30439588   2.775   7.006   2.813 -0.2454  1.2091 -0.2372
  123MOL   H30539589   2.805   7.114   2.931  0.6398 -0.0614  0.1353
  123MOL   C30639590   2.741   6.892   3.348  0.6992 -0.0746  0.8169
  123MOL   C30739591   2.665   6.746   3.349  0.0534 -0.8380  0.5013
  123MOL   O30839592   2.718   6.681   3.462 -0.3736 -0.1141  0.7465
  123MOL   C30939593   2.634   6.586   3.534  0.4068 -0.2371  0.9219
  123MOL   C31039594   2.652   6.457   3.463 -0.1645 -0.1691  0.0532
  123MOL   C31139595   2.670   6.573   3.686  0.1063 -0.8476 -0.2089
  123MOL   H31239596   2.735   6.939   3.446  1.5090 -1.9228  1.7889
  123MOL   H31339597   2.848   6.881   3.331  0.8034 -0.2091  1.5304
  123MOL   H31439598   2.558   6.765   3.357  0.2326  0.0623  0.8866
  123MOL   H31539599   2.530   6.618   3.529 -0.4193 -2.5906  2.1594
  123MOL   H31639600   2.644   6.466   3.354  0.3902  0.3611  0.0540
  123MOL   H31739601   2.574   6.386   3.490 -1.0051  0.3793 -0.8880
  123MOL   H31839602   2.744   6.404   3.486 -0.6425 -0.6437  0.8956
  123MOL   H31939603   2.586   6.532   3.743 -0.9460  0.8618 -0.4840
  123MOL   H32039604   2.681   6.667   3.740 -1.8732 -0.4583 -0.4353
  123MOL   H32139605   2.752   6.507   3.711  0.4271 -0.8952 -1.3647
  123MOL   H32239606   2.699   6.700   3.257  0.7196  1.0101 -0.2071
  124MOL     C139607   2.523   5.415   0.901  0.2916  0.2048 -0.1470
  124MOL     C239608   2.499   5.544   0.820  0.8895  0.1833 -0.5253
  124MOL     O339609   2.621   5.614   0.797  0.1572  0.4553  0.4167
  124MOL     C439610   2.607   5.748   0.814  0.1057 -0.0512 -0.8046
  124MOL     C539611   2.692   5.819   0.704  0.3792 -0.3117 -0.0267
  124MOL     C639612   2.649   5.773   0.959  0.1584 -0.4024  0.5783
  124MOL     H739613   2.432   5.359   0.920 -1.0591  2.2617 -0.3966
  124MOL     H839614   2.608   5.353   0.871 -0.3004  0.0951 -1.6306
  124MOL     H939615   2.433   5.601   0.885  2.8399 -0.3595  1.9888
  124MOL    H1039616   2.507   5.786   0.797 -0.7267 -0.8422  2.0086
  124MOL    H1139617   2.704   5.921   0.740  0.1650 -0.0735 -0.6150
  124MOL    H1239618   2.794   5.782   0.711  0.9729  1.2520 -0.2620
  124MOL    H1339619   2.647   5.810   0.605  1.8557  1.6512 -0.9102
  124MOL    H1439620   2.584   5.708   1.018  0.1598 -1.2534 -0.3460
  124MOL    H1539621   2.755   5.762   0.983  0.8463  0.0244 -2.1586
  124MOL    H1639622   2.627   5.878   0.979  2.2614  0.0347  0.6662
  124MOL    H1739623   2.555   5.440   1.002  2.9696 -0.7829 -0.6993
  124MOL    C1839624   2.437   5.515   0.685 -0.2941 -0.1399 -0.5086
  124MOL    C1939625   2.296   5.455   0.676  0.3135  0.0636 -0.4868
  124MOL    O2039626   2.282   5.348   0.586 -0.2464 -0.5000  0.3032
  124MOL    C2139627   2.343   5.221   0.607 -0.1454 -0.3176  1.0083
  124MOL    C2239628   2.405   5.167   0.480 -0.1760  0.1795 -0.3131
  124MOL    C2339629   2.237   5.125   0.658  0.5550 -0.5491 -0.4283
  124MOL    H2439630   2.438   5.606   0.626 -0.7605  0.2660  0.1125
  124MOL    H2539631   2.511   5.453   0.633  0.1360  1.1826 -1.4836
  124MOL    H2639632   2.278   5.412   0.774  0.7446  1.1374  0.0708
  124MOL    H2739633   2.419   5.225   0.685  2.0863  1.8201 -1.1640
  124MOL    H2839634   2.439   5.065   0.500  0.4221  0.6928  1.3857
  124MOL    H2939635   2.335   5.161   0.398  1.1891  1.9142 -1.6370
  124MOL    H3039636   2.483   5.235   0.445  1.3003 -1.3307 -0.0519
  124MOL    H3139637   2.156   5.111   0.586 -1.1165 -1.8885  1.6491
  124MOL    H3239638   2.188   5.159   0.749  1.6283 -0.7846  0.2463
  124MOL    H3339639   2.275   5.026   0.681  1.3588  0.0485  0.9051
  124MOL    C3439640   2.182   5.550   0.633 -0.1539  0.9426 -0.5065
  124MOL    C3539641   2.161   5.669   0.726  0.0942 -0.3496  0.0037
  124MOL    O3639642   2.065   5.754   0.666 -0.1366  0.1959  0.0858
  124MOL    C3739643   2.100   5.850   0.562 -0.1799 -0.1632  0.0668
  124MOL    C3839644   1.959   5.894   0.506  1.0449 -0.0841  0.3493
  124MOL    C3939645   2.178   5.969   0.625 -0.6368  1.2544  0.2893
  124MOL    H4039646   2.092   5.493   0.612 -0.3843  2.4182 -3.7813
  124MOL    H4139647   2.193   5.600   0.537 -1.0834 -0.9751 -1.6257
  124MOL    H4239648   2.260   5.712   0.741 -0.8102  2.3203 -1.2596
  124MOL    H4339649   2.156   5.811   0.477 -1.1108  0.0968 -0.6671
  124MOL    H4439650   1.970   5.954   0.415  0.4762 -0.7374 -0.1561
  124MOL    H4539651   1.893   5.938   0.581 -0.4567 -0.3537 -0.7950
  124MOL    H4639652   1.898   5.810   0.471  1.4923  0.7967 -2.7671
  124MOL    H4739653   2.252   5.935   0.697 -2.9234 -1.3120  1.5151
  124MOL    H4839654   2.217   6.024   0.539  0.0762  1.2993  0.6390
  124MOL    H4939655   2.111   6.044   0.667 -1.0178  1.0821 -0.0010
  124MOL    C5039656   2.104   5.623   0.867 -0.1134  0.1556 -0.0900
  124MOL    C5139657   2.105   5.734   0.974  0.7800 -0.0164 -0.3151
  124MOL    O5239658   2.238   5.769   1.015  0.3603  0.2918  0.2764
  124MOL    C5339659   2.255   5.885   1.093  0.2593 -0.1843  0.0814
  124MOL    C5439660   2.313   5.987   0.996 -0.1599 -0.3938  0.2519
  124MOL    C5539661   2.349   5.861   1.211 -0.1550 -0.1374 -0.3207
  124MOL    H5639662   2.008   5.572   0.875  0.4298 -1.1680 -1.8187
  124MOL    H5739663   2.161   5.540   0.907  0.7759 -0.3231 -2.3030
  124MOL    H5839664   2.060   5.822   0.929  0.1558  0.9439  2.1412
  124MOL    H5939665   2.159   5.924   1.125 -0.7826 -0.9282 -2.0629
  124MOL    H6039666   2.239   6.026   0.926  0.9638 -0.3705 -0.9420
  124MOL    H6139667   2.397   5.947   0.938  0.6832  0.0855  1.1292
  124MOL    H6239668   2.358   6.071   1.049  1.2021 -1.2903  0.5458
  124MOL    H6339669   2.360   5.946   1.278 -3.2472 -0.4745  0.6844
  124MOL    H6439670   2.444   5.832   1.166 -0.1837  0.0339 -0.4948
  124MOL    H6539671   2.309   5.779   1.270 -0.1019  0.5431  0.6742
  124MOL    C6639672   2.014   5.690   1.092  0.1188  0.1007  0.7463
  124MOL    C6739673   1.871   5.718   1.073  0.6685  0.6495 -0.0066
  124MOL    O6839674   1.846   5.863   1.078  0.6203  0.2317 -0.2769
  124MOL    C6939675   1.740   5.917   1.007  1.0716  0.2504 -0.0631
  124MOL    C7039676   1.681   6.036   1.084  0.5979 -0.1385 -0.0380
  124MOL    C7139677   1.782   5.979   0.869 -0.3006  0.2493 -0.1906
  124MOL    H7239678   2.041   5.585   1.098 -0.0897 -0.2436 -3.0981
  124MOL    H7339679   2.041   5.732   1.188  1.8564  0.8186 -0.0332
  124MOL    H7439680   1.843   5.682   0.974  1.7989  2.2764 -0.9397
  124MOL    H7539681   1.660   5.845   0.990  1.7228 -0.3521 -0.6019
  124MOL    H7639682   1.648   6.013   1.185  2.0098 -1.5712  0.1233
  124MOL    H7739683   1.758   6.113   1.090 -0.2807  0.8824 -1.3943
  124MOL    H7839684   1.594   6.065   1.025  0.5078  1.0811  0.6845
  124MOL    H7939685   1.698   6.033   0.826 -1.4982 -2.5142 -1.3981
  124MOL    H8039686   1.812   5.897   0.804  0.0643  0.1945  0.0395
  124MOL    H8139687   1.860   6.050   0.897  0.9267 -0.8758 -0.6866
  124MOL    C8239688   1.786   5.657   1.190 -0.3581 -0.2970  1.1823
  124MOL    C8339689   1.753   5.509   1.178 -0.3337 -0.1573 -0.2257
  124MOL    O8439690   1.866   5.427   1.168 -0.3836  0.3941  0.0451
  124MOL    C8539691   1.884   5.352   1.047 -0.3397  0.0265  0.2440
  124MOL    C8639692   1.769   5.250   1.036  0.0405 -0.3312 -0.2650
  124MOL    C8739693   2.019   5.278   1.057 -0.4446 -0.3597 -0.7273
  124MOL    H8839694   1.840   5.669   1.284  1.6573 -1.1370  0.1540
  124MOL    H8939695   1.691   5.711   1.187 -0.0398  0.2418 -3.5262
  124MOL    H9039696   1.677   5.494   1.101 -1.1715  4.7802 -0.5093
  124MOL    H9139697   1.879   5.417   0.959 -0.4792  0.2968  0.4484
  124MOL    H9239698   1.675   5.287   0.995 -0.9882  0.5393  2.7243
  124MOL    H9339699   1.806   5.168   0.975  1.9275 -0.4881  1.0318
  124MOL    H9439700   1.750   5.208   1.135  2.2833 -1.4711 -0.2912
  124MOL    H9539701   2.103   5.344   1.080 -1.5486  0.2397  1.6876
  124MOL    H9639702   2.016   5.198   1.131 -0.1348 -0.2951 -0.6467
  124MOL    H9739703   2.040   5.233   0.960  1.6382  0.0980 -0.5038
  124MOL    C9839704   1.680   5.463   1.307 -0.3512 -0.1715  0.0006
  124MOL    C9939705   1.523   5.455   1.304 -0.3853 -1.0575 -0.0858
  124MOL   O10039706   1.484   5.594   1.289 -0.2741 -0.4676  0.2556
  124MOL   C10139707   1.413   5.627   1.167  0.1271 -0.2510 -0.3273
  124MOL   C10239708   1.398   5.783   1.183  0.1666  0.2162 -0.2223
  124MOL   C10339709   1.271   5.563   1.162  0.3105  0.1723  0.7293
  124MOL   H10439710   1.712   5.365   1.342 -0.9589 -0.3694  0.0064
  124MOL   H10539711   1.707   5.528   1.390  0.1110 -1.0466  0.5391
  124MOL   H10639712   1.494   5.401   1.213 -2.3862  1.7762 -1.2071
  124MOL   H10739713   1.464   5.603   1.075  0.4155  3.9067 -1.3596
  124MOL   H10839714   1.357   5.813   1.279 -2.4234  1.0302 -1.5278
  124MOL   H10939715   1.322   5.814   1.111 -0.5029  0.9047  0.7750
  124MOL   H11039716   1.483   5.837   1.142  1.4408 -1.2368  0.4818
  124MOL   H11139717   1.285   5.458   1.136  2.4753  0.8871 -1.1505
  124MOL   H11239718   1.196   5.606   1.097  1.1038 -1.6766 -1.4729
  124MOL   H11339719   1.238   5.565   1.266  1.6155 -0.9907  1.1755
  124MOL   C11439720   1.455   5.394   1.432 -0.1203 -0.3725  0.5498
  124MOL   C11539721   1.471   5.240   1.435  0.6094 -0.1225 -0.6851
  124MOL   O11639722   1.436   5.181   1.565  0.3695 -0.2161  0.2370
  124MOL   C11739723   1.536   5.200   1.671 -0.0936  0.5590  0.1280
  124MOL   C11839724   1.579   5.060   1.709  0.2193 -0.6927  0.4817
  124MOL   C11939725   1.483   5.271   1.797 -0.4256  0.4957 -0.7035
  124MOL   H12039726   1.352   5.428   1.440  0.1542  0.5489  0.1799
  124MOL   H12139727   1.513   5.431   1.516  0.6302 -1.8443  0.6909
  124MOL   H12239728   1.576   5.214   1.422  0.4906 -0.4398 -1.0228
  124MOL   H12339729   1.623   5.257   1.638 -0.6138  0.9313 -0.6050
  124MOL   H12439730   1.646   5.064   1.795 -0.1492 -0.7389  0.7729
  124MOL   H12539731   1.630   5.012   1.625  0.5489 -0.4781  0.5595
  124MOL   H12639732   1.496   4.990   1.719 -1.5619  1.4630  1.1730
  124MOL   H12739733   1.444   5.369   1.771  2.9162  2.6504  1.9122
  124MOL   H12839734   1.564   5.283   1.869 -0.0359  1.1110 -1.2392
  124MOL   H12939735   1.410   5.205   1.843 -1.3739  0.7352 -1.8385
  124MOL   C13039736   1.394   5.160   1.323  0.2439  0.5915 -0.3235
  124MOL   C13139737   1.430   5.014   1.318  0.6309 -0.4975  0.4637
  124MOL   O13239738   1.568   5.017   1.270  0.7488 -0.2022 -0.0783
  124MOL   C13339739   1.657   4.924   1.335 -0.3995  0.2930  0.3752
  124MOL   C13439740   1.642   4.797   1.250 -1.3552 -0.3885 -0.1313
  124MOL   C13539741   1.796   4.994   1.332 -0.2333  0.8759  0.1529
  124MOL   H13639742   1.408   5.206   1.225 -1.0349 -3.8799 -2.7554
  124MOL   H13739743   1.287   5.173   1.341 -0.0789  0.0982 -1.7915
  124MOL   H13839744   1.426   4.959   1.412  0.0299  0.5973  1.0883
  124MOL   H13939745   1.643   4.885   1.436 -2.7745 -2.7764 -1.0333
  124MOL   H14039746   1.646   4.815   1.142 -1.1482  0.1703 -0.0300
  124MOL   H14139747   1.547   4.749   1.272 -2.1941  1.2239 -0.1890
  124MOL   H14239748   1.714   4.720   1.280  1.1901  1.4796 -1.2931
  124MOL   H14339749   1.776   5.096   1.366 -0.0897  1.1296 -0.5284
  124MOL   H14439750   1.865   4.932   1.389 -0.0365  0.5531 -0.4441
  124MOL   H14539751   1.832   4.989   1.230 -0.0556  0.6168  0.2279
  124MOL   C14639752   1.343   4.944   1.213 -0.3432  0.1875 -0.0068
  124MOL   C14739753   1.232   4.862   1.270 -0.5699  0.2759  0.2994
  124MOL   O14839754   1.154   4.946   1.351  0.0349 -0.1836 -0.4894
  124MOL   C14939755   1.088   4.892   1.462 -1.1553 -0.6405  0.8018
  124MOL   C15039756   0.970   4.983   1.474 -0.3236  0.8580  0.2241
  124MOL   C15139757   1.182   4.911   1.579 -0.6669 -0.1132 -0.6379
  124MOL   H15239758   1.401   4.890   1.138  1.7153  1.4883  0.5984
  124MOL   H15339759   1.295   5.025   1.159 -1.5775 -1.6266 -1.7077
  124MOL   H15439760   1.278   4.782   1.327  1.0670 -1.0950 -2.8331
  124MOL   H15539761   1.067   4.785   1.468  2.5975 -1.4085  1.3590
  124MOL   H15639762   0.934   4.975   1.577  3.3043 -1.6703  1.4040
  124MOL   H15739763   0.885   4.959   1.411 -0.5955  1.9454  0.1619
  124MOL   H15839764   0.989   5.088   1.450 -1.1474  0.8890 -0.2820
  124MOL   H15939765   1.135   4.896   1.677  0.1990  1.2204 -0.0029
  124MOL   H16039766   1.212   5.015   1.579  0.7863 -0.5159 -1.9672
  124MOL   H16139767   1.272   4.850   1.579 -1.4628 -1.3298  0.0218
  124MOL   C16239768   1.148   4.799   1.152  0.3883  0.1573  0.2620
  124MOL   C16339769   1.223   4.687   1.080  0.2089  0.0871  0.2978
  124MOL   O16439770   1.208   4.564   1.154 -0.7613  0.8334 -0.3463
  124MOL   C16539771   1.308   4.463   1.132 -0.2583  0.2308  0.1227
  124MOL   C16639772   1.246   4.334   1.187 -0.0479 -0.1914 -0.4856
  124MOL   C16739773   1.450   4.495   1.189  0.0191 -0.5887 -0.2767
  124MOL   H16839774   1.061   4.751   1.197  2.6512 -1.4190  3.1798
  124MOL   H16939775   1.116   4.880   1.086 -2.1017 -2.8798 -2.3959
  124MOL   H17039776   1.329   4.710   1.076  0.7271 -2.5138 -3.6387
  124MOL   H17139777   1.320   4.449   1.025  3.4872  0.2078  0.4965
  124MOL   H17239778   1.141   4.336   1.158  0.3286  1.1864 -1.8275
  124MOL   H17339779   1.246   4.325   1.296 -0.3334 -0.0720 -0.4740
  124MOL   H17439780   1.308   4.257   1.142 -0.4486 -0.0204 -1.3502
  124MOL   H17539781   1.437   4.532   1.291  0.0029 -0.9511 -0.1462
  124MOL   H17639782   1.494   4.574   1.127  0.4296 -0.2688  0.4154
  124MOL   H17739783   1.512   4.405   1.188  1.4863  0.3463  1.8906
  124MOL   C17839784   1.177   4.664   0.932  0.4667 -0.8084  0.3659
  124MOL   C17939785   1.258   4.753   0.838  0.4015  0.3491  0.3864
  124MOL   O18039786   1.393   4.704   0.838  0.7281  0.5392  0.0459
  124MOL   C18139787   1.488   4.776   0.764  0.3151 -0.2065  0.6591
  124MOL   C18239788   1.558   4.672   0.660  0.0073 -0.2352  0.2833
  124MOL   C18339789   1.594   4.826   0.867  0.3224  0.3213  0.2945
  124MOL   H18439790   1.069   4.671   0.921  0.4538  2.4820  1.8311
  124MOL   H18539791   1.212   4.565   0.903  0.3934 -0.5313 -0.6980
  124MOL   H18639792   1.257   4.858   0.869 -2.2640  1.8779 -4.4165
  124MOL   H18739793   1.443   4.862   0.714  0.6098 -0.5274 -0.1615
  124MOL   H18839794   1.644   4.724   0.617 -0.4797 -0.3707 -0.8751
  124MOL   H18939795   1.482   4.651   0.584 -0.9112  0.6730  0.9236
  124MOL   H19039796   1.582   4.572   0.696 -1.0892 -1.1961 -1.5753
  124MOL   H19139797   1.548   4.867   0.957  0.7646 -0.9294  1.0984
  124MOL   H19239798   1.671   4.893   0.828 -0.1028  0.5144 -0.2247
  124MOL   H19339799   1.639   4.735   0.906 -0.0168 -0.1828 -0.4886
  124MOL   C19439800   1.193   4.744   0.698  0.0754  0.6993  0.3296
  124MOL   C19539801   1.070   4.836   0.671  0.1942  0.2882 -0.3757
  124MOL   O19639802   1.006   4.793   0.549 -0.2379 -0.0219  0.2070
  124MOL   C19739803   0.951   4.665   0.555  0.2488 -0.4425 -0.2718
  124MOL   C19839804   0.807   4.691   0.526  0.0033  0.3800 -0.2648
  124MOL   C19939805   1.024   4.585   0.452 -0.3104  0.0943  0.6601
  124MOL   H20039806   1.269   4.758   0.621 -0.0758  1.9658  0.4082
  124MOL   H20139807   1.173   4.637   0.686 -1.1340  0.7869  1.5109
  124MOL   H20239808   1.000   4.811   0.750 -0.4396 -0.3705 -1.1395
  124MOL   H20339809   0.960   4.622   0.655 -2.3070  2.2368  1.1565
  124MOL   H20439810   0.742   4.608   0.552 -1.8696  1.8948 -0.0289
  124MOL   H20539811   0.777   4.775   0.588  1.6019  0.2094  0.7733
  124MOL   H20639812   0.794   4.713   0.420  0.7077  1.7241 -0.0765
  124MOL   H20739813   1.019   4.636   0.356 -0.1059 -1.5199 -0.2298
  124MOL   H20839814   1.129   4.567   0.478  0.3177 -1.2218 -2.5614
  124MOL   H20939815   0.993   4.481   0.454  0.4987 -0.1206  2.7462
  124MOL   C21039816   1.111   4.986   0.655  0.2420  0.6448 -0.3167
  124MOL   C21139817   1.009   5.093   0.617  0.5015  0.0580  0.1318
  124MOL   O21239818   1.071   5.212   0.660 -0.1452 -0.2899 -0.1841
  124MOL   C21339819   1.031   5.258   0.787 -0.5096 -0.2000 -0.0081
  124MOL   C21439820   1.149   5.265   0.878  0.3500 -0.3955  0.3537
  124MOL   C21539821   0.967   5.395   0.763 -0.1384  0.8597 -0.3948
  124MOL   H21639822   1.198   4.997   0.590  0.4612 -1.3613 -0.3941
  124MOL   H21739823   1.134   5.011   0.759  0.2384  2.6620 -0.7888
  124MOL   H21839824   0.914   5.076   0.670  0.6106  1.5225  0.8082
  124MOL   H21939825   0.958   5.196   0.838 -2.4884  0.9814 -1.3159
  124MOL   H22039826   1.133   5.314   0.974  2.3468  0.2285  0.3848
  124MOL   H22139827   1.227   5.327   0.834 -1.0591 -0.1291 -1.8971
  124MOL   H22239828   1.183   5.167   0.908  0.9692 -0.1964  0.3180
  124MOL   H22339829   1.031   5.449   0.694 -0.7512 -0.0450 -1.6875
  124MOL   H22439830   0.952   5.451   0.855  1.7910  0.5202  0.1384
  124MOL   H22539831   0.869   5.377   0.717 -0.6367  0.6977  0.6930
  124MOL   C22639832   0.976   5.091   0.466 -1.4376  0.2046 -0.5642
  124MOL   C22739833   0.827   5.082   0.425 -0.0855 -0.2787  0.8621
  124MOL   O22839834   0.826   5.108   0.281 -0.1104  0.1754 -0.1809
  124MOL   C22939835   0.812   4.994   0.196 -0.0935  0.0542  0.2856
  124MOL   C23039836   0.880   5.036   0.067 -0.3749  0.3485 -0.0368
  124MOL   C23139837   0.662   4.972   0.172 -0.3089 -0.4559  0.3614
  124MOL   H23239838   1.026   5.013   0.408 -0.3094  0.6427 -0.1967
  124MOL   H23339839   1.011   5.185   0.422 -1.2443 -0.1132 -1.1055
  124MOL   H23439840   0.786   4.984   0.451  0.2709 -0.6494  0.0557
  124MOL   H23539841   0.866   4.908   0.236 -1.9867 -0.4260  1.8378
  124MOL   H23639842   0.832   5.130   0.039 -2.4470 -0.9951 -1.1591
  124MOL   H23739843   0.987   5.045   0.086  0.0251 -2.6008 -0.6731
  124MOL   H23839844   0.864   4.974   7.799  2.0828  1.0802 -1.0098
  124MOL   H23939845   0.642   4.891   0.102 -1.3902 -0.5551  0.7594
  124MOL   H24039846   0.614   5.058   0.125  0.9532 -0.8909 -1.7317
  124MOL   H24139847   0.611   4.940   0.263  0.7552 -0.9348  0.7875
  124MOL   C24239848   0.740   5.201   0.481  0.1892 -0.1439 -0.1317
  124MOL   C24339849   0.582   5.174   0.471 -0.8764  0.9809  0.4897
  124MOL   O24439850   0.509   5.292   0.490  0.2364 -0.3199  0.3775
  124MOL   C24539851   0.489   5.380   0.383 -0.9655  0.4892  0.3219
  124MOL   C24639852   0.355   5.352   0.325 -0.1015  0.0569  0.2048
  124MOL   C24739853   0.502   5.525   0.452  0.8482  0.1754  0.0348
  124MOL   H24839854   0.761   5.218   0.587 -3.8384 -1.0416  0.9117
  124MOL   H24939855   0.774   5.291   0.431  0.7007  0.2842  0.9818
  124MOL   H25039856   0.547   5.133   0.376 -1.3057  0.0317  1.0425
  124MOL   H25139857   0.564   5.361   0.307  0.4173  0.1879  1.7415
  124MOL   H25239858   0.367   5.259   0.270  0.1767  1.2309 -1.7928
  124MOL   H25339859   0.283   5.349   0.407  1.1533  0.6582  1.3406
  124MOL   H25439860   0.328   5.430   0.254  4.4557 -0.1299 -1.8740
  124MOL   H25539861   0.519   5.597   0.371 -0.1063  0.6087  0.2068
  124MOL   H25639862   0.425   5.542   0.527  1.4895 -0.4528  0.8388
  124MOL   H25739863   0.593   5.528   0.512  1.3452 -2.1142 -0.5699
  124MOL   C25839864   0.529   5.075   0.578 -0.2350 -0.3447 -0.1104
  124MOL   C25939865   0.379   5.039   0.557  0.0701  0.0957 -1.0207
  124MOL   O26039866   0.331   4.976   0.676  0.3506  0.2679 -0.7058
  124MOL   C26139867   0.286   5.069   0.772  0.1773  0.4812 -0.6061
  124MOL   C26239868   0.145   5.111   0.748  1.6715  0.3873  0.0104
  124MOL   C26339869   0.298   4.995   0.909 -0.2390  0.2428  0.2073
  124MOL   H26439870   0.580   4.980   0.567  1.4872  0.7145 -1.6934
  124MOL   H26539871   0.554   5.116   0.677  0.9849 -0.0007 -0.5420
  124MOL   H26639872   0.326   5.133   0.543 -0.4148  0.1321  0.9261
  124MOL   H26739873   0.351   5.156   0.779 -0.5908  1.1060 -1.1081
  124MOL   H26839874   0.110   5.161   0.838  1.3221 -1.5375  0.9831
  124MOL   H26939875   0.075   5.027   0.746  1.0923  0.8775 -0.2591
  124MOL   H27039876   0.123   5.165   0.656 -0.9811 -0.6489 -0.0060
  124MOL   H27139877   0.249   4.898   0.909  1.7932 -0.8241 -0.4998
  124MOL   H27239878   0.404   4.998   0.937 -0.3363  0.5001  0.5464
  124MOL   H27339879   0.247   5.062   0.979 -2.3581 -0.0373 -1.0253
  124MOL   C27439880   0.353   4.941   0.440  0.1625  0.1962  0.2835
  124MOL   C27539881   0.202   4.899   0.423  0.2163 -0.4588 -0.2031
  124MOL   O27639882   0.177   4.871   0.282 -0.0315 -0.5810 -0.1049
  124MOL   C27739883   0.155   4.979   0.191 -0.6230 -0.1920 -0.1393
  124MOL   C27839884   7.819   4.996   0.147 -0.1558 -0.3419  0.2754
  124MOL   C27939885   0.241   4.958   0.068 -0.3728 -0.1172  0.4273
  124MOL   H28039886   0.383   4.986   0.346  0.0421 -0.2060  0.0507
  124MOL   H28139887   0.407   4.849   0.462  0.1300  0.7289  2.7746
  124MOL   H28239888   0.127   4.974   0.451 -0.7151 -0.6763 -2.0290
  124MOL   H28339889   0.186   5.074   0.234  1.1386 -0.6966 -0.2808
  124MOL   H28439890   7.758   4.997   0.237 -0.6937  0.3941 -0.0861
  124MOL   H28539891   7.806   5.093   0.097  1.0726 -0.5268 -0.4201
  124MOL   H28639892   7.786   4.921   0.075  1.3916 -0.1773 -0.6334
  124MOL   H28739893   0.217   4.862   0.021 -0.7390 -0.2669  0.9246
  124MOL   H28839894   0.348   4.974   0.086 -0.3528 -0.0062  0.2118
  124MOL   H28939895   0.213   5.020   7.803  1.1442 -2.7265 -2.0836
  124MOL   C29039896   0.173   4.769   0.497  0.7808  0.3387  0.0994
  124MOL   C29139897   0.020   4.741   0.493  0.7833 -0.5034 -0.3797
  124MOL   O29239898   7.815   4.602   0.492  0.5707 -0.0822  0.9409
  124MOL   C29339899   0.012   4.538   0.370  0.2748  1.1820  0.5141
  124MOL   C29439900   7.713   4.542   0.284 -0.5544 -0.3401  0.5844
  124MOL   C29539901   0.052   4.409   0.433  0.1494 -0.2935 -0.0337
  124MOL   H29639902   0.208   4.771   0.600  4.3197  0.1197 -1.0625
  124MOL   H29739903   0.229   4.687   0.453 -0.1882  0.0225 -0.5642
  124MOL   H29839904   7.797   4.786   0.404 -0.1406 -2.3268 -0.8771
  124MOL   H29939905   0.096   4.577   0.311  0.5104  1.3375  0.9515
  124MOL   H30039906   7.726   4.485   0.192  1.7052 -0.1153  0.7266
  124MOL   H30139907   7.625   4.508   0.339 -0.8356  1.3336  1.2093
  124MOL   H30239908   7.693   4.645   0.254 -3.2510 -0.9892  0.0667
  124MOL   H30339909   0.129   4.421   0.510 -0.0526 -0.7143  0.2397
  124MOL   H30439910   7.788   4.358   0.479  0.0523 -2.2242 -2.2359
  124MOL   H30539911   0.093   4.342   0.358  0.2825  1.1149 -1.2398
  124MOL   C30639912   7.766   4.798   0.611 -0.2448  0.3099  0.0272
  124MOL   C30739913   7.792   4.739   0.749 -0.2527  0.3044  0.4248
  124MOL   O30839914   7.713   4.820   0.828  0.0702  0.2501  0.1174
  124MOL   C30939915   7.716   4.782   0.968 -0.4785  0.2879  0.8407
  124MOL   C31039916   7.660   4.892   1.060 -0.1434 -0.0566  0.2228
  124MOL   C31139917   7.632   4.657   0.988  1.0529  0.1644 -0.0652
  124MOL   H31239918   7.658   4.793   0.594 -0.2025 -1.8607  0.2926
  124MOL   H31339919   7.776   4.907   0.617 -2.0437  0.4186  1.4773
  124MOL   H31439920   7.760   4.635   0.755  0.5647  0.1746  3.5296
  124MOL   H31539921   7.820   4.758   0.990 -0.6718 -0.6452  0.7604
  124MOL   H31639922   7.640   4.845   1.156  0.2644 -0.0403  0.3182
  124MOL   H31739923   7.568   4.933   1.018 -1.1338 -1.4098  1.0562
  124MOL   H31839924   7.731   4.974   1.068  0.4574 -0.3348 -1.9915
  124MOL   H31939925   7.660   4.570   0.928 -0.5833 -1.1659  1.0752
  124MOL   H32039926   7.525   4.673   0.975  0.9304 -0.6381 -0.0834
  124MOL   H32139927   7.646   4.628   1.092 -2.0434  0.9893  0.6277
  124MOL   H32239928   0.076   4.751   0.779 -0.5889 -0.0783  1.7648
  125MOL     C139929   4.243   0.097   7.244  0.1524 -0.4940 -0.0332
  125MOL     C239930   4.250   0.148   7.101  0.0577 -0.5988 -0.1709
  125MOL     O339931   4.139   0.246   7.097 -0.1864 -0.5225 -0.7838
  125MOL     C439932   4.074   0.261   6.972 -0.6812 -0.7097  0.3136
  125MOL     C539933   4.035   0.409   6.955  0.4344  0.0931 -0.0777
  125MOL     C639934   3.950   0.173   6.971  0.2217 -0.1146 -0.5093
  125MOL     H739935   4.326   0.031   7.270  1.0349  1.1046  1.3194
  125MOL     H839936   4.262   0.171   7.322  0.1744 -1.4070  0.8581
  125MOL     H939937   4.225   0.064   7.037  1.7924 -1.3503  0.1098
  125MOL    H1039938   4.140   0.236   6.889  1.8437  1.0358  1.7134
  125MOL    H1139939   4.104   0.488   6.984 -1.2074  1.0281  1.2837
  125MOL    H1239940   4.021   0.425   6.848  2.3655  1.9852 -0.0848
  125MOL    H1339941   3.946   0.432   7.013 -0.3964 -0.6676 -1.0220
  125MOL    H1439942   3.896   0.184   6.878 -3.0099 -1.2111  1.1549
  125MOL    H1539943   3.978   0.070   6.991  1.1261 -0.6811 -4.3626
  125MOL    H1639944   3.878   0.211   7.044  1.3226 -0.8875  1.0182
  125MOL    H1739945   4.153   0.039   7.265 -0.3120  0.5041  0.7824
  125MOL    C1839946   4.367   0.234   7.045  0.5823  0.1602 -0.6199
  125MOL    C1939947   4.506   0.163   7.031 -0.9112  0.1406 -0.0918
  125MOL    O2039948   4.603   0.261   7.011  0.1961  0.5932 -0.0700
  125MOL    C2139949   4.654   0.323   7.129 -0.5626 -0.0986  0.5847
  125MOL    C2239950   4.722   0.441   7.073 -0.6600 -0.6024 -0.6358
  125MOL    C2339951   4.745   0.229   7.216  0.4254  0.2947 -0.2266
  125MOL    H2439952   4.340   0.290   6.956 -2.2097  0.9028  0.6593
  125MOL    H2539953   4.372   0.312   7.120 -2.8112 -0.3808  0.2325
  125MOL    H2639954   4.519   0.105   7.122  1.0827  2.9577  1.5253
  125MOL    H2739955   4.569   0.366   7.183 -0.6190 -0.4345  0.7688
  125MOL    H2839956   4.650   0.502   7.019 -0.4984  0.8403  0.7262
  125MOL    H2939957   4.758   0.501   7.157 -2.0286 -3.2935  1.9583
  125MOL    H3039958   4.811   0.417   7.015 -0.2051 -2.0006  0.6177
  125MOL    H3139959   4.817   0.288   7.274  0.6078 -0.3613  0.2264
  125MOL    H3239960   4.798   0.164   7.146 -0.4458  0.3181 -0.9017
  125MOL    H3339961   4.701   0.168   7.294 -0.6549  1.4899  0.1113
  125MOL    C3439962   4.508   0.079   6.907 -0.6036 -0.3367 -0.2084
  125MOL    C3539963   4.630   7.809   6.906 -0.1222  0.0260  0.6431
  125MOL    O3639964   4.620   7.719   7.015  0.3734  0.0700  0.1652
  125MOL    C3739965   4.739   7.662   7.077  0.9756  0.3822 -0.2488
  125MOL    C3839966   4.717   7.676   7.226  0.1046  0.0413 -0.4074
  125MOL    C3939967   4.764   7.515   7.043  0.6111  0.5757 -0.1485
  125MOL    H4039968   4.518   0.145   6.821  1.0546 -0.5114 -0.1618
  125MOL    H4139969   4.417   0.019   6.896 -1.1710  0.4582  0.0996
  125MOL    H4239970   4.720   0.045   6.930  1.6622 -3.0178  1.2982
  125MOL    H4339971   4.827   7.725   7.060  0.1632  1.2974 -1.1590
  125MOL    H4439972   4.795   7.617   7.272 -0.9516 -0.2511  1.0490
  125MOL    H4539973   4.625   7.629   7.262 -0.5731  0.1334 -1.9850
  125MOL    H4639974   4.727   7.779   7.259 -0.2497 -0.1282  0.2439
  125MOL    H4739975   4.796   7.509   6.939  2.6022  0.9473  0.4105
  125MOL    H4839976   4.854   7.475   7.090  0.7695  0.7437 -0.3074
  125MOL    H4939977   4.680   7.458   7.083 -0.1507  0.7729 -1.4589
  125MOL    C5039978   4.645   7.724   6.781  0.7831 -0.1952 -0.6952
  125MOL    C5139979   4.644   7.783   6.638 -0.5230 -0.4263 -0.4052
  125MOL    O5239980   4.635   7.683   6.547 -0.2893  0.6774  0.0517
  125MOL    C5339981   4.534   7.707   6.447  0.0496 -0.4451  0.1929
  125MOL    C5439982   4.386   7.700   6.500  0.7745  0.0041 -0.3688
  125MOL    C5539983   4.563   7.604   6.338  0.7037  0.7634 -0.0997
  125MOL    H5639984   4.739   7.669   6.788  0.0288 -1.2960  0.8951
  125MOL    H5739985   4.563   7.653   6.777 -1.3181  2.1813 -1.8543
  125MOL    H5839986   4.553   0.022   6.631 -0.1991  0.0450 -0.6273
  125MOL    H5939987   4.548   7.799   6.389 -0.2516 -0.2832  0.3749
  125MOL    H6039988   4.326   7.754   6.427  0.5238  2.4909  1.6130
  125MOL    H6139989   4.372   7.740   6.600 -3.0292 -2.3662  0.1235
  125MOL    H6239990   4.366   7.593   6.501  0.7678 -0.0008 -0.9336
  125MOL    H6339991   4.664   7.608   6.297  0.2547 -0.9815 -1.4253
  125MOL    H6439992   4.499   7.615   6.250  0.4237 -0.9794 -0.1260
  125MOL    H6539993   4.544   7.503   6.374 -0.2080  0.2983 -1.8450
  125MOL    C6639994   4.777   0.048   6.605  0.0192 -0.0161  0.2361
  125MOL    C6739995   4.784   0.112   6.470 -0.2776  0.2161  0.0094
  125MOL    O6839996   4.921   0.151   6.459 -0.1629  0.0848  0.1177
  125MOL    C6939997   4.986   0.100   6.342  0.2151  0.4794  0.7277
  125MOL    C7039998   5.112   0.179   6.298  0.2994  0.3363  0.1362
  125MOL    C7139999   5.016   7.778   6.367  0.6192  0.0571  0.4891
  125MOL    H7240000   4.798   0.123   6.682  3.1611 -0.4712 -0.1444
  125MOL    H7340001   4.861   7.799   6.603  0.1138  0.0405  1.7799
  125MOL    H7440002   4.749   0.052   6.386  0.0045 -2.1874  1.5717
  125MOL    H7540003   4.926   0.113   6.252  0.4209 -0.2299  0.4813
  125MOL    H7640004   5.190   0.169   6.374  1.8825 -0.0244 -1.4880
  125MOL    H7740005   5.148   0.141   6.203  1.4083 -1.2572  1.1576
  125MOL    H7840006   5.093   0.286   6.286 -2.8702 -0.2367 -0.3434
  125MOL    H7940007   5.095   7.740   6.433 -1.1212 -3.7581  0.5386
  125MOL    H8040008   5.044   7.735   6.271 -0.8621  1.6629 -0.6849
  125MOL    H8140009   4.930   7.718   6.398  0.8669  0.2042  1.5054
  125MOL    C8240010   4.703   0.237   6.455  0.3940  0.2038  0.6005
  125MOL    C8340011   4.673   0.281   6.310  0.0505  0.5049  0.5579
  125MOL    O8440012   4.579   0.188   6.254  0.5019  0.1341 -0.1489
  125MOL    C8540013   4.587   0.167   6.115  0.4355  0.2361 -0.1271
  125MOL    C8640014   4.450   0.169   6.059 -0.0840  0.5989  0.5214
  125MOL    C8740015   4.664   0.037   6.087  0.7579  0.3879 -0.1342
  125MOL    H8840016   4.607   0.218   6.500  0.1860  0.4160  0.2542
  125MOL    H8940017   4.741   0.325   6.508  1.2896 -0.1854  0.6209
  125MOL    H9040018   4.766   0.287   6.254  0.0900 -0.8120  0.4594
  125MOL    H9140019   4.643   0.248   6.069  0.8467 -0.0187 -0.0826
  125MOL    H9240020   4.393   0.096   6.118  1.2127  0.1119  1.1753
  125MOL    H9340021   4.397   0.263   6.079  0.1240  0.7443  0.3877
  125MOL    H9440022   4.437   0.157   5.952 -3.1091  1.4152  0.7298
  125MOL    H9540023   4.650   0.014   5.981  1.2450 -2.2409  0.3444
  125MOL    H9640024   4.771   0.044   6.107  1.3480 -0.4088 -2.7577
  125MOL    H9740025   4.619   7.772   6.138  2.7129  0.5359  1.8911
  125MOL    C9840026   4.605   0.417   6.306  0.2484 -0.4159 -0.1366
  125MOL    C9940027   4.693   0.550   6.322 -0.0815  0.4886 -0.4278
  125MOL   O10040028   4.602   0.666   6.339 -0.3423  0.4678  0.0315
  125MOL   C10140029   4.619   0.758   6.444  0.3016  0.0074 -0.1031
  125MOL   C10240030   4.587   0.694   6.584 -0.6792 -0.3460 -0.0193
  125MOL   C10340031   4.529   0.876   6.413 -0.0298 -0.3176 -0.1022
  125MOL   H10440032   4.543   0.433   6.217 -0.5806  1.6679  0.7971
  125MOL   H10540033   4.524   0.418   6.379 -0.0121  0.2789 -0.4376
  125MOL   H10640034   4.755   0.535   6.410 -1.0822 -3.2912 -0.2879
  125MOL   H10740035   4.725   0.784   6.437  0.3170 -0.3557 -1.3054
  125MOL   H10840036   4.482   0.663   6.588 -0.5300 -1.0473 -1.1674
  125MOL   H10940037   4.600   0.777   6.654  1.9499 -1.3230  0.6977
  125MOL   H11040038   4.658   0.614   6.605  0.6944  1.0035  0.5494
  125MOL   H11140039   4.424   0.846   6.414 -0.5189  1.3780  1.0652
  125MOL   H11240040   4.543   0.922   6.315 -3.3179  2.0059  0.4316
  125MOL   H11340041   4.548   0.959   6.480 -0.5785 -0.4920  0.2681
  125MOL   C11440042   4.780   0.570   6.197  0.1542  0.3547 -0.2134
  125MOL   C11540043   4.869   0.696   6.188 -0.3377  0.1451  0.5693
  125MOL   O11640044   4.971   0.683   6.089 -0.3014 -0.3186  0.2717
  125MOL   C11740045   5.083   0.615   6.131  0.1091  0.6005  0.0652
  125MOL   C11840046   5.174   0.700   6.219  0.2179 -0.4729 -0.8350
  125MOL   C11940047   5.145   0.558   6.003  0.0198 -0.4204 -0.5836
  125MOL   H12040048   4.723   0.578   6.104  2.2048  1.5479 -1.4045
  125MOL   H12140049   4.835   0.478   6.178  0.9108  0.7679 -0.0346
  125MOL   H12240050   4.919   0.714   6.282  1.7686  0.5749 -0.6011
  125MOL   H12340051   5.059   0.524   6.186 -1.3841 -0.3270 -2.0419
  125MOL   H12440052   5.186   0.797   6.170 -0.3095 -0.9000 -1.8340
  125MOL   H12540053   5.272   0.652   6.220  0.6107  0.2915 -1.4558
  125MOL   H12640054   5.137   0.709   6.321  0.9046 -2.0166 -0.4423
  125MOL   H12740055   5.201   0.632   5.946 -2.7333  1.9142 -0.3772
  125MOL   H12840056   5.058   0.524   5.947 -1.2853 -1.5024  2.0226
  125MOL   H12940057   5.209   0.471   6.017 -1.1742 -1.2780 -0.3833
  125MOL   C13040058   4.790   0.817   6.138 -0.0097  0.1165  0.5074
  125MOL   C13140059   4.848   0.960   6.176  0.3683 -0.1339 -1.0945
  125MOL   O13240060   4.854   0.969   6.317 -0.4456  0.0026 -0.0099
  125MOL   C13340061   4.937   1.066   6.374  0.2539 -0.2064  0.2290
  125MOL   C13440062   4.885   1.074   6.522 -0.5879 -0.1215 -0.3112
  125MOL   C13540063   5.085   1.019   6.374 -0.0270 -0.1108 -0.0979
  125MOL   H13640064   4.687   0.802   6.169 -0.4096 -0.6699 -1.1352
  125MOL   H13740065   4.788   0.802   6.030  0.7244 -3.0149  0.8682
  125MOL   H13840066   4.948   0.975   6.134  0.9465 -0.6248  0.0706
  125MOL   H13940067   4.940   1.162   6.324  0.9642 -0.1963  0.2934
  125MOL   H14040068   4.874   0.976   6.567 -0.9097 -0.8665 -1.9864
  125MOL   H14140069   4.783   1.112   6.520 -0.0476  1.4388  0.2789
  125MOL   H14240070   4.946   1.147   6.577 -1.0344  1.0809 -1.3713
  125MOL   H14340071   5.105   0.993   6.270 -0.1093  0.4552 -0.2585
  125MOL   H14440072   5.165   1.088   6.401 -1.4608  1.9796 -0.9676
  125MOL   H14540073   5.098   0.923   6.422 -0.9683 -2.1000 -3.6375
  125MOL   C14640074   4.746   1.064   6.120 -0.7652  0.6785 -0.4482
  125MOL   C14740075   4.745   1.084   5.963  0.4811  0.5623 -0.0730
  125MOL   O14840076   4.604   1.108   5.939  0.2378 -0.3789 -0.0275
  125MOL   C14940077   4.517   1.013   5.875 -0.7283  0.0746 -0.1908
  125MOL   C15040078   4.427   1.100   5.782 -0.0821 -0.4321  0.5701
  125MOL   C15140079   4.433   0.943   5.982 -0.3483 -0.2830 -0.4629
  125MOL   H15240080   4.777   1.151   6.179  0.6901 -0.9141  1.1797
  125MOL   H15340081   4.651   1.022   6.150 -1.2824  0.1967 -2.7361
  125MOL   H15440082   4.767   0.988   5.917 -3.2441 -0.1820 -0.4807
  125MOL   H15540083   4.579   0.946   5.814 -0.9830  0.2709 -0.6689
  125MOL   H15640084   4.386   1.188   5.833 -1.5773 -0.9209  0.2484
  125MOL   H15740085   4.352   1.040   5.731  0.5679 -0.1299 -0.7513
  125MOL   H15840086   4.495   1.151   5.714 -1.9346  2.2347  0.6045
  125MOL   H15940087   4.369   0.877   5.924  0.3730 -0.7524 -0.7294
  125MOL   H16040088   4.380   1.017   6.042 -0.3410 -1.0821  0.5617
  125MOL   H16140089   4.493   0.882   6.050 -1.1683  0.5668  1.0573
  125MOL   C16240090   4.829   1.201   5.916 -0.0832 -0.8879 -0.2824
  125MOL   C16340091   4.983   1.184   5.921  0.6875  0.1024 -0.5368
  125MOL   O16440092   5.013   1.108   5.808 -0.4137 -0.4243  0.1532
  125MOL   C16540093   5.123   1.022   5.824  0.5287 -0.3026  0.0232
  125MOL   C16640094   5.204   1.046   5.696 -0.8092  0.8392  0.5876
  125MOL   C16740095   5.064   0.891   5.852 -0.1467 -0.0178  0.0370
  125MOL   H16840096   4.805   1.237   5.816 -0.1588 -1.7027 -0.5630
  125MOL   H16940097   4.805   1.290   5.974 -2.9492 -1.7956  0.0209
  125MOL   H17040098   5.010   1.126   6.010 -0.2134  1.2072  0.4593
  125MOL   H17140099   5.186   1.045   5.910 -1.1182 -1.5695  1.6218
  125MOL   H17240100   5.213   1.152   5.670 -0.2376  0.5777 -0.2981
  125MOL   H17340101   5.171   0.983   5.614  1.0707 -0.5718  0.8841
  125MOL   H17440102   5.311   1.032   5.712 -0.9443 -1.0327 -0.0821
  125MOL   H17540103   5.140   0.817   5.876  1.5620  0.9294 -2.3346
  125MOL   H17640104   4.998   0.855   5.773  1.4001 -0.1884 -1.2042
  125MOL   H17740105   4.998   0.891   5.938 -1.5378  0.5453 -1.0094
  125MOL   C17840106   5.059   1.323   5.932 -0.1123 -0.5696  0.2741
  125MOL   C17940107   5.206   1.317   5.966 -0.1831  0.2841 -0.6478
  125MOL   O18040108   5.250   1.453   5.965  0.9365  0.3686 -0.8043
  125MOL   C18140109   5.341   1.472   5.862  0.0262 -0.1657 -0.0090
  125MOL   C18240110   5.408   1.600   5.902  0.1115  0.1777  0.2351
  125MOL   C18340111   5.271   1.486   5.723 -0.3826 -0.7202  0.0955
  125MOL   H18440112   5.010   1.379   6.012  0.8365  0.2950  0.2616
  125MOL   H18540113   5.039   1.382   5.843 -2.2078 -1.4790  0.1083
  125MOL   H18640114   5.264   1.255   5.898  2.9382  0.2703  1.9166
  125MOL   H18740115   5.419   1.396   5.860 -0.0511 -0.3731  2.8566
  125MOL   H18840116   5.339   1.681   5.877  0.2112  1.2899  3.3262
  125MOL   H18940117   5.506   1.598   5.854 -0.4725  0.3658 -0.9793
  125MOL   H19040118   5.429   1.606   6.009  1.0968 -2.0899  0.1961
  125MOL   H19140119   5.346   1.505   5.646  0.7658  0.5146  1.4815
  125MOL   H19240120   5.196   1.564   5.715  0.6672  0.0540 -3.0636
  125MOL   H19340121   5.221   1.391   5.706  2.5264 -2.1943 -0.4881
  125MOL   C19440122   5.230   1.264   6.109 -0.3392 -0.3008 -0.3333
  125MOL   C19540123   5.376   1.221   6.124 -0.1016 -0.3349 -0.7600
  125MOL   O19640124   5.388   1.092   6.087 -0.1476  0.1214 -0.4113
  125MOL   C19740125   5.521   1.053   6.044 -0.3055 -0.0058  0.2422
  125MOL   C19840126   5.550   0.915   6.106  0.5249  0.0912 -0.1700
  125MOL   C19940127   5.525   1.060   5.888  0.2040 -0.0205  0.4531
  125MOL   H20040128   5.194   1.342   6.176  2.2001  1.8433 -1.3361
  125MOL   H20140129   5.160   1.182   6.123  0.6804 -0.7126  2.4652
  125MOL   H20240130   5.436   1.290   6.064 -1.9279  1.4196 -0.6627
  125MOL   H20340131   5.598   1.126   6.072  0.0225  0.1732 -1.1052
  125MOL   H20440132   5.482   0.838   6.069  2.7872 -2.7602  1.2984
  125MOL   H20540133   5.653   0.895   6.075  0.0150  1.3547 -2.8252
  125MOL   H20640134   5.564   0.922   6.214  0.4162 -0.8626 -0.0890
  125MOL   H20740135   5.454   0.985   5.852 -0.1393  0.0289  1.0263
  125MOL   H20840136   5.500   1.162   5.859 -0.4757 -0.5628 -0.9258
  125MOL   H20940137   5.618   1.031   5.840 -0.2261  0.5879 -0.7852
  125MOL   C21040138   5.427   1.230   6.264  0.3990 -0.0710  0.2432
  125MOL   C21140139   5.450   1.374   6.318 -0.5250  0.3450 -1.2913
  125MOL   O21240140   5.467   1.350   6.468  0.2685 -0.6291  0.3767
  125MOL   C21340141   5.366   1.366   6.561  0.5661 -0.1270  1.0236
  125MOL   C21440142   5.429   1.315   6.692 -0.0695 -0.2454 -0.6158
  125MOL   C21540143   5.323   1.510   6.587  0.1692 -0.5846 -0.5302
  125MOL   H21640144   5.501   1.158   6.298  1.9327  0.0639 -2.6636
  125MOL   H21740145   5.346   1.186   6.322 -0.0229  1.0295  0.5167
  125MOL   H21840146   5.363   1.436   6.301 -1.3503 -0.1383  0.9107
  125MOL   H21940147   5.275   1.310   6.536  0.7301 -0.4928  1.2317
  125MOL   H22040148   5.503   1.373   6.748 -1.1151 -0.3947  0.9405
  125MOL   H22140149   5.466   1.214   6.671 -1.0963 -0.4452 -1.5117
  125MOL   H22240150   5.350   1.294   6.764  0.3622  2.3494  0.6552
  125MOL   H22340151   5.281   1.515   6.688  2.6956  1.9190  0.4684
  125MOL   H22440152   5.254   1.549   6.511 -0.4355  0.0015  0.3067
  125MOL   H22540153   5.410   1.576   6.588  1.3838 -2.1775  1.8303
  125MOL   C22640154   5.577   1.426   6.260  0.4673 -0.1858  0.3183
  125MOL   C22740155   5.629   1.556   6.322 -0.0160  0.9692 -0.4745
  125MOL   O22840156   5.601   1.668   6.232 -0.0527 -0.2075 -0.0953
  125MOL   C22940157   5.590   1.790   6.296  0.4702  0.2860 -0.6871
  125MOL   C23040158   5.455   1.824   6.354 -0.0759 -0.0696 -0.5905
  125MOL   C23140159   5.622   1.900   6.184  0.1113 -0.0926  0.2766
  125MOL   H23240160   5.569   1.437   6.152 -0.8663 -2.0255  0.2130
  125MOL   H23340161   5.654   1.349   6.274  0.4599 -0.7216 -2.3935
  125MOL   H23440162   5.582   1.580   6.417  1.3226  1.5214  0.0644
  125MOL   H23540163   5.665   1.799   6.374 -0.3655  2.0249 -0.0631
  125MOL   H23640164   5.397   1.856   6.267  1.2439  0.0771 -1.4350
  125MOL   H23740165   5.414   1.740   6.410  0.6598 -0.2026 -0.2513
  125MOL   H23840166   5.465   1.912   6.417  0.1423 -1.7695  1.7978
  125MOL   H23940167   5.545   1.879   6.110  1.2161 -0.7710 -0.7032
  125MOL   H24040168   5.723   1.877   6.150 -0.5289 -0.0267 -1.7317
  125MOL   H24140169   5.615   2.003   6.218  0.4909 -0.5645  1.8464
  125MOL   C24240170   5.784   1.560   6.335  0.0596  0.7724  0.1540
  125MOL   C24340171   5.840   1.499   6.462  0.0611  0.5300  0.0055
  125MOL   O24440172   5.867   1.606   6.553  0.4740 -0.3919 -0.3411
  125MOL   C24540173   5.776   1.601   6.660 -0.1994 -0.6283  0.0583
  125MOL   C24640174   5.831   1.524   6.776 -0.6851 -0.2717  0.0155
  125MOL   C24740175   5.748   1.746   6.681  0.5597 -0.5741  0.3598
  125MOL   H24840176   5.823   1.513   6.245 -1.3860 -1.9078  0.8834
  125MOL   H24940177   5.826   1.660   6.324 -0.3062  0.8340 -0.6900
  125MOL   H25040178   5.772   1.426   6.506  0.8886  0.1279  0.6278
  125MOL   H25140179   5.680   1.556   6.636  0.1318 -1.4144  0.1715
  125MOL   H25240180   5.884   1.436   6.740 -1.9926 -0.7608 -0.7353
  125MOL   H25340181   5.900   1.583   6.836 -0.5128 -0.1653 -0.2886
  125MOL   H25440182   5.745   1.493   6.836 -1.5778  1.1909 -0.4873
  125MOL   H25540183   5.681   1.785   6.605  0.6370  1.5731  1.3585
  125MOL   H25640184   5.694   1.758   6.775  0.4867 -3.1636  0.6790
  125MOL   H25740185   5.841   1.804   6.689  1.0254 -1.2826  0.1142
  125MOL   C25840186   5.979   1.432   6.438 -0.5885 -0.3000  0.0893
  125MOL   C25940187   5.991   1.294   6.360  0.6698 -0.5860 -0.0146
  125MOL   O26040188   5.971   1.185   6.447  0.0088 -0.5344  0.5010
  125MOL   C26140189   5.841   1.154   6.508  0.0621  0.0778 -0.3424
  125MOL   C26240190   5.798   1.019   6.451 -0.7410  0.8638 -0.0240
  125MOL   C26340191   5.858   1.151   6.658 -0.5257  0.6210 -0.0308
  125MOL   H26440192   6.047   1.510   6.402 -2.2514  1.9401  1.6984
  125MOL   H26540193   6.025   1.407   6.533 -0.9415  0.5774  0.4923
  125MOL   H26640194   5.906   1.294   6.291  1.2248  0.1522 -0.7037
  125MOL   H26740195   5.767   1.226   6.475 -0.0475 -1.0760 -2.7606
  125MOL   H26840196   5.705   0.982   6.493 -0.9962  0.1414 -1.1831
  125MOL   H26940197   5.865   0.933   6.465 -1.0704  0.4880 -0.6970
  125MOL   H27040198   5.772   1.024   6.345 -0.4350 -2.5460 -0.3290
  125MOL   H27140199   5.767   1.128   6.713 -0.0604 -0.1748  0.4195
  125MOL   H27240200   5.934   1.075   6.681 -0.8439  0.8615  1.8711
  125MOL   H27340201   5.894   1.240   6.710  0.1708  0.6549 -0.5514
  125MOL   C27440202   6.120   1.281   6.275 -0.4830  0.6229 -0.4500
  125MOL   C27540203   6.134   1.139   6.208  0.2524 -0.6728 -0.0821
  125MOL   O27640204   6.211   1.155   6.085 -0.1276 -0.3742  0.0319
  125MOL   C27740205   6.201   1.058   5.984 -0.7090 -0.2874  0.0022
  125MOL   C27840206   6.343   1.001   5.950  0.3242  0.2113 -0.1505
  125MOL   C27940207   6.126   1.107   5.854  0.4431 -0.1533  0.4738
  125MOL   H28040208   6.115   1.351   6.192  1.3906  0.6323 -0.5728
  125MOL   H28140209   6.214   1.295   6.328  0.7180 -2.4079 -1.6506
  125MOL   H28240210   6.036   1.101   6.180 -0.1034 -0.3943  0.7536
  125MOL   H28340211   6.136   0.979   6.023  1.4194 -1.3890  1.3871
  125MOL   H28440212   6.349   0.941   5.860  0.0286 -0.1127  0.0472
  125MOL   H28540213   6.403   1.092   5.945 -0.5434  0.7028 -2.0003
  125MOL   H28640214   6.382   0.939   6.031 -0.7174  2.9093  2.5193
  125MOL   H28740215   6.188   1.165   5.786  1.2458  0.1665  1.4594
  125MOL   H28840216   6.035   1.167   5.863  0.0955 -0.4112 -1.1682
  125MOL   H28940217   6.100   1.015   5.802 -1.0044 -0.2460  1.3370
  125MOL   C29040218   6.199   1.034   6.299  0.1448  0.3456 -0.1351
  125MOL   C29140219   6.126   0.895   6.313 -0.3632  0.3937  0.2208
  125MOL   O29240220   6.148   0.828   6.195 -0.4816 -0.1743 -0.2105
  125MOL   C29340221   6.057   0.720   6.168 -0.0747 -0.3008 -0.2561
  125MOL   C29440222   6.113   0.642   6.051 -0.1986 -0.1707  0.1535
  125MOL   C29540223   5.917   0.772   6.136  0.1689  0.1148 -0.3410
  125MOL   H29640224   6.204   1.085   6.395 -0.5000  0.2579 -0.0531
  125MOL   H29740225   6.302   1.025   6.264 -0.3874  1.4943 -2.0659
  125MOL   H29840226   6.023   0.918   6.340 -0.6264  1.0383 -1.2900
  125MOL   H29940227   6.047   0.653   6.254 -0.4527 -0.7959 -0.6877
  125MOL   H30040228   6.125   0.707   5.964  0.8296 -1.2297 -0.5108
  125MOL   H30140229   6.210   0.600   6.074  1.5134  2.8782 -1.1764
  125MOL   H30240230   6.053   0.558   6.017 -0.6839  0.4235 -0.4770
  125MOL   H30340231   5.935   0.852   6.065  0.2072 -2.0762 -2.8672
  125MOL   H30440232   5.853   0.704   6.079 -0.8608  2.3712 -1.9472
  125MOL   H30540233   5.861   0.800   6.225  0.5570 -2.7449  0.8465
  125MOL   C30640234   6.192   0.821   6.427  0.5587  0.3196  0.0456
  125MOL   C30740235   6.170   0.877   6.568  0.3097 -0.0733  1.2192
  125MOL   O30840236   6.210   0.795   6.681  0.2317 -0.3096 -0.1449
  125MOL   C30940237   6.124   0.818   6.794  0.6128  0.1890 -0.5032
  125MOL   C31040238   5.993   0.746   6.772 -0.3721 -0.9948 -0.5633
  125MOL   C31140239   6.189   0.749   6.914 -0.1573 -0.6379  0.1532
  125MOL   H31240240   6.298   0.801   6.412  0.8469  2.6379 -1.2146
  125MOL   H31340241   6.141   0.725   6.422  0.8394  0.0881  1.4267
  125MOL   H31440242   6.238   0.963   6.570  0.5329 -0.1326 -1.4269
  125MOL   H31540243   6.111   0.924   6.816  1.2841  0.7207 -2.5369
  125MOL   H31640244   5.923   0.750   6.855  0.4140 -0.6558  0.0913
  125MOL   H31740245   6.010   0.639   6.754  2.4968 -0.6118 -0.4760
  125MOL   H31840246   5.933   0.781   6.689 -3.1118 -1.2472  1.2686
  125MOL   H31940247   6.210   0.644   6.894  1.0770 -0.5266  0.8821
  125MOL   H32040248   6.117   0.758   6.996  0.5588  2.4275  0.4944
  125MOL   H32140249   6.273   0.811   6.944  1.4901 -1.5420 -2.4218
  125MOL   H32240250   6.064   0.904   6.564 -0.2768 -2.3121  1.1474
  126MOL     C140251   3.064   0.219   4.993 -0.1990  0.0945 -0.0876
  126MOL     C240252   2.926   0.216   4.936  0.1342  0.5300  0.0738
  126MOL     O340253   2.918   0.199   4.793 -0.2521 -0.3009  0.2187
  126MOL     C440254   2.892   0.316   4.719  0.2430 -0.5943  0.2157
  126MOL     C540255   2.739   0.351   4.710 -0.0177 -0.5401  0.2318
  126MOL     C640256   2.955   0.295   4.587 -0.0881  0.4214  0.2137
  126MOL     H740257   3.112   0.309   4.956  1.0063 -0.6396 -0.3665
  126MOL     H840258   3.075   0.209   5.101  1.2569  2.1648 -0.0198
  126MOL     H940259   2.876   0.309   4.965 -1.2547 -0.1070 -0.2415
  126MOL    H1040260   2.946   0.398   4.767 -0.0223 -0.2911 -0.0068
  126MOL    H1140261   2.678   0.272   4.666  0.3016  0.2667 -1.6788
  126MOL    H1240262   2.704   0.374   4.811  1.2384 -0.1649  0.5992
  126MOL    H1340263   2.728   0.442   4.652 -0.9298  0.8722  2.5223
  126MOL    H1440264   2.928   0.200   4.542  0.0428  0.4745  0.0244
  126MOL    H1540265   2.941   0.381   4.520 -0.1472  1.5275  1.6180
  126MOL    H1640266   3.063   0.308   4.593  0.2892 -1.7815 -1.4620
  126MOL    H1740267   3.119   0.132   4.955 -1.4395 -0.8283  0.1885
  126MOL    C1840268   2.833   0.102   4.988 -0.4163  1.1055  0.8414
  126MOL    C1940269   2.803   0.114   5.138  0.6727 -0.0382  0.1023
  126MOL    O2040270   2.767   7.809   5.211  0.2973 -0.4250  0.1547
  126MOL    C2140271   2.875   7.720   5.228  0.2545 -0.0775  0.0528
  126MOL    C2240272   2.842   7.586   5.169 -0.7329  0.4493 -0.8203
  126MOL    C2340273   2.914   7.710   5.384 -0.4199  0.8170  0.6438
  126MOL    H2440274   2.739   0.095   4.934  0.9728 -0.5682 -1.4790
  126MOL    H2540275   2.877   0.003   4.973 -0.8247  0.9733  0.5070
  126MOL    H2640276   2.890   0.160   5.187  0.1105  0.6701  0.4495
  126MOL    H2740277   2.961   7.753   5.170 -0.4885  0.1259 -0.9331
  126MOL    H2840278   2.930   7.522   5.172 -1.8769 -1.1392 -0.5737
  126MOL    H2940279   2.755   7.543   5.219 -0.8656  1.8764  0.2240
  126MOL    H3040280   2.815   7.590   5.064  1.7459 -1.2627 -1.5579
  126MOL    H3140281   2.984   7.631   5.411 -0.6782  0.4748  0.3240
  126MOL    H3240282   2.819   7.680   5.427  0.7941 -0.3078  2.6177
  126MOL    H3340283   2.953   7.807   5.415 -0.9114  0.5697  2.0417
  126MOL    C3440284   2.672   0.195   5.157  0.4472 -0.7250  0.4810
  126MOL    C3540285   2.687   0.351   5.172  0.5655  0.7377 -0.1431
  126MOL    O3640286   2.573   0.432   5.186 -0.0131  0.3740  0.6251
  126MOL    C3740287   2.447   0.380   5.116 -0.1982  0.4437  0.3100
  126MOL    C3840288   2.333   0.463   5.165  0.4412 -0.0402  0.2453
  126MOL    C3940289   2.456   0.387   4.964  1.6424 -0.1583  0.2843
  126MOL    H4040290   2.619   0.165   5.248  1.2168  0.2991  1.2907
  126MOL    H4140291   2.605   0.168   5.076 -0.2847  1.1897  0.4226
  126MOL    H4240292   2.750   0.396   5.094  0.6112  0.3689 -0.3201
  126MOL    H4340293   2.430   0.275   5.143  1.1153  0.1632  0.1052
  126MOL    H4440294   2.342   0.571   5.150 -2.3792  0.0188 -1.4491
  126MOL    H4540295   2.316   0.450   5.272  1.6017 -1.1305  0.3039
  126MOL    H4640296   2.240   0.437   5.114  1.0090 -1.5106 -0.0583
  126MOL    H4740297   2.362   0.363   4.914  1.5543  0.7542  0.0045
  126MOL    H4840298   2.471   0.490   4.932  0.5869 -0.6946 -2.0512
  126MOL    H4940299   2.536   0.325   4.922  0.1425 -0.6097 -2.0388
  126MOL    C5040300   2.739   0.368   5.315 -0.0297  0.4239 -0.3632
  126MOL    C5140301   2.806   0.505   5.349 -0.2459 -0.7377  0.1197
  126MOL    O5240302   2.906   0.513   5.250  0.4586 -0.2527  0.3540
  126MOL    C5340303   2.901   0.628   5.169 -0.3739 -0.8457  0.0679
  126MOL    C5440304   2.985   0.601   5.044 -0.1883  0.4573 -0.4218
  126MOL    C5540305   2.972   0.743   5.240 -0.2008  0.0282 -1.4173
  126MOL    H5640306   2.661   0.350   5.389  1.2215 -0.6636  0.7091
  126MOL    H5740307   2.816   0.293   5.333  0.1995  0.8409  0.4601
  126MOL    H5840308   2.729   0.582   5.342  2.1344  1.6426 -0.4295
  126MOL    H5940309   2.795   0.642   5.144 -0.0907 -0.6369 -1.0304
  126MOL    H6040310   3.090   0.586   5.072 -0.4151 -1.2302 -0.4262
  126MOL    H6140311   2.983   0.681   4.970  3.2618  2.2722  1.2771
  126MOL    H6240312   2.934   0.518   4.996 -1.0021  1.1259 -0.7121
  126MOL    H6340313   3.059   0.704   5.293 -0.5805 -1.4265 -1.8392
  126MOL    H6440314   2.887   0.782   5.296 -0.7430  0.1776 -2.3416
  126MOL    H6540315   3.007   0.823   5.174  1.9580 -1.5464 -2.2541
  126MOL    C6640316   2.872   0.527   5.479  0.0417  0.3718 -0.0026
  126MOL    C6740317   2.775   0.581   5.586  0.1019  0.6100 -0.3597
  126MOL    O6840318   2.777   0.722   5.560 -0.3257 -0.0638 -0.6412
  126MOL    C6940319   2.661   0.794   5.596  1.3358 -0.1726 -0.5593
  126MOL    C7040320   2.687   0.933   5.643 -0.2103  0.0703 -0.1533
  126MOL    C7140321   2.582   0.806   5.467  0.3108  0.0734 -0.7038
  126MOL    H7240322   2.914   0.430   5.508  1.3734  0.5913 -1.1146
  126MOL    H7340323   2.954   0.599   5.481 -0.0145  0.3940  3.0364
  126MOL    H7440324   2.675   0.546   5.560  0.2101  0.9916 -1.2983
  126MOL    H7540325   2.602   0.750   5.676  2.2721 -1.1777 -0.4132
  126MOL    H7640326   2.600   0.998   5.659  1.8486  2.6577  0.8769
  126MOL    H7740327   2.734   0.936   5.741 -1.1404 -0.3406  0.3150
  126MOL    H7840328   2.759   0.982   5.578 -0.7656  1.6591  0.4009
  126MOL    H7940329   2.560   0.707   5.428 -3.7461  1.1497 -1.4508
  126MOL    H8040330   2.634   0.852   5.383  0.0907  0.3637 -0.6835
  126MOL    H8140331   2.490   0.863   5.480  0.2238 -0.2525  0.1047
  126MOL    C8240332   2.824   0.554   5.734 -0.0512 -0.2477  0.1337
  126MOL    C8340333   2.776   0.418   5.786 -0.0107 -0.1304  0.4604
  126MOL    O8440334   2.766   0.313   5.682 -0.5531 -0.3152 -0.1617
  126MOL    C8540335   2.706   0.187   5.720 -0.1063 -0.0192 -0.2821
  126MOL    C8640336   2.806   0.074   5.705  0.0627  0.0334 -0.2489
  126MOL    C8740337   2.575   0.166   5.643 -0.2697 -0.7644  0.2947
  126MOL    H8840338   2.932   0.571   5.744  0.0345 -0.7086  0.0129
  126MOL    H8940339   2.782   0.624   5.807 -1.1503 -1.0345  0.2613
  126MOL    H9040340   2.673   0.424   5.822 -1.0515  0.2943 -2.4808
  126MOL    H9140341   2.671   0.179   5.823  0.7890 -0.0826  0.0177
  126MOL    H9240342   2.853   0.078   5.607 -0.2986 -0.9964 -0.4682
  126MOL    H9340343   2.870   0.086   5.793 -0.9559 -1.0096  0.6417
  126MOL    H9440344   2.758   7.798   5.723  1.3578 -0.5991 -0.0891
  126MOL    H9540345   2.592   0.161   5.535  0.5428  0.3217  0.3675
  126MOL    H9640346   2.527   0.073   5.674  0.6132 -1.0792  0.7237
  126MOL    H9740347   2.499   0.241   5.662 -1.9208 -1.6020 -2.5578
  126MOL    C9840348   2.863   0.377   5.905 -0.2471 -0.4824 -0.2820
  126MOL    C9940349   2.872   0.474   6.025  0.4839  0.1902 -0.1719
  126MOL   O10040350   2.968   0.413   6.111  0.4955 -0.4557 -0.2757
  126MOL   C10140351   3.093   0.483   6.128 -0.0540  0.2972 -0.1367
  126MOL   C10240352   3.174   0.475   6.002 -0.3687  0.6142 -0.3538
  126MOL   C10340353   3.165   0.412   6.245  0.2065 -0.0350 -0.4600
  126MOL   H10440354   2.812   0.287   5.940 -1.8297 -0.0084 -1.3256
  126MOL   H10540355   2.965   0.354   5.872 -0.9304 -1.9352 -1.4563
  126MOL   H10640356   2.902   0.575   5.997 -1.1112  0.2833 -1.6440
  126MOL   H10740357   3.091   0.589   6.156 -1.6802  0.0417  0.8055
  126MOL   H10840358   3.123   0.517   5.915 -0.8822 -0.0726 -0.3900
  126MOL   H10940359   3.208   0.374   5.978  1.1667  0.0464  3.9053
  126MOL   H11040360   3.272   0.522   6.008  0.8149 -1.2209 -3.9786
  126MOL   H11140361   3.255   0.463   6.279 -0.9208  0.4590  1.8027
  126MOL   H11240362   3.187   0.307   6.224  0.4138 -0.5995  2.3497
  126MOL   H11340363   3.107   0.411   6.337  2.1481  0.3968  0.7999
  126MOL   C11440364   2.746   0.455   6.115 -0.0829 -0.3809 -0.8427
  126MOL   C11540365   2.753   0.558   6.235 -0.7156 -0.2092 -0.0654
  126MOL   O11640366   2.622   0.599   6.267  0.3522 -0.2799 -0.2087
  126MOL   C11740367   2.580   0.730   6.221  0.7364  1.3868  0.4654
  126MOL   C11840368   2.599   0.825   6.337  0.4873 -0.3814 -0.2689
  126MOL   C11940369   2.431   0.721   6.185  0.2239 -0.6329  0.7037
  126MOL   H12040370   2.737   0.354   6.156  2.6910 -0.2060  0.3800
  126MOL   H12140371   2.652   0.471   6.063 -0.9041 -0.1632  0.6673
  126MOL   H12240372   2.811   0.648   6.218  2.4937 -2.3366 -0.9164
  126MOL   H12340373   2.635   0.758   6.132 -0.0625  0.2728 -0.3923
  126MOL   H12440374   2.575   0.930   6.322  0.6038 -0.2181  0.6438
  126MOL   H12540375   2.706   0.829   6.360  0.3241  3.4980  0.2444
  126MOL   H12640376   2.553   0.788   6.428 -1.2694 -0.0083 -0.9925
  126MOL   H12740377   2.384   0.819   6.171 -0.8789 -1.1052  1.0213
  126MOL   H12840378   2.381   0.654   6.254 -0.4626 -1.5276 -0.6350
  126MOL   H12940379   2.427   0.667   6.090 -0.4806  1.9473 -0.7760
  126MOL   C13040380   2.805   0.475   6.361 -0.3194  0.2993 -0.2743
  126MOL   C13140381   2.842   0.570   6.474 -0.5778 -0.1227  0.5097
  126MOL   O13240382   2.969   0.616   6.425  0.3946 -0.1717  0.0401
  126MOL   C13340383   3.054   0.693   6.509  0.1343  0.4356  0.1756
  126MOL   C13440384   3.156   0.602   6.583  0.2261 -0.0219 -0.2330
  126MOL   C13540385   3.122   0.790   6.412 -0.9020  0.2829  0.5899
  126MOL   H13640386   2.890   0.409   6.340  0.9495  1.4149  1.2693
  126MOL   H13740387   2.728   0.400   6.375 -0.1301  0.4137  1.4247
  126MOL   H13840388   2.774   0.655   6.480 -1.7440 -1.0953  1.3499
  126MOL   H13940389   2.996   0.743   6.586 -2.6707 -1.5398 -0.5353
  126MOL   H14040390   3.221   0.564   6.505 -0.8501  0.2916 -1.3081
  126MOL   H14140391   3.114   0.526   6.649 -1.7964  0.5605 -0.7870
  126MOL   H14240392   3.213   0.671   6.644  0.6928 -0.5670 -0.0549
  126MOL   H14340393   3.052   0.809   6.330 -1.4773  0.5506  1.1430
  126MOL   H14440394   3.152   0.881   6.464  0.6031  0.1914 -0.0844
  126MOL   H14540395   3.210   0.747   6.365 -0.6987  1.9772 -0.6340
  126MOL   C14640396   2.836   0.497   6.609 -0.0838 -0.4915 -0.3933
  126MOL   C14740397   2.692   0.469   6.664 -0.1552  0.0414  0.1241
  126MOL   O14840398   2.696   0.360   6.748  0.3581 -0.6277 -0.6343
  126MOL   C14940399   2.628   0.240   6.713 -0.1886 -0.4069  0.1548
  126MOL   C15040400   2.604   0.159   6.834  0.0955 -0.3647 -0.0195
  126MOL   C15140401   2.711   0.167   6.609 -0.0471  0.4088 -0.5527
  126MOL   H15240402   2.887   0.556   6.685 -0.2812  1.4874 -1.7578
  126MOL   H15340403   2.881   0.398   6.602 -1.0762 -1.0603  1.0571
  126MOL   H15440404   2.631   0.436   6.579 -0.3774  1.1193 -0.1458
  126MOL   H15540405   2.527   0.266   6.681 -0.1251 -0.5578 -0.1667
  126MOL   H15640406   2.707   0.130   6.855 -0.1570  0.0934  1.9924
  126MOL   H15740407   2.537   0.074   6.817 -1.5495  1.1254 -1.1762
  126MOL   H15840408   2.562   0.228   6.908  1.1332 -0.1061  0.3288
  126MOL   H15940409   2.716   0.229   6.519 -2.2473 -2.5598 -2.8233
  126MOL   H16040410   2.656   0.075   6.587  0.8460 -0.8748  2.2636
  126MOL   H16140411   2.811   0.141   6.643 -0.2186 -0.9623 -1.0765
  126MOL   C16240412   2.626   0.577   6.744  0.2953 -0.2941  0.5905
  126MOL   C16340413   2.477   0.553   6.779  0.2793 -0.0601 -0.1605
  126MOL   O16440414   2.446   0.629   6.894 -0.5982  0.0599  0.2949
  126MOL   C16540415   2.463   0.571   7.018  0.4867 -0.1291  0.0942
  126MOL   C16640416   2.365   0.460   7.045 -0.1734 -0.1299 -0.8465
  126MOL   C16740417   2.441   0.694   7.118 -0.1863  0.0442 -0.6688
  126MOL   H16840418   2.677   0.602   6.837  1.2147  1.0050 -0.2387
  126MOL   H16940419   2.626   0.669   6.684  0.5244  0.4351  1.7054
  126MOL   H17040420   2.460   0.446   6.787 -0.2503  0.0034 -0.4557
  126MOL   H17140421   2.567   0.538   7.012  0.3581 -0.2215 -2.1978
  126MOL   H17240422   2.342   0.462   7.152 -0.6277 -1.1814 -0.9166
  126MOL   H17340423   2.405   0.361   7.026 -0.9109 -0.4024 -1.0256
  126MOL   H17440424   2.272   0.480   6.991 -0.5626 -0.6302 -0.3780
  126MOL   H17540425   2.458   0.643   7.213 -1.6136 -0.4053 -0.6459
  126MOL   H17640426   2.344   0.743   7.119 -0.6977 -0.9492 -0.5216
  126MOL   H17740427   2.527   0.759   7.103  0.8990 -0.8199  1.5620
  126MOL   C17840428   2.384   0.597   6.660 -0.0007  0.4189  0.5206
  126MOL   C17940429   2.271   0.495   6.617 -0.3110  0.0932 -0.7224
  126MOL   O18040430   2.163   0.568   6.570 -0.2733 -0.7250  0.0670
  126MOL   C18140431   2.065   0.598   6.673 -0.1703  0.4872  0.2147
  126MOL   C18240432   1.967   0.477   6.678 -0.1944  0.1747  0.1278
  126MOL   C18340433   1.993   0.732   6.625  0.2171  0.1476 -0.2922
  126MOL   H18440434   2.435   0.621   6.567 -0.7776  1.1334  0.2693
  126MOL   H18540435   2.348   0.696   6.689  2.0056  0.6913  2.1859
  126MOL   H18640436   2.248   0.439   6.708 -1.5705  1.6836 -0.0174
  126MOL   H18740437   2.112   0.624   6.768  0.1964  0.8278 -0.0540
  126MOL   H18840438   1.880   0.485   6.613 -2.3777 -1.1525  2.7913
  126MOL   H18940439   1.924   0.479   6.778  1.9822  1.1737  1.0766
  126MOL   H19040440   2.013   0.378   6.673  0.8270  0.6439  0.0722
  126MOL   H19140441   1.953   0.730   6.524 -2.0336 -0.6564  0.5588
  126MOL   H19240442   2.067   0.811   6.624  1.0349 -0.5883  0.3715
  126MOL   H19340443   1.909   0.758   6.690 -0.4654  2.6064 -2.0888
  126MOL   C19440444   2.312   0.403   6.495 -0.2792  0.1607  0.6043
  126MOL   C19540445   2.235   0.271   6.495  0.3282  0.1944  0.8024
  126MOL   O19640446   2.285   0.197   6.608 -0.2780 -0.6897  0.6086
  126MOL   C19740447   2.203   0.111   6.681 -0.2416  0.9622  0.3072
  126MOL   C19840448   2.267   7.794   6.662  0.7645 -0.0133 -0.8583
  126MOL   C19940449   2.197   0.159   6.829  0.0760 -0.6860 -0.0751
  126MOL   H20040450   2.311   0.460   6.402 -2.4405  0.4681  0.7965
  126MOL   H20140451   2.418   0.392   6.518 -0.1295  3.5088  1.8560
  126MOL   H20240452   2.128   0.288   6.508 -0.5608 -0.8674 -4.1237
  126MOL   H20340453   2.099   0.113   6.650  0.3074  2.8313 -1.5471
  126MOL   H20440454   2.250   7.759   6.560  1.2872  1.6059 -1.5112
  126MOL   H20540455   2.371   7.800   6.695 -0.1250 -1.3718  2.4713
  126MOL   H20640456   2.221   7.712   6.719  2.0538 -1.5503 -1.9891
  126MOL   H20740457   2.130   0.244   6.841  2.2698  0.9464  0.8420
  126MOL   H20840458   2.154   0.090   6.902 -0.5502  0.1872  0.3880
  126MOL   H20940459   2.296   0.197   6.853  0.1671 -0.5044 -0.7107
  126MOL   C21040460   2.274   0.185   6.369  0.5032 -0.4181 -1.1366
  126MOL   C21140461   2.212   0.232   6.235 -0.6354  0.8356 -0.2328
  126MOL   O21240462   2.262   0.142   6.136 -0.5636  0.1099 -0.2898
  126MOL   C21340463   2.392   0.171   6.075 -0.5970  0.0604  0.2396
  126MOL   C21440464   2.445   0.050   5.996 -0.3184  0.3852 -0.2611
  126MOL   C21540465   2.398   0.296   5.995  0.6641  0.0775  0.4415
  126MOL   H21640466   2.256   0.079   6.388  1.3241 -0.8152 -2.4990
  126MOL   H21740467   2.382   0.197   6.361  0.6438 -1.2215 -0.5245
  126MOL   H21840468   2.239   0.333   6.206  0.1845  1.0030  1.0753
  126MOL   H21940469   2.465   0.188   6.154  1.8211 -2.6294 -1.3292
  126MOL   H22040470   2.392   0.040   5.902 -1.0159 -0.2422  0.1994
  126MOL   H22140471   2.425   7.775   6.045  1.8562 -0.4349 -0.8991
  126MOL   H22240472   2.553   0.061   5.980 -0.1586 -0.6851  0.0305
  126MOL   H22340473   2.359   0.276   5.895  3.0216  1.0404 -0.7199
  126MOL   H22440474   2.502   0.325   5.978  0.9379 -0.6397  0.8686
  126MOL   H22540475   2.349   0.381   6.042  1.5672  0.2895  1.0117
  126MOL   C22640476   2.058   0.216   6.231  0.1340 -0.6085  0.2272
  126MOL   C22740477   1.992   0.294   6.114  0.7872 -0.5249 -0.3428
  126MOL   O22840478   1.963   0.420   6.167  0.4861  0.5296 -0.6674
  126MOL   C22940479   2.015   0.535   6.098  0.3732 -0.4718  0.6795
  126MOL   C23040480   2.071   0.640   6.207  0.0786 -0.3960 -0.5630
  126MOL   C23140481   1.905   0.595   6.010  1.1957  0.2577  0.0205
  126MOL   H23240482   2.008   0.260   6.318  3.1193  2.0256  0.6773
  126MOL   H23340483   2.019   0.114   6.227  0.2631 -0.6861  0.8550
  126MOL   H23440484   2.050   0.295   6.022 -0.4797  0.2167 -1.1463
  126MOL   H23540485   2.107   0.512   6.044  0.6731 -2.7021  2.1101
  126MOL   H23640486   1.989   0.674   6.269  1.0762  1.0069  0.0001
  126MOL   H23740487   2.144   0.603   6.278 -0.3871  1.7917  1.0736
  126MOL   H23840488   2.131   0.721   6.166  1.0866 -0.8840 -0.0606
  126MOL   H23940489   1.810   0.594   6.063  2.5824 -0.5397  2.6035
  126MOL   H24040490   1.890   0.536   5.920  2.2969  2.3947 -1.6104
  126MOL   H24140491   1.937   0.693   5.976 -2.3752  1.2475 -0.6502
  126MOL   C24240492   1.852   0.231   6.065  0.1297 -0.5964 -0.1628
  126MOL   C24340493   1.864   0.099   5.984  0.4805  0.2207  0.0944
  126MOL   O24440494   1.903   0.156   5.858  0.9866  0.5626  0.2745
  126MOL   C24540495   1.989   0.080   5.777  0.0513 -0.0360  0.4113
  126MOL   C24640496   1.926   0.078   5.631 -0.2401 -0.3414 -0.7935
  126MOL   C24740497   2.132   0.146   5.779 -0.1163  0.6231 -0.4849
  126MOL   H24840498   1.780   0.227   6.147  0.3133 -2.5962 -0.0799
  126MOL   H24940499   1.802   0.302   5.999  2.0446  1.3210  0.4001
  126MOL   H25040500   1.937   0.027   6.023 -0.4801 -1.6816 -1.5299
  126MOL   H25140501   2.000   7.799   5.818 -1.8173 -0.2618  0.3840
  126MOL   H25240502   1.822   0.045   5.641 -0.0693 -0.3017  1.2153
  126MOL   H25340503   1.918   0.181   5.596  2.4534  0.6950  1.4906
  126MOL   H25440504   1.973   0.015   5.556 -1.0833 -2.3950  0.3747
  126MOL   H25540505   2.129   0.252   5.755 -1.2623  0.4807 -0.9999
  126MOL   H25640506   2.187   0.121   5.869 -0.8425 -0.8339 -0.4296
  126MOL   H25740507   2.182   0.100   5.694  0.0125  0.3188 -0.2439
  126MOL   C25840508   1.729   0.024   5.988  0.2961  0.4665  0.8711
  126MOL   C25940509   1.729   7.690   5.953 -0.4817 -0.4468 -0.2602
  126MOL   O26040510   1.586   7.658   5.961  0.3215 -0.1388 -0.3755
  126MOL   C26140511   1.533   7.553   5.883  0.1734 -0.6065 -0.7540
  126MOL   C26240512   1.472   7.460   5.990  0.5175 -0.1810  0.1106
  126MOL   C26340513   1.431   7.606   5.785  0.2133 -0.2157  0.1673
  126MOL   H26440514   1.700   0.032   6.093 -2.5910  1.2485  0.0819
  126MOL   H26540515   1.661   0.068   5.914  0.9250 -1.0656 -0.6387
  126MOL   H26640516   1.765   7.672   5.852 -0.1728 -1.2769 -0.0046
  126MOL   H26740517   1.609   7.491   5.836  1.9168 -0.2244  1.5402
  126MOL   H26840518   1.406   7.376   5.968  0.0314  0.1744  0.2023
  126MOL   H26940519   1.416   7.516   6.064  0.6875 -2.4167  1.9726
  126MOL   H27040520   1.550   7.414   6.051 -0.5938  0.7970  2.2928
  126MOL   H27140521   1.358   7.668   5.835  0.8674 -0.2737  1.2123
  126MOL   H27240522   1.490   7.669   5.718 -0.7972 -0.6789 -1.1762
  126MOL   H27340523   1.372   7.537   5.724  0.5550  0.8711 -1.4283
  126MOL   C27440524   1.800   7.604   6.056 -0.2371  0.0733  0.1852
  126MOL   C27540525   1.934   7.547   6.015  0.0722  0.3580  0.2615
  126MOL   O27640526   2.010   7.496   6.124 -0.7244  0.2256  0.3715
  126MOL   C27740527   2.079   7.588   6.199 -0.1000 -0.0847  0.4307
  126MOL   C27840528   2.225   7.584   6.159  0.2537  0.1654 -0.6146
  126MOL   C27940529   2.052   7.534   6.336 -0.5654 -0.4391 -0.2271
  126MOL   H28040530   1.822   7.669   6.141 -1.1734  1.8105 -0.8643
  126MOL   H28140531   1.733   7.525   6.088 -0.0260 -0.8807 -1.6637
  126MOL   H28240532   1.985   7.620   5.952  0.3403 -0.4362 -0.4575
  126MOL   H28340533   2.029   7.685   6.195 -0.2975 -0.1458  1.3077
  126MOL   H28440534   2.246   7.651   6.076  0.2962  0.9815  0.0461
  126MOL   H28540535   2.291   7.625   6.236  0.9725 -0.1164 -1.0701
  126MOL   H28640536   2.263   7.491   6.116 -0.8077 -0.1092 -0.9523
  126MOL   H28740537   2.071   7.426   6.344  1.0916 -0.1811 -0.4652
  126MOL   H28840538   1.948   7.555   6.361 -0.6258  1.6865 -2.2194
  126MOL   H28940539   2.128   7.591   6.389  0.4583  0.6762 -2.8268
  126MOL   C29040540   1.912   7.409   5.932 -0.2303 -0.8390  0.1115
  126MOL   C29140541   2.017   7.392   5.814  0.7833  0.0851 -0.1030
  126MOL   O29240542   2.069   7.253   5.797  0.0350 -0.0764  0.2226
  126MOL   C29340543   2.178   7.219   5.881  0.5317  0.4525 -0.1967
  126MOL   C29440544   2.312   7.278   5.835  0.5032 -0.0740  0.2257
  126MOL   C29540545   2.185   7.059   5.884 -0.6823 -0.0608 -0.0819
  126MOL   H29640546   1.815   7.406   5.884  0.1899 -1.2419 -0.7196
  126MOL   H29740547   1.902   7.330   6.008 -0.2030 -0.5741  0.3916
  126MOL   H29840548   2.102   7.457   5.836  0.4793  0.4764 -0.0610
  126MOL   H29940549   2.156   7.251   5.983 -1.3529 -3.3014  0.6556
  126MOL   H30040550   2.383   7.252   5.913  0.7045  2.1866  0.8283
  126MOL   H30140551   2.340   7.256   5.732  1.3195  4.1387 -0.5353
  126MOL   H30240552   2.312   7.387   5.839  0.8789 -0.1403  2.6435
  126MOL   H30340553   2.184   7.009   5.787  0.6807  1.0292 -0.6815
  126MOL   H30440554   2.260   7.019   5.952 -0.5645  0.0770 -0.1300
  126MOL   H30540555   2.093   7.021   5.926 -1.3251 -0.3577 -1.7279
  126MOL   C30640556   1.949   7.443   5.678  0.1571  0.6191 -0.6369
  126MOL   C30740557   2.039   7.431   5.557 -0.1830  0.3211  0.1622
  126MOL   O30840558   1.985   7.507   5.452 -0.2173 -0.3352  0.3300
  126MOL   C30940559   2.079   7.545   5.350 -0.3672 -0.0955 -0.3775
  126MOL   C31040560   2.078   7.435   5.239  0.2707  0.1790 -0.7508
  126MOL   C31140561   2.015   7.670   5.279  0.0779 -0.2115  0.2586
  126MOL   H31240562   1.905   7.543   5.688 -3.6434 -0.9240 -1.0387
  126MOL   H31340563   1.867   7.375   5.659  0.4574 -0.5353  2.0379
  126MOL   H31440564   2.144   7.454   5.572  0.4580 -1.0877 -1.9500
  126MOL   H31540565   2.182   7.549   5.384 -0.0246  1.3342 -1.5587
  126MOL   H31640566   2.132   7.480   5.156 -1.7033  4.1888  0.0369
  126MOL   H31740567   1.978   7.419   5.200  0.6112 -0.6478 -1.2810
  126MOL   H31840568   2.123   7.338   5.262 -0.6692 -0.5933 -2.1348
  126MOL   H31940569   1.935   7.642   5.210  0.6668 -0.2118 -0.4249
  126MOL   H32040570   2.089   7.709   5.210  0.5923  1.1064  1.5282
  126MOL   H32140571   1.987   7.749   5.348  0.1941 -0.4564  0.5906
  126MOL   H32240572   2.038   7.326   5.528 -0.7361  0.5992 -0.8420
  127MOL     C140573   7.428   1.755   1.542  0.9370  0.4324  0.0445
  127MOL     C240574   7.422   1.662   1.662 -0.7895 -1.0609 -0.1732
  127MOL     O340575   7.557   1.658   1.713 -0.6767 -0.1978 -0.4287
  127MOL     C440576   7.608   1.528   1.731 -0.5158 -0.6605  0.4047
  127MOL     C540577   7.728   1.552   1.831  0.9576  0.2893  0.1240
  127MOL     C640578   7.653   1.475   1.586  0.0982 -0.0702 -0.3123
  127MOL     H740579   7.468   1.855   1.559 -1.4547  1.5744 -0.7384
  127MOL     H840580   7.493   1.729   1.458  1.0886  0.4161  0.1673
  127MOL     H940581   7.388   1.563   1.632  0.2188 -0.8569 -2.0657
  127MOL    H1040582   7.537   1.456   1.772 -1.1584 -0.9226 -1.1299
  127MOL    H1140583   7.677   1.570   1.925  0.8618 -1.0852  0.3482
  127MOL    H1240584   7.784   1.461   1.853  1.0981  0.0626 -1.0958
  127MOL    H1340585   7.798   1.632   1.807 -0.6745  1.8861  0.5809
  127MOL    H1440586   7.710   1.552   1.533  1.8724 -1.0611  0.0978
  127MOL    H1540587   7.706   1.379   1.589  1.7345  0.7893 -0.9985
  127MOL    H1640588   7.558   1.451   1.539 -1.5283  1.3268  2.1688
  127MOL    H1740589   7.328   1.773   1.502  0.6670 -1.6009 -0.2688
  127MOL    C1840590   7.350   1.718   1.784  0.1169 -0.0948  0.2669
  127MOL    C1940591   7.215   1.769   1.762 -0.0812  0.0581 -1.5858
  127MOL    O2040592   7.216   1.903   1.719 -0.0785  0.0957  0.3345
  127MOL    C2140593   7.121   1.931   1.612 -0.2647  0.6146 -0.3617
  127MOL    C2240594   7.182   2.055   1.542 -0.5601  0.5088  0.3155
  127MOL    C2340595   6.971   1.938   1.653  0.1799  0.5251  0.6594
  127MOL    H2440596   7.344   1.624   1.838  0.5309  0.0858  0.6254
  127MOL    H2540597   7.410   1.797   1.829 -1.8745  0.7337  1.5319
  127MOL    H2640598   7.173   1.711   1.680  0.3205 -1.4855 -0.7269
  127MOL    H2740599   7.137   1.855   1.535  0.8226  0.5233 -0.0570
  127MOL    H2840600   7.113   2.097   1.469 -0.7846 -0.4090 -0.0033
  127MOL    H2940601   7.190   2.134   1.617  0.4437  2.2628 -1.5799
  127MOL    H3040602   7.279   2.044   1.494 -1.1646 -0.2603 -0.7457
  127MOL    H3140603   6.908   1.962   1.567 -2.3717 -0.6099  2.1607
  127MOL    H3240604   6.948   2.004   1.737 -1.5149  0.2275  0.4650
  127MOL    H3340605   6.932   1.839   1.678  1.0276  0.3888  1.4556
  127MOL    C3440606   7.124   1.749   1.891  0.0470 -0.4778  0.8077
  127MOL    C3540607   7.031   1.625   1.889  0.1088  0.4275 -0.5002
  127MOL    O3640608   6.918   1.663   1.812  0.1564 -0.3673  0.5408
  127MOL    C3740609   6.792   1.650   1.872 -0.0473 -0.1833  0.4611
  127MOL    C3840610   6.768   1.782   1.949  0.3461 -0.1330 -0.5567
  127MOL    C3940611   6.689   1.640   1.753  0.1538  0.0730 -1.1231
  127MOL    H4040612   7.063   1.840   1.893 -2.5051 -2.1799  1.9455
  127MOL    H4140613   7.185   1.749   1.981  0.6905 -0.4277  0.3796
  127MOL    H4240614   6.991   1.599   1.987 -1.3273 -0.4504 -1.2976
  127MOL    H4340615   6.773   1.565   1.937  1.4815 -1.2624 -0.4832
  127MOL    H4440616   6.802   1.876   1.904 -2.3497  0.9983 -0.3042
  127MOL    H4540617   6.844   1.759   2.023  0.4329  1.8296 -0.0024
  127MOL    H4640618   6.675   1.808   2.000  2.6306  0.0382  3.6911
  127MOL    H4740619   6.597   1.679   1.795  2.5805  2.4003  2.3813
  127MOL    H4840620   6.723   1.697   1.666  0.0601  2.2146  0.2006
  127MOL    H4940621   6.683   1.537   1.717  0.2470  0.1949 -1.4865
  127MOL    C5040622   7.090   1.491   1.833 -0.0103  0.2336  0.3196
  127MOL    C5140623   7.151   1.394   1.939 -0.0477 -0.7044  0.0905
  127MOL    O5240624   7.293   1.421   1.956 -0.1652  0.2718  0.5037
  127MOL    C5340625   7.347   1.392   2.083 -0.3503 -0.6529 -0.6339
  127MOL    C5440626   7.339   1.531   2.166 -1.1145  0.2858  0.2492
  127MOL    C5540627   7.485   1.324   2.082 -0.5638  0.6405 -0.1970
  127MOL    H5640628   7.019   1.432   1.774 -0.2612 -0.5498  1.3864
  127MOL    H5740629   7.173   1.510   1.765 -0.2108 -1.0526 -0.2972
  127MOL    H5840630   7.104   1.414   2.036  1.6819 -0.1127  0.8117
  127MOL    H5940631   7.288   1.320   2.140 -1.7735  0.4588 -0.6781
  127MOL    H6040632   7.249   1.591   2.159 -0.0566  1.8606 -0.1847
  127MOL    H6140633   7.406   1.605   2.122 -0.3745 -1.2854 -1.3526
  127MOL    H6240634   7.364   1.515   2.271  1.7755 -0.1791 -0.4690
  127MOL    H6340635   7.479   1.225   2.037  1.8524  0.1080  0.5853
  127MOL    H6440636   7.534   1.310   2.179  0.0858 -0.0300 -0.6120
  127MOL    H6540637   7.555   1.386   2.027 -1.6745  2.7507  0.7158
  127MOL    C6640638   7.127   1.243   1.905 -0.1415  0.3101  0.3002
  127MOL    C6740639   6.977   1.198   1.923  0.4917  0.4416 -0.0982
  127MOL    O6840640   6.948   1.193   2.062  0.0582 -0.3224 -0.9144
  127MOL    C6940641   6.818   1.226   2.096  0.5633  0.4602 -0.2881
  127MOL    C7040642   6.768   1.116   2.193  0.2922  0.2555 -0.6258
  127MOL    C7140643   6.834   1.358   2.177  0.3992  0.1078  0.1843
  127MOL    H7240644   7.167   1.209   1.809 -3.5824 -1.8738 -0.4371
  127MOL    H7340645   7.178   1.175   1.973 -0.6280  1.3138  1.6902
  127MOL    H7440646   6.909   1.266   1.872 -1.3039 -0.5996  0.8518
  127MOL    H7540647   6.753   1.231   2.009 -0.4043 -1.0755  0.3406
  127MOL    H7640648   6.665   1.136   2.224  0.3484  0.1461 -0.3679
  127MOL    H7740649   6.763   1.017   2.149  1.3147 -0.0090 -0.1549
  127MOL    H7840650   6.825   1.118   2.286  1.4861  1.2798 -1.3702
  127MOL    H7940651   6.747   1.386   2.237  0.0510  0.3322 -0.4178
  127MOL    H8040652   6.827   1.441   2.106  2.0660 -0.1489 -0.2923
  127MOL    H8140653   6.926   1.348   2.234 -0.8286 -1.0785  2.0238
  127MOL    C8240654   6.976   1.063   1.848  0.3139  0.1317  0.2720
  127MOL    C8340655   6.833   1.002   1.832 -1.0185 -0.4381 -0.1903
  127MOL    O8440656   6.761   1.100   1.759 -0.6273  0.3603 -0.3499
  127MOL    C8540657   6.625   1.077   1.711  0.1590  0.5117  0.1788
  127MOL    C8640658   6.630   1.070   1.561 -0.1660  0.3504  0.4886
  127MOL    C8740659   6.538   1.189   1.757  0.0917  0.4432 -0.2745
  127MOL    H8840660   7.013   1.081   1.747  1.3050  0.0576  0.6118
  127MOL    H8940661   7.048   0.994   1.893  0.6312  0.7382  0.6972
  127MOL    H9040662   6.798   0.977   1.932 -0.7397 -2.2213 -0.5227
  127MOL    H9140663   6.584   0.980   1.740 -0.3266  0.7202  0.1884
  127MOL    H9240664   6.688   1.157   1.531 -3.1160  2.2905  0.1864
  127MOL    H9340665   6.681   0.976   1.539 -0.8575  0.1003 -0.0755
  127MOL    H9440666   6.533   1.067   1.512  0.0094 -1.9569  0.2066
  127MOL    H9540667   6.538   1.196   1.866  2.5686  0.4595 -0.2524
  127MOL    H9640668   6.576   1.282   1.714  1.5687  2.3463  4.7532
  127MOL    H9740669   6.435   1.167   1.728  0.2200 -0.8705  0.2593
  127MOL    C9840670   6.839   0.867   1.751  0.5867 -0.7207  0.1997
  127MOL    C9940671   6.918   0.751   1.818 -0.0066  0.4083 -0.2736
  127MOL   O10040672   6.906   0.623   1.748  0.4819  0.5650 -0.7971
  127MOL   C10140673   6.949   0.608   1.615 -0.1806  0.2958 -0.0567
  127MOL   C10240674   6.892   0.481   1.555  0.2219 -0.2958 -0.6003
  127MOL   C10340675   7.102   0.605   1.608 -0.5455  0.1435 -0.5404
  127MOL   H10440676   6.741   0.826   1.727  0.0106  0.9823 -0.4067
  127MOL   H10540677   6.875   0.894   1.652  0.3635 -3.1108 -0.5503
  127MOL   H10640678   7.023   0.781   1.821 -0.1741  1.0032 -0.3620
  127MOL   H10740679   6.913   0.696   1.562 -3.1398 -1.2991 -0.8178
  127MOL   H10840680   6.784   0.481   1.572  0.3050  1.8138  0.1583
  127MOL   H10940681   6.939   0.388   1.589  0.3514  0.5366  1.6125
  127MOL   H11040682   6.915   0.496   1.450 -0.0399  0.0047 -0.6139
  127MOL   H11140683   7.124   0.590   1.502 -0.9030  0.4989 -0.6684
  127MOL   H11240684   7.134   0.519   1.666 -0.9432 -1.4363 -2.6287
  127MOL   H11340685   7.149   0.699   1.640  1.4089 -0.2550 -2.1140
  127MOL   C11440686   6.865   0.715   1.960 -0.2132  0.0305 -0.4605
  127MOL   C11540687   6.981   0.694   2.063 -0.2865 -0.1716  0.1907
  127MOL   O11640688   6.935   0.651   2.196  0.2871  0.1118  0.4645
  127MOL   C11740689   6.880   0.751   2.278 -0.1673  0.4558  0.3642
  127MOL   C11840690   6.998   0.825   2.353 -0.1904 -0.4768 -0.7127
  127MOL   C11940691   6.791   0.670   2.375  0.0707  0.3709 -1.1493
  127MOL   H12040692   6.798   0.629   1.958  0.1384 -0.2860  0.7053
  127MOL   H12140693   6.801   0.795   1.997 -2.0959 -0.2268 -3.0410
  127MOL   H12240694   7.032   0.790   2.064 -0.9367  0.2140 -1.7663
  127MOL   H12340695   6.810   0.801   2.211  0.6482 -1.1746 -1.7623
  127MOL   H12440696   6.954   0.895   2.424  0.2710  0.1983 -1.0907
  127MOL   H12540697   7.043   0.893   2.281 -0.6620  2.5496  1.7657
  127MOL   H12640698   7.070   0.764   2.408 -0.7951 -1.2039 -0.7109
  127MOL   H12740699   6.745   0.581   2.331 -1.0214  0.2977  0.1191
  127MOL   H12840700   6.718   0.730   2.430  1.0330  0.8718 -0.4027
  127MOL   H12940701   6.862   0.630   2.447 -2.7845  1.8476  2.6602
  127MOL   C13040702   7.085   0.586   2.021  0.6854 -0.3495  0.2628
  127MOL   C13140703   7.228   0.598   2.077  0.1380  0.3862  0.1180
  127MOL   O13240704   7.236   0.582   2.221 -0.0822  0.4272  0.0757
  127MOL   C13340705   7.237   0.453   2.286  0.5837  0.1308 -0.0747
  127MOL   C13440706   7.383   0.444   2.332  0.3779  0.1684  0.9044
  127MOL   C13540707   7.146   0.449   2.408 -0.3204  0.7411 -0.2374
  127MOL   H13640708   7.080   0.582   1.912 -2.5157  0.0777  0.3509
  127MOL   H13740709   7.034   0.492   2.040  1.9934 -0.8775  1.1883
  127MOL   H13840710   7.297   0.526   2.032 -0.2317 -0.3729  0.7494
  127MOL   H13940711   7.206   0.370   2.223  0.1218  1.1900 -1.2870
  127MOL   H14040712   7.436   0.537   2.353  1.2734 -0.6564  2.3966
  127MOL   H14140713   7.444   0.406   2.249  0.1768 -1.2584  1.3989
  127MOL   H14240714   7.403   0.371   2.410  2.0828 -2.3770 -1.7862
  127MOL   H14340715   7.041   0.456   2.380 -0.0825  1.3342 -0.9926
  127MOL   H14440716   7.152   0.365   2.477  1.8883  0.0946 -1.1816
  127MOL   H14540717   7.163   0.542   2.461  0.5944 -0.2021  1.1438
  127MOL   C14640718   7.286   0.739   2.054  0.3610 -0.0421  0.4946
  127MOL   C14740719   7.435   0.743   2.080 -0.8353 -0.2392 -0.2409
  127MOL   O14840720   7.490   0.676   1.959 -0.2250 -0.5446  0.2919
  127MOL   C14940721   7.623   0.636   1.980 -0.0110  0.3901 -0.0621
  127MOL   C15040722   7.702   0.647   1.853  0.3173  0.0163 -0.1926
  127MOL   C15140723   7.628   0.485   2.019 -0.3654 -0.1219 -0.3916
  127MOL   H15240724   7.234   0.814   2.113 -0.3141 -0.8320  0.9130
  127MOL   H15340725   7.267   0.757   1.948 -2.4728  0.7727  1.0798
  127MOL   H15440726   7.461   0.691   2.172  0.6585 -0.2801 -0.6779
  127MOL   H15540727   7.677   0.700   2.050  2.9361 -2.0018 -0.0358
  127MOL   H15640728   7.663   0.582   1.775 -2.4767 -1.2327  2.1244
  127MOL   H15740729   7.808   0.626   1.862  0.3503  0.3918  0.3093
  127MOL   H15840730   7.719   0.752   1.830 -2.2189  1.1992  2.8499
  127MOL   H15940731   7.735   0.464   2.009 -0.1885  1.7987 -3.1038
  127MOL   H16040732   7.571   0.420   1.953 -2.7352  1.5412 -0.0475
  127MOL   H16140733   7.594   0.470   2.122  0.2784  0.8936 -0.0220
  127MOL   C16240734   7.483   0.886   2.084 -0.7612  0.6145 -0.2304
  127MOL   C16340735   7.531   0.929   2.224 -0.5443 -1.0214  0.3949
  127MOL   O16440736   7.611   1.047   2.212  0.3005  0.1194 -0.4946
  127MOL   C16540737   7.746   1.024   2.176  0.2808 -0.4710 -0.4135
  127MOL   C16640738   0.002   1.013   2.308 -0.1168 -0.6517  0.1209
  127MOL   C16740739   7.800   1.149   2.092  0.3032  0.4846  0.0485
  127MOL   H16840740   7.565   0.905   2.014 -0.4013  2.5142  0.6570
  127MOL   H16940741   7.408   0.958   2.049 -0.7602 -0.3714 -2.3016
  127MOL   H17040742   7.598   0.855   2.268  0.7661 -0.9341 -1.4076
  127MOL   H17140743   7.755   0.930   2.121 -0.6112 -0.7197 -0.1424
  127MOL   H17240744   7.788   0.935   2.375 -2.9535 -0.8632 -1.5254
  127MOL   H17340745   7.819   1.104   2.367 -0.6937 -0.4609 -0.2057
  127MOL   H17440746   0.107   0.994   2.285  0.0908 -1.3119  1.5709
  127MOL   H17540747   0.086   1.132   2.079  0.0579  0.1459 -1.7302
  127MOL   H17640748   7.798   1.243   2.147 -1.6238 -0.8583  2.3769
  127MOL   H17740749   7.755   1.161   1.993  0.8530 -0.2879 -0.2982
  127MOL   C17840750   7.405   0.955   2.315 -0.2528  0.0554  0.2402
  127MOL   C17940751   7.437   1.034   2.447  0.0012  0.7558 -0.1160
  127MOL   O18040752   7.312   1.090   2.502  0.2022  0.1035  0.3540
  127MOL   C18140753   7.280   1.212   2.431  0.1060  0.5224  0.6299
  127MOL   C18240754   7.299   1.329   2.528 -0.2332 -0.0049 -0.1378
  127MOL   C18340755   7.132   1.206   2.389 -0.4439 -0.0479  0.0329
  127MOL   H18440756   7.357   0.861   2.342  0.4546 -0.3897 -0.0381
  127MOL   H18540757   7.329   1.017   2.268 -2.2049 -0.3636  2.7360
  127MOL   H18640758   7.509   1.110   2.420  0.4502  0.2831 -0.2531
  127MOL   H18740759   7.345   1.223   2.344 -1.8067 -1.1855 -1.0966
  127MOL   H18840760   7.268   1.316   2.631 -0.3707 -1.0803 -0.3068
  127MOL   H18940761   7.251   1.422   2.497 -0.7760 -1.4036 -3.7916
  127MOL   H19040762   7.404   1.360   2.525 -0.3471  0.4873  0.9603
  127MOL   H19140763   7.060   1.197   2.470  0.7748 -0.8398  1.0527
  127MOL   H19240764   7.106   1.123   2.324  0.3647 -1.8758  1.9719
  127MOL   H19340765   7.123   1.303   2.340  1.3693  0.4565  0.6484
  127MOL   C19440766   7.497   0.942   2.556  0.3597  0.3737 -0.2568
  127MOL   C19540767   7.539   1.027   2.682 -0.2418 -0.1760 -0.5577
  127MOL   O19640768   7.670   1.079   2.644 -0.3488 -1.0641 -0.4826
  127MOL   C19740769   7.717   1.192   2.731  0.6094  0.8529 -0.5821
  127MOL   C19840770   0.041   1.159   2.766 -0.2540  0.8708 -0.3157
  127MOL   C19940771   7.708   1.314   2.646 -0.0220 -0.8407  1.0337
  127MOL   H20040772   7.420   0.873   2.591 -0.6260  1.3856 -0.3868
  127MOL   H20140773   7.579   0.892   2.505 -1.1900 -0.1421 -2.2729
  127MOL   H20240774   7.466   1.107   2.692  0.3883  0.3181  0.1480
  127MOL   H20340775   7.650   1.199   2.817 -1.2450 -1.1689 -1.8005
  127MOL   H20440776   0.037   1.084   2.846  0.3377 -0.3400 -1.4126
  127MOL   H20540777   0.091   1.101   2.689 -2.6889  0.8745 -1.9479
  127MOL   H20640778   0.106   1.239   2.803 -0.1076 -0.1815  1.8207
  127MOL   H20740779   7.603   1.338   2.630 -0.6195 -1.9423  3.1330
  127MOL   H20840780   7.769   1.393   2.690 -0.3077 -0.5618  0.9301
  127MOL   H20940781   7.752   1.291   2.548  0.1750  0.6995  0.7504
  127MOL   C21040782   7.562   0.928   2.802  0.3659  0.2115  0.6192
  127MOL   C21140783   7.430   0.891   2.874  0.7040 -0.2541 -0.0086
  127MOL   O21240784   7.377   0.783   2.799 -0.0351 -0.5141 -0.3655
  127MOL   C21340785   7.232   0.767   2.821 -0.1022 -0.3320 -0.0833
  127MOL   C21440786   7.166   0.844   2.700 -0.1516 -0.3371 -0.1461
  127MOL   C21540787   7.214   0.621   2.802 -0.0493 -0.8457 -0.2939
  127MOL   H21640788   7.631   0.974   2.874  0.6712  0.0099  0.4555
  127MOL   H21740789   7.620   0.842   2.770  0.2817  0.0303  0.9523
  127MOL   H21840790   7.360   0.974   2.873  0.1255 -0.7378 -1.2395
  127MOL   H21940791   7.180   0.800   2.911  2.3241  0.5153  1.0773
  127MOL   H22040792   7.222   0.829   2.608  2.2819 -0.8794  1.3697
  127MOL   H22140793   7.172   0.951   2.723 -2.1790 -0.4089  0.8735
  127MOL   H22240794   7.062   0.818   2.683 -1.0953  1.6896  2.1904
  127MOL   H22340795   7.255   0.576   2.892  0.3460  0.1993  0.0570
  127MOL   H22440796   7.262   0.588   2.710  0.1621  0.4726 -0.6609
  127MOL   H22540797   7.108   0.593   2.796 -0.9761  2.5962 -1.3591
  127MOL   C22640798   7.444   0.838   3.015  0.2696  0.5706  0.5614
  127MOL   C22740799   7.505   0.929   3.126 -0.1009  0.1424 -0.3158
  127MOL   O22840800   7.481   0.854   3.245  0.6134  0.4543 -0.3163
  127MOL   C22940801   7.571   0.863   3.353  0.0542 -0.0617 -0.4602
  127MOL   C23040802   7.691   0.758   3.345 -0.0620 -0.2106  0.3799
  127MOL   C23140803   7.494   0.850   3.486 -0.0187 -0.0895 -0.5052
  127MOL   H23240804   7.498   0.743   3.022 -0.1384  0.3958  1.4017
  127MOL   H23340805   7.346   0.815   3.055 -0.2895  1.9421  0.0038
  127MOL   H23440806   7.613   0.932   3.110  0.1967  1.6956  1.7958
  127MOL   H23540807   7.628   0.956   3.349  1.7947 -1.1052 -0.6814
  127MOL   H23640808   7.742   0.766   3.442 -1.4456  1.4190  0.9984
  127MOL   H23740809   7.651   0.657   3.343 -1.0883  0.1847  0.6974
  127MOL   H23840810   7.764   0.775   3.266  0.4896 -0.0893  0.9086
  127MOL   H23940811   7.555   0.905   3.558  2.0215 -2.4019 -0.4280
  127MOL   H24040812   7.490   0.751   3.531 -1.3552 -0.3289 -1.1387
  127MOL   H24140813   7.394   0.893   3.494  0.2455  0.2667  1.0675
  127MOL   C24240814   7.441   1.072   3.125 -0.5252  0.2519 -0.0455
  127MOL   C24340815   7.287   1.092   3.144 -0.8307  0.0183 -0.0810
  127MOL   O24440816   7.260   1.228   3.110  0.3988  0.4170 -0.2947
  127MOL   C24540817   7.131   1.273   3.076 -0.0554 -0.2953  0.8117
  127MOL   C24640818   7.117   1.428   3.104 -0.7763  0.7479  0.1922
  127MOL   C24740819   7.124   1.253   2.927  0.8102 -0.0422 -0.0687
  127MOL   H24840820   7.496   1.134   3.195  1.5129 -0.8009 -0.6729
  127MOL   H24940821   7.465   1.104   3.024  2.0370  0.5412  0.6176
  127MOL   H25040822   7.236   1.032   3.069 -3.3628 -0.2713  1.7878
  127MOL   H25140823   7.047   1.223   3.125 -3.0950  2.0631 -1.7323
  127MOL   H25240824   7.022   1.466   3.065 -0.9453  0.6482  0.5047
  127MOL   H25340825   7.105   1.447   3.210 -0.6569 -0.1479  0.3637
  127MOL   H25440826   7.200   1.482   3.058 -0.6042 -0.6046 -1.1408
  127MOL   H25540827   7.204   1.307   2.877 -0.1156  1.6730  0.2492
  127MOL   H25640828   7.139   1.147   2.903 -1.7645 -0.5861  0.5955
  127MOL   H25740829   7.029   1.278   2.881  1.0481  0.6323 -0.1900
  127MOL   C25840830   7.241   1.076   3.292 -0.2437  0.3722  0.0782
  127MOL   C25940831   7.113   0.993   3.312 -0.7090  0.7003  0.3833
  127MOL   O26040832   7.053   1.017   3.438  0.4598 -0.0231  0.3382
  127MOL   C26140833   6.989   1.143   3.451 -0.4051 -0.3024  0.2349
  127MOL   C26240834   6.838   1.126   3.451  0.2298 -0.2571  0.1643
  127MOL   C26340835   7.049   1.210   3.584 -0.1551  0.6515  0.0208
  127MOL   H26440836   7.324   1.039   3.351 -0.6933 -0.1217  0.4124
  127MOL   H26540837   7.235   1.172   3.342  0.0908 -0.2574  1.3565
  127MOL   H26640838   7.046   1.015   3.229 -1.1832 -1.0688  0.2643
  127MOL   H26740839   7.020   1.204   3.365  0.4362  1.3321  1.6638
  127MOL   H26840840   6.792   1.225   3.446  0.0690 -0.4051 -1.9406
  127MOL   H26940841   6.817   1.075   3.544  2.1805 -2.2114 -0.4396
  127MOL   H27040842   6.795   1.065   3.371 -0.5796  0.5327 -0.0245
  127MOL   H27140843   7.023   1.315   3.598 -0.7069  0.6284 -0.7902
  127MOL   H27240844   7.012   1.163   3.675  2.0633 -0.5770  0.3441
  127MOL   H27340845   7.156   1.191   3.569 -0.8806 -2.9874 -1.0729
  127MOL   C27440846   7.138   0.838   3.289  0.7936  0.5906 -0.2132
  127MOL   C27540847   7.023   0.738   3.255  0.2469 -0.7526  0.2549
  127MOL   O27640848   6.980   0.782   3.127  0.2267  0.4422  0.4211
  127MOL   C27740849   6.839   0.815   3.123 -0.3682 -0.0874  0.0127
  127MOL   C27840850   6.758   0.688   3.101  0.0425 -0.3856 -0.0833
  127MOL   C27940851   6.831   0.898   2.995 -0.0681  0.8557  0.4565
  127MOL   H28040852   7.215   0.831   3.212  1.0577  1.2105 -0.0079
  127MOL   H28140853   7.182   0.796   3.379 -0.0614 -2.6296 -1.2173
  127MOL   H28240854   6.948   0.744   3.334  0.0654 -0.0148  0.0259
  127MOL   H28340855   6.792   0.866   3.206 -0.3185  0.5781 -0.3646
  127MOL   H28440856   6.804   0.611   3.039 -1.4137 -0.1960 -1.4551
  127MOL   H28540857   6.736   0.638   3.195  1.0719  1.5668  1.2286
  127MOL   H28640858   6.657   0.701   3.061  0.6854 -0.9557 -1.9640
  127MOL   H28740859   6.901   0.982   2.996  0.8272  0.1117  1.1922
  127MOL   H28840860   6.739   0.956   2.994  0.5636  1.9181 -2.3737
  127MOL   H28940861   6.843   0.843   2.902 -1.2584  0.7388  0.3644
  127MOL   C29040862   7.073   0.593   3.242 -0.7367  0.1955 -0.5365
  127MOL   C29140863   7.118   0.523   3.371 -0.1293  0.1109  0.6743
  127MOL   O29240864   7.084   0.381   3.363 -0.4858  0.0235 -0.1950
  127MOL   C29340865   6.959   0.329   3.411  0.6528 -0.0175 -0.4518
  127MOL   C29440866   6.959   0.335   3.564 -0.0309 -0.1324 -0.6538
  127MOL   C29540867   6.941   0.186   3.358  0.5875  0.1288 -0.1681
  127MOL   H29640868   7.147   0.596   3.162 -0.9268  0.8007 -0.6955
  127MOL   H29740869   6.991   0.535   3.200  0.2494 -1.6068 -0.0276
  127MOL   H29840870   7.061   0.562   3.455  0.3379  0.5431  0.7933
  127MOL   H29940871   6.887   0.388   3.353  2.2532  0.8735 -1.5701
  127MOL   H30040872   6.854   0.326   3.593  0.0053  0.3186 -0.3660
  127MOL   H30140873   7.005   0.249   3.612 -0.0567  1.9445  3.3644
  127MOL   H30240874   6.993   0.431   3.603 -1.0972  0.1341 -0.3540
  127MOL   H30340875   6.959   0.172   3.252 -1.5130  0.5132 -0.6025
  127MOL   H30440876   6.988   0.114   3.425 -1.2311  0.7315  1.8322
  127MOL   H30540877   6.833   0.171   3.371  0.4441  1.4803  0.3401
  127MOL   C30640878   7.270   0.528   3.398 -0.4966  0.2326 -0.5842
  127MOL   C30740879   7.321   0.463   3.523  0.2091  0.2765  0.6789
  127MOL   O30840880   7.454   0.494   3.541 -0.5264 -0.8059  0.0770
  127MOL   C30940881   7.508   0.465   3.663  0.0979  0.0719  0.7006
  127MOL   C31040882   7.556   0.317   3.651  0.7092  0.7521 -0.0172
  127MOL   C31140883   7.622   0.565   3.701  0.2917  0.6664  0.6921
  127MOL   H31240884   7.301   0.633   3.400 -1.0021  0.4562 -2.5772
  127MOL   H31340885   7.328   0.481   3.319 -1.1048 -0.9167 -0.3475
  127MOL   H31440886   7.254   0.484   3.606 -1.1196 -1.1133 -0.0135
  127MOL   H31540887   7.425   0.459   3.734 -0.0111  1.8134  0.7409
  127MOL   H31640888   7.633   0.300   3.576  0.0464 -1.1032 -0.2894
  127MOL   H31740889   7.469   0.252   3.647 -0.3491  1.9646  2.4171
  127MOL   H31840890   7.593   0.284   3.748 -1.7748  0.4107  0.8610
  127MOL   H31940891   7.693   0.576   3.620  0.7408 -0.8339  0.8702
  127MOL   H32040892   7.678   0.537   3.790 -2.3640  0.2642  2.2971
  127MOL   H32140893   7.582   0.665   3.721 -2.3271  0.1761 -1.7849
  127MOL   H32240894   7.315   0.356   3.502 -2.3644  0.5585 -0.1139
  128MOL     C140895   0.340   5.165   5.382 -0.4328  0.0967 -0.0098
  128MOL     C240896   0.231   5.053   5.380 -0.4026  0.5090 -0.2964
  128MOL     O340897   0.282   4.967   5.477  0.4274 -0.0451 -0.0023
  128MOL     C440898   0.295   4.831   5.445  0.0010  0.6356 -0.3610
  128MOL     C540899   0.264   4.743   5.571  0.2550  0.5696 -0.0507
  128MOL     C640900   0.442   4.809   5.394 -0.0445 -0.3442  0.0752
  128MOL     H740901   0.348   5.218   5.477  0.9287  2.4159 -1.3915
  128MOL     H840902   0.439   5.128   5.357 -0.6053 -0.4020  0.0248
  128MOL     H940903   0.231   5.002   5.284 -0.2914 -1.9599  0.9820
  128MOL    H1040904   0.229   4.792   5.368  1.1445  0.1603 -1.1131
  128MOL    H1140905   0.281   4.637   5.552 -0.0106  0.9299 -2.3475
  128MOL    H1240906   0.322   4.772   5.659  2.6693 -0.0859 -1.3968
  128MOL    H1340907   0.159   4.756   5.598  0.5352 -0.0727  1.4231
  128MOL    H1440908   0.519   4.842   5.464 -0.9245  1.1874  0.3557
  128MOL    H1540909   0.466   4.708   5.361  0.5256  0.6217 -2.6252
  128MOL    H1640910   0.458   4.866   5.303 -1.0035 -1.3992 -0.7685
  128MOL    H1740911   0.319   5.241   5.307  1.1362  0.3467 -0.2063
  128MOL    C1840912   0.090   5.092   5.426  0.3585 -0.2644 -0.4254
  128MOL    C1940913   7.807   4.987   5.367 -0.3043  0.2684  0.1789
  128MOL    O2040914   7.753   5.039   5.241  0.1662 -0.2802  0.0341
  128MOL    C2140915   7.788   4.970   5.123  0.3336 -0.3477 -0.2627
  128MOL    C2240916   0.023   5.076   5.030 -0.5956  0.3503  0.6692
  128MOL    C2340917   7.658   4.919   5.066  0.0604  0.6307 -0.2677
  128MOL    H2440918   0.090   5.103   5.535  1.1131 -1.2139 -0.3212
  128MOL    H2540919   0.066   5.193   5.395 -1.5056  0.5155  3.2508
  128MOL    H2640920   0.035   4.893   5.342 -1.2137  0.3391 -2.0105
  128MOL    H2740921   0.038   4.889   5.137  0.4002  0.1360  2.5844
  128MOL    H2840922   0.051   5.026   4.937 -0.4784 -0.3233  1.0657
  128MOL    H2940923   7.767   5.148   5.001 -0.4203  1.2918  2.4921
  128MOL    H3040924   0.115   5.122   5.067 -0.5290  0.5849  0.2204
  128MOL    H3140925   7.583   4.999   5.065  1.7391  2.2444 -0.5917
  128MOL    H3240926   7.622   4.841   5.132  2.9750 -1.6090 -1.2328
  128MOL    H3340927   7.671   4.873   4.968 -1.6320 -1.9301  0.6509
  128MOL    C3440928   7.694   4.952   5.461 -0.5068  0.8790 -0.1835
  128MOL    C3540929   7.636   4.804   5.435  0.0502  0.2807  0.5999
  128MOL    O3640930   7.734   4.718   5.495  0.0444  0.6568 -0.4662
  128MOL    C3740931   7.736   4.579   5.452 -0.5360 -0.1725  0.0498
  128MOL    C3840932   0.013   4.577   5.332  0.3278  0.0103 -0.6134
  128MOL    C3940933   7.775   4.488   5.571 -0.2562 -0.8184  0.1311
  128MOL    H4040934   7.610   5.021   5.456 -2.5497 -1.5187 -0.0343
  128MOL    H4140935   7.725   4.964   5.565  0.1926  2.1397 -0.5253
  128MOL    H4240936   7.636   4.787   5.328  0.6487  0.0482  0.6347
  128MOL    H4340937   7.632   4.553   5.431  0.0565 -2.2634 -0.3601
  128MOL    H4440938   0.024   4.480   5.284  0.7173 -1.2584  1.9457
  128MOL    H4540939   0.116   4.599   5.360  1.4960  2.6185 -6.3708
  128MOL    H4640940   7.796   4.642   5.253 -0.3047  1.1940  0.6374
  128MOL    H4740941   0.038   4.516   5.636 -2.2315  0.0944  2.3409
  128MOL    H4840942   7.696   4.481   5.646  0.5521  0.3368  1.1102
  128MOL    H4940943   7.801   4.386   5.542  1.5058 -0.5403  0.6911
  128MOL    C5040944   7.496   4.793   5.488 -0.5410 -0.0032 -0.5859
  128MOL    C5140945   7.381   4.858   5.405  0.5928 -0.5249  0.8197
  128MOL    O5240946   7.272   4.850   5.494 -0.5890 -0.1872  0.3806
  128MOL    C5340947   7.249   4.952   5.580 -0.2660 -0.3388 -0.3177
  128MOL    C5440948   7.172   4.902   5.703  0.1097  0.7390 -0.2170
  128MOL    C5540949   7.160   5.049   5.511  0.4797 -0.1183 -0.2963
  128MOL    H5640950   7.471   4.688   5.500  0.1206 -0.0988  0.0210
  128MOL    H5740951   7.499   4.831   5.590  1.9363 -3.3462  0.6503
  128MOL    H5840952   7.409   4.958   5.373 -0.1570  0.4207  2.9809
  128MOL    H5940953   7.342   5.001   5.607 -0.9285  0.8212 -0.1338
  128MOL    H6040954   7.215   4.814   5.751  1.3591  1.0676 -0.7358
  128MOL    H6140955   7.067   4.871   5.695 -0.1270  1.7369 -1.0270
  128MOL    H6240956   7.165   4.984   5.774  0.2199  0.8147 -0.2943
  128MOL    H6340957   7.194   5.088   5.415  1.1227 -0.5391 -0.2423
  128MOL    H6440958   7.155   5.143   5.566  2.1570 -0.9091  1.2561
  128MOL    H6540959   7.059   5.010   5.502 -0.5644  2.4191  0.1332
  128MOL    C6640960   7.345   4.764   5.285  1.1441  0.1306  0.0415
  128MOL    C6740961   7.220   4.812   5.204  0.0485 -0.5932  0.0051
  128MOL    O6840962   7.179   4.705   5.123  0.1185  0.5134  0.3929
  128MOL    C6940963   7.086   4.606   5.178  0.1281 -0.7433 -0.7661
  128MOL    C7040964   6.943   4.649   5.140  0.1980  0.9850  0.8138
  128MOL    C7140965   7.115   4.465   5.126 -0.6582 -0.1321 -0.5922
  128MOL    H7240966   7.433   4.751   5.223  1.1704 -0.7497  0.2556
  128MOL    H7340967   7.330   4.664   5.326  0.3189 -0.2051 -1.0489
  128MOL    H7440968   7.138   4.841   5.270 -0.5982 -0.5629 -0.8030
  128MOL    H7540969   7.088   4.604   5.287  0.3938  1.1882 -0.7066
  128MOL    H7640970   6.915   4.749   5.173  0.5016  1.7534 -1.1587
  128MOL    H7740971   6.925   4.655   5.032 -0.8112 -0.9343  0.8634
  128MOL    H7840972   6.869   4.577   5.174 -0.5850  1.8973  1.0582
  128MOL    H7940973   7.031   4.397   5.127 -2.8028  2.4152 -0.5889
  128MOL    H8040974   7.195   4.418   5.184 -1.3309 -1.8381 -1.0284
  128MOL    H8140975   7.158   4.470   5.026 -1.1145 -2.4614 -0.9251
  128MOL    C8240976   7.273   4.930   5.113  0.0403 -0.1145  0.5908
  128MOL    C8340977   7.155   4.994   5.030  0.3209 -0.2920 -0.2230
  128MOL    O8440978   7.086   5.073   5.126 -0.5412  0.6973 -0.4108
  128MOL    C8540979   6.954   5.123   5.102  0.2473  0.3205  0.1623
  128MOL    C8640980   6.918   5.228   5.211 -0.0449 -0.0857 -0.5241
  128MOL    C8740981   6.857   5.007   5.108  0.0634  0.2783  0.3532
  128MOL    H8840982   7.342   5.002   5.158 -0.2890  0.7896 -0.3117
  128MOL    H8940983   7.336   4.867   5.050 -1.5326 -0.4799 -0.6421
  128MOL    H9040984   7.096   4.914   4.985  0.6632  0.2238 -1.6241
  128MOL    H9140985   6.954   5.169   5.003  2.4870 -0.1619 -0.0996
  128MOL    H9240986   6.947   5.182   5.306 -0.5894 -0.4189 -0.5181
  128MOL    H9340987   6.980   5.316   5.196  0.4838 -0.3096  0.3157
  128MOL    H9440988   6.811   5.248   5.213 -0.3653 -1.7387  3.1564
  128MOL    H9540989   6.761   5.041   5.070  0.8777 -0.0202 -2.0493
  128MOL    H9640990   6.885   4.922   5.046  0.4237 -1.1662  2.4433
  128MOL    H9740991   6.847   4.969   5.210 -2.9878 -1.0045 -0.3767
  128MOL    C9840992   7.213   5.092   4.928  0.1845 -0.8517  0.3539
  128MOL    C9940993   7.281   5.027   4.804  0.5745 -0.4439  0.0098
  128MOL   O10040994   7.343   5.135   4.734  0.1470 -0.5825  0.0599
  128MOL   C10140995   7.482   5.182   4.766 -0.3612 -0.1319 -0.6419
  128MOL   C10240996   7.473   5.332   4.754 -0.6437 -0.0635  0.7552
  128MOL   C10340997   7.583   5.107   4.669 -0.3386 -0.9240  0.0757
  128MOL   H10440998   7.141   5.168   4.897  1.6868  0.8145  0.8791
  128MOL   H10540999   7.281   5.152   4.988 -1.0918  0.6739  0.3187
  128MOL   H10641000   7.352   4.950   4.835  1.2083  0.8686  1.9172
  128MOL   H10741001   7.502   5.150   4.868 -1.8296  0.9585  0.0059
  128MOL   H10841002   7.569   5.384   4.766  1.1811 -2.3874 -2.8325
  128MOL   H10941003   7.400   5.364   4.828 -1.0951 -1.7755  1.0621
  128MOL   H11041004   7.438   5.356   4.653 -0.5750 -0.4105  0.6494
  128MOL   H11141005   7.687   5.119   4.699  0.5502 -2.7847 -2.1435
  128MOL   H11241006   7.571   5.137   4.565  1.1918  0.1350  0.1757
  128MOL   H11341007   7.546   5.005   4.674 -2.3428 -0.2789 -1.2673
  128MOL   C11441008   7.180   4.970   4.707 -0.2118 -0.0863 -0.0814
  128MOL   C11541009   7.170   4.820   4.700 -0.0427 -0.7748 -0.0268
  128MOL   O11641010   7.091   4.776   4.586 -0.5747  0.1940 -0.5333
  128MOL   C11741011   6.952   4.788   4.611  0.2634  0.5828 -0.1065
  128MOL   C11841012   6.910   4.649   4.640  0.7054  0.4345  0.4264
  128MOL   C11941013   6.891   4.854   4.488  0.1244  0.4167  0.3432
  128MOL   H12041014   7.192   5.004   4.604 -0.4599 -0.6802 -0.3081
  128MOL   H12141015   7.077   5.003   4.721  0.9567  2.6809  2.4116
  128MOL   H12241016   7.147   4.780   4.799 -2.8474  3.3947  1.1490
  128MOL   H12341017   6.912   4.852   4.690 -0.3478  0.3269 -0.2067
  128MOL   H12441018   6.802   4.641   4.636  0.6886  1.0123 -0.4360
  128MOL   H12541019   6.943   4.604   4.734 -0.0116  1.3181  1.1152
  128MOL   H12641020   6.942   4.585   4.558 -0.5694  1.1378 -0.6467
  128MOL   H12741021   6.958   4.922   4.436 -1.3363  0.2171 -1.8653
  128MOL   H12841022   6.793   4.898   4.506  0.3615  1.1631 -0.1605
  128MOL   H12941023   6.886   4.783   4.405  0.0846  1.0666 -0.2166
  128MOL   C13041024   7.306   4.745   4.659 -0.3732 -0.1830  0.2852
  128MOL   C13141025   7.316   4.595   4.659 -0.2305 -0.0654 -0.0882
  128MOL   O13241026   7.451   4.554   4.685 -0.0447 -0.2998 -0.2747
  128MOL   C13341027   7.464   4.495   4.817 -0.2873  0.1971  0.0600
  128MOL   C13441028   7.559   4.374   4.806 -0.3189 -0.0799  0.0135
  128MOL   C13541029   7.519   4.598   4.913 -0.4983 -0.2235 -0.5634
  128MOL   H13641030   7.379   4.781   4.732 -0.4421  0.5114  0.0109
  128MOL   H13741031   7.352   4.781   4.567 -1.0917  1.2557  0.4871
  128MOL   H13841032   7.249   4.551   4.733 -1.2265  0.8624 -0.4302
  128MOL   H13941033   7.370   4.464   4.863 -0.4472  2.6992  1.4764
  128MOL   H14041034   7.638   4.397   4.735 -1.0474  0.3970 -0.6391
  128MOL   H14141035   7.498   4.289   4.775 -0.4385 -0.3601  0.9749
  128MOL   H14241036   7.613   4.351   4.898 -0.1482  2.0648  0.4576
  128MOL   H14341037   7.617   4.642   4.892 -0.8158 -0.0831 -1.7811
  128MOL   H14441038   7.453   4.684   4.926 -1.6422 -1.2480  0.5132
  128MOL   H14541039   7.524   4.549   5.010 -2.4908 -0.9065 -0.7953
  128MOL   C14641040   7.269   4.532   4.528  0.4491 -0.5089 -0.0543
  128MOL   C14741041   7.222   4.385   4.528 -0.3048  0.0533 -0.0263
  128MOL   O14841042   7.099   4.381   4.608 -0.0368 -0.3844  0.0499
  128MOL   C14941043   7.079   4.249   4.650 -0.3406  0.2248 -0.7019
  128MOL   C15041044   6.922   4.242   4.642  0.3414 -0.1566  0.1336
  128MOL   C15141045   7.127   4.241   4.791 -0.0683 -0.4653  0.3213
  128MOL   H15241046   7.345   4.540   4.451  0.7789  1.1697  0.4216
  128MOL   H15341047   7.189   4.594   4.486  0.3109 -0.5328  0.1684
  128MOL   H15441048   7.307   4.338   4.577  1.9550  1.2568 -2.7138
  128MOL   H15541049   7.129   4.171   4.593  1.4853  0.5017  0.4767
  128MOL   H15641050   6.873   4.315   4.706 -2.6441 -2.9722  1.2008
  128MOL   H15741051   6.887   4.139   4.652  0.2952 -0.3861 -2.1796
  128MOL   H15841052   6.903   4.266   4.537 -0.4470  0.3665  0.3909
  128MOL   H15941053   7.233   4.262   4.804 -0.5544  0.2788  3.5080
  128MOL   H16041054   7.107   4.141   4.828 -1.3627  0.4300  2.1188
  128MOL   H16141055   7.069   4.318   4.842  1.2558  0.4915  0.4020
  128MOL   C16241056   7.206   4.333   4.385 -0.6420  0.3316  0.0615
  128MOL   C16341057   7.347   4.322   4.311  0.3362  0.0076  0.4648
  128MOL   O16441058   7.402   4.208   4.380 -0.1180 -0.0067 -0.0862
  128MOL   C16541059   7.539   4.156   4.353  0.8422 -1.1129 -0.3149
  128MOL   C16641060   7.557   4.044   4.449  0.1483 -0.6481 -0.2740
  128MOL   C16741061   7.643   4.263   4.381 -0.2059  0.3237  0.5046
  128MOL   H16841062   7.174   4.229   4.388  1.0573 -0.2134 -0.0509
  128MOL   H16941063   7.126   4.392   4.342  0.4684 -0.5209 -3.3253
  128MOL   H17041064   7.412   4.407   4.331 -0.0134 -0.1783  2.4424
  128MOL   H17141065   7.543   4.122   4.250 -0.9732  0.9205 -1.0703
  128MOL   H17241066   7.661   4.017   4.467  0.4618  1.5519  1.6006
  128MOL   H17341067   7.507   3.955   4.413 -1.4549  1.2414 -2.9169
  128MOL   H17441068   7.510   4.073   4.544  2.5287  2.6336  0.0169
  128MOL   H17541069   7.741   4.228   4.348 -0.3039 -0.7550  1.3099
  128MOL   H17641070   7.646   4.293   4.485  2.4248  2.1069 -0.0382
  128MOL   H17741071   7.626   4.347   4.313  1.1948  0.5019  0.3752
  128MOL   C17841072   7.328   4.288   4.159  0.0384  0.8968 -0.3470
  128MOL   C17941073   7.295   4.403   4.066 -0.1305 -0.2335  0.0964
  128MOL   O18041074   7.412   4.489   4.061 -0.3638 -0.3106  0.1702
  128MOL   C18141075   7.396   4.627   4.067 -0.5880  0.4121 -0.5649
  128MOL   C18241076   7.515   4.696   4.005 -0.3989 -0.1976  0.1296
  128MOL   C18341077   7.367   4.666   4.214 -0.4027  0.2032  0.1122
  128MOL   H18441078   7.256   4.208   4.143  0.7825  0.1123  0.2111
  128MOL   H18541079   7.422   4.246   4.123  1.6663  3.3317  0.9057
  128MOL   H18641080   7.213   4.455   4.115  0.6829  3.3038 -2.0810
  128MOL   H18741081   7.318   4.669   4.004 -0.1707  0.4423 -1.0621
  128MOL   H18841082   7.546   4.666   3.905  2.6809 -1.1645  1.3112
  128MOL   H18941083   7.605   4.681   4.063 -0.6758  2.7303  1.4324
  128MOL   H19041084   7.496   4.804   4.011 -0.2087  0.0083 -2.2204
  128MOL   H19141085   7.443   4.623   4.279  0.6614  1.8283 -0.0187
  128MOL   H19241086   7.273   4.631   4.257  0.0210  0.2499  1.0793
  128MOL   H19341087   7.370   4.775   4.221  1.5599  0.1914 -0.1717
  128MOL   C19441088   7.263   4.363   3.920  0.2139 -0.3046 -0.0295
  128MOL   C19541089   7.125   4.286   3.907  0.4148 -0.2476  0.1036
  128MOL   O19641090   7.130   4.206   3.793  0.0200 -0.3225 -0.0975
  128MOL   C19741091   7.190   4.072   3.787  0.1709  0.7750 -0.4880
  128MOL   C19841092   7.069   3.968   3.802 -0.0760  0.0538  0.0698
  128MOL   C19941093   7.267   4.042   3.657  0.4715 -0.2640 -0.8309
  128MOL   H20041094   7.260   4.453   3.859 -0.4771 -0.6610 -0.5334
  128MOL   H20141095   7.341   4.299   3.878 -0.2042  0.0776 -1.4160
  128MOL   H20241096   7.092   4.233   3.996 -0.5727 -1.8811 -1.1796
  128MOL   H20341097   7.244   4.052   3.879 -1.4617  1.6534  0.7031
  128MOL   H20441098   7.031   3.945   3.703 -1.2738  0.0038  0.5258
  128MOL   H20541099   7.122   3.880   3.836  0.5171  0.3421 -0.0971
  128MOL   H20641100   6.992   4.000   3.873  1.2038  1.1578  0.9925
  128MOL   H20741101   7.202   4.061   3.571 -0.1137  1.0913 -0.0949
  128MOL   H20841102   7.352   4.108   3.642 -0.6149  1.8225  1.8345
  128MOL   H20941103   7.301   3.938   3.658  0.1944 -0.3563  0.6033
  128MOL   C21041104   7.001   4.385   3.877  0.5705 -0.0842 -0.0570
  128MOL   C21141105   6.867   4.315   3.898 -0.1295  0.4279  0.1879
  128MOL   O21241106   6.838   4.327   4.041  0.1599 -0.0068 -0.0433
  128MOL   C21341107   6.816   4.200   4.109 -0.8059 -0.0089 -0.7486
  128MOL   C21441108   6.830   4.230   4.256  0.3364  0.4913  0.2544
  128MOL   C21541109   6.676   4.148   4.067 -0.6697 -0.8446  0.1598
  128MOL   H21641110   7.010   4.424   3.775  0.8235  1.0595  0.3914
  128MOL   H21741111   7.014   4.475   3.937  2.3864  0.6094 -1.4430
  128MOL   H21841112   6.870   4.211   3.865 -0.9873  0.3493  0.3474
  128MOL   H21941113   6.891   4.125   4.081 -1.7045 -1.6473  1.1409
  128MOL   H22041114   6.937   4.219   4.270  0.2445 -0.4815  0.2325
  128MOL   H22141115   6.783   4.155   4.320  4.0832 -1.8267  0.4043
  128MOL   H22241116   6.804   4.332   4.286  0.5052  0.2450  1.2301
  128MOL   H22341117   6.650   4.058   4.122 -5.0128 -0.6725 -1.3515
  128MOL   H22441118   6.662   4.118   3.963 -0.3412  0.2642 -0.2072
  128MOL   H22541119   6.606   4.229   4.090  0.7456  0.3746  0.2584
  128MOL   C22641120   6.753   4.392   3.824 -0.2023 -0.5453  0.1117
  128MOL   C22741121   6.738   4.356   3.680 -0.0355  0.0543 -0.2140
  128MOL   O22841122   6.649   4.459   3.629 -0.1048 -0.3661  0.2378
  128MOL   C22941123   6.723   4.563   3.570  0.1751  1.1472 -0.6289
  128MOL   C23041124   6.645   4.695   3.604  0.0197  0.1712 -0.2773
  128MOL   C23141125   6.745   4.534   3.426 -0.4547 -0.5398 -0.7126
  128MOL   H23241126   6.765   4.498   3.843 -1.5548 -0.3828  0.0888
  128MOL   H23341127   6.670   4.364   3.889  1.0532 -1.6811  1.2645
  128MOL   H23441128   6.834   4.349   3.630  0.0180  0.1444 -0.1247
  128MOL   H23541129   6.818   4.584   3.620 -0.5525  2.8048  0.0850
  128MOL   H23641130   6.542   4.714   3.571 -1.2932 -1.2303  2.8132
  128MOL   H23741131   6.648   4.701   3.713  0.2846  0.0115 -0.2749
  128MOL   H23841132   6.696   4.777   3.555 -0.4257  1.2675  1.0531
  128MOL   H23941133   6.789   4.439   3.393 -2.3431 -0.7373 -2.7940
  128MOL   H24041134   6.818   4.598   3.378  0.7817 -0.1921  1.5378
  128MOL   H24141135   6.651   4.558   3.376 -0.6931 -0.0915 -0.0624
  128MOL   C24241136   6.662   4.224   3.663 -0.0404 -0.0148  0.7189
  128MOL   C24341137   6.702   4.150   3.536  0.6009  0.4344  0.4904
  128MOL   O24441138   6.599   4.051   3.499  0.1189  0.5925 -0.1765
  128MOL   C24541139   6.488   4.101   3.425 -0.0769 -0.1415 -0.4555
  128MOL   C24641140   6.502   4.050   3.284  0.1841 -0.9009 -0.2812
  128MOL   C24741141   6.373   4.036   3.502  0.0248 -0.1918 -0.4795
  128MOL   H24841142   6.674   4.159   3.750  0.5476  0.0012  0.6471
  128MOL   H24941143   6.557   4.252   3.648  0.4459  2.6313  1.9265
  128MOL   H25041144   6.721   4.218   3.452 -1.3183  0.2497 -0.1059
  128MOL   H25141145   6.481   4.209   3.424  4.3194  0.2214  1.0746
  128MOL   H25241146   6.417   4.085   3.225 -0.5489 -1.5031  0.4176
  128MOL   H25341147   6.594   4.095   3.246  0.4597 -1.7937 -0.6971
  128MOL   H25441148   6.507   3.941   3.282 -1.8523 -1.0963  2.6673
  128MOL   H25541149   6.372   4.078   3.602 -0.7661  1.6428 -1.2259
  128MOL   H25641150   6.282   4.076   3.456  0.5206  2.9156  1.1249
  128MOL   H25741151   6.365   3.927   3.495 -0.6367 -0.2363  0.8577
  128MOL   C25841152   6.830   4.058   3.555 -0.4807  0.5011  0.1922
  128MOL   C25941153   6.891   4.034   3.411  0.0868 -0.2017 -0.8279
  128MOL   O26041154   6.993   3.930   3.418  0.5866 -0.3258 -0.1814
  128MOL   C26141155   6.943   3.800   3.414 -0.0186  1.0431  0.1328
  128MOL   C26241156   6.958   3.748   3.269  0.5271 -0.0562  0.0606
  128MOL   C26341157   7.012   3.715   3.518  0.5726 -0.6479  0.1679
  128MOL   H26441158   6.901   4.102   3.625 -1.0604 -0.1131  1.1715
  128MOL   H26541159   6.797   3.969   3.609  1.5842 -0.6464 -0.3958
  128MOL   H26641160   6.813   4.013   3.339 -0.7468  3.4583 -1.0744
  128MOL   H26741161   6.834   3.795   3.417  0.0227 -1.2999 -0.9543
  128MOL   H26841162   6.912   3.819   3.201 -2.0999 -2.0912 -0.3955
  128MOL   H26941163   6.910   3.650   3.259  1.7543 -0.5001 -1.6901
  128MOL   H27041164   7.065   3.739   3.250  0.8879  0.5924  1.6760
  128MOL   H27141165   6.967   3.742   3.614  0.5044  1.9418 -0.5389
  128MOL   H27241166   6.992   3.611   3.497  0.4372 -0.9734  1.8205
  128MOL   H27341167   7.120   3.734   3.520  0.7255 -1.3988 -1.1344
  128MOL   C27441168   6.976   4.164   3.364  0.0259 -0.1051 -0.2733
  128MOL   C27541169   7.016   4.187   3.213  0.2560  0.0825 -0.6638
  128MOL   O27641170   6.896   4.242   3.161 -1.0457 -0.2851 -0.1713
  128MOL   C27741171   6.828   4.157   3.061  0.6707  0.1253 -0.4022
  128MOL   C27841172   6.908   4.135   2.938 -0.6160  0.0733  0.0404
  128MOL   C27941173   6.697   4.233   3.042  0.1417  0.6292 -0.0427
  128MOL   H28041174   6.918   4.251   3.395 -0.0654 -0.7778  1.5372
  128MOL   H28141175   7.072   4.156   3.414 -0.3001  1.4835  0.6276
  128MOL   H28241176   7.033   4.087   3.173  0.8407  0.4420 -1.3052
  128MOL   H28341177   6.802   4.062   3.109  1.2583  0.2150  0.1115
  128MOL   H28441178   6.841   4.073   2.879  0.4368 -2.6115  1.5563
  128MOL   H28541179   6.939   4.224   2.883 -1.3748  1.0768  1.2158
  128MOL   H28641180   7.004   4.085   2.955  0.5744  1.6113 -2.0145
  128MOL   H28741181   6.650   4.265   3.135 -2.0898  1.4917 -1.4522
  128MOL   H28841182   6.629   4.166   2.990  2.0025 -1.6211  0.3217
  128MOL   H28941183   6.707   4.321   2.979 -0.3384  1.1448  0.6012
  128MOL   C29041184   7.137   4.277   3.189 -0.6210  0.2232  0.8113
  128MOL   C29141185   7.269   4.199   3.217 -0.0226 -0.3242 -0.4601
  128MOL   O29241186   7.297   4.101   3.113  0.5505  0.2372 -0.1654
  128MOL   C29341187   7.380   3.995   3.151  0.2608  0.6381  0.0955
  128MOL   C29441188   7.464   3.952   3.033  0.0429 -0.2823 -0.5227
  128MOL   C29541189   7.293   3.881   3.192  0.3324 -0.0780  0.0758
  128MOL   H29641190   7.131   4.367   3.250 -1.3607  0.8357 -0.1475
  128MOL   H29741191   7.137   4.308   3.084  1.2905 -0.0798  0.7068
  128MOL   H29841192   7.265   4.148   3.313 -2.8224  0.2024 -0.2772
  128MOL   H29941193   7.450   4.020   3.231  1.5920  0.4001 -0.9758
  128MOL   H30041194   7.416   3.951   2.935  1.1868 -0.8691 -1.0864
  128MOL   H30141195   7.534   4.035   3.019 -1.0551  1.1461  2.0778
  128MOL   H30241196   7.523   3.862   3.050 -0.3647 -0.9630 -2.5285
  128MOL   H30341197   7.355   3.801   3.234  0.2232 -0.3286 -0.2379
  128MOL   H30441198   7.212   3.910   3.259  0.7355 -0.2488  0.6453
  128MOL   H30541199   7.244   3.844   3.102 -1.6004 -0.7807  1.3733
  128MOL   C30641200   7.381   4.307   3.212 -0.2549  0.2519 -0.2699
  128MOL   C30741201   7.427   4.331   3.357  0.1365 -0.5533  0.6248
  128MOL   O30841202   7.505   4.452   3.377  0.0384  0.5149 -0.3665
  128MOL   C30941203   7.628   4.455   3.320 -0.5719  0.7531  0.3589
  128MOL   C31041204   7.682   4.594   3.345 -0.2877  0.5713  0.6792
  128MOL   C31141205   7.712   4.345   3.393 -0.4022  0.2679 -0.0236
  128MOL   H31241206   7.339   4.404   3.186 -1.0323  0.9152  3.1438
  128MOL   H31341207   7.467   4.279   3.152  0.0804  0.6029  0.0476
  128MOL   H31441208   7.336   4.338   3.417 -1.1108 -0.6721 -1.2099
  128MOL   H31541209   7.626   4.429   3.214  1.8279 -0.1342  0.4952
  128MOL   H31641210   7.783   4.592   3.305 -1.4462  1.3602 -2.3760
  128MOL   H31741211   7.676   4.626   3.450 -0.3805 -0.1194  0.8864
  128MOL   H31841212   7.630   4.668   3.284 -0.5999  0.6973  1.0903
  128MOL   H31941213   7.709   4.248   3.343  1.0929  0.5506 -0.6995
  128MOL   H32041214   7.681   4.333   3.496  0.6032  0.4513  0.3094
  128MOL   H32141215   7.815   4.377   3.377 -0.1564 -0.3947  0.2139
  128MOL   H32241216   7.476   4.249   3.409  1.7183  0.9439  1.5878
  129MOL     C141217   0.072   2.172   3.998 -0.2552 -1.4337 -0.3301
  129MOL     C241218   0.087   2.174   4.146  0.1484 -0.2312  0.0243
  129MOL     O341219   0.210   2.110   4.179 -0.0561 -0.2611  0.1442
  129MOL     C441220   0.225   2.045   4.310 -0.3988 -0.1624  0.3101
  129MOL     C541221   0.379   2.071   4.335 -0.1711  0.3657  0.5212
  129MOL     C641222   0.195   1.895   4.286  0.3092 -0.1440  0.1543
  129MOL     H741223   0.146   2.241   3.958 -2.1879  0.8770 -0.0020
  129MOL     H841224   0.107   2.078   3.955  0.2274 -1.9003  1.0583
  129MOL     H941225   0.009   2.117   4.197  0.7033  2.6078  4.2899
  129MOL    H1041226   0.155   2.098   4.375  0.3394 -1.1895  1.9638
  129MOL    H1141227   0.417   2.168   4.305 -1.3789  0.5427 -0.4607
  129MOL    H1241228   0.405   2.060   4.440  1.5325  1.5655  0.2514
  129MOL    H1341229   0.435   1.988   4.291  0.5439 -0.2863  2.5846
  129MOL    H1441230   0.241   1.855   4.195 -1.2375  0.4189 -0.8854
  129MOL    H1541231   0.233   1.833   4.367 -0.7255  1.2055  1.7035
  129MOL    H1641232   0.089   1.873   4.274  0.3655 -0.8432  0.8152
  129MOL    H1741233   7.791   2.193   3.965 -0.0195  1.8502  0.8180
  129MOL    C1841234   0.089   2.318   4.197  0.1428 -0.1862 -0.5115
  129MOL    C1941235   7.773   2.357   4.260  0.3297  0.1266 -0.1137
  129MOL    O2041236   7.686   2.406   4.150  0.0718  0.0133 -0.3193
  129MOL    C2141237   7.545   2.388   4.155 -0.0418  0.5951 -0.1822
  129MOL    C2241238   7.520   2.239   4.128 -0.4165  0.6743 -0.2094
  129MOL    C2341239   7.484   2.481   4.043 -0.7173  0.2983  0.1404
  129MOL    H2441240   0.161   2.331   4.277 -0.6059 -0.3333  0.1984
  129MOL    H2541241   0.128   2.387   4.123  2.3566  2.1395  2.6897
  129MOL    H2641242   7.719   2.275   4.307 -1.4270  0.1479 -2.0268
  129MOL    H2741243   7.509   2.405   4.257  0.5484  1.8857 -0.1881
  129MOL    H2841244   7.564   2.171   4.201 -2.1930  0.0200  0.2779
  129MOL    H2941245   7.413   2.221   4.135 -0.1099 -1.3991 -0.4394
  129MOL    H3041246   7.556   2.209   4.029  1.2715  1.0999  0.2575
  129MOL    H3141247   7.536   2.464   3.949  3.0828 -0.0303  2.2295
  129MOL    H3241248   7.495   2.586   4.072 -0.0603  0.3441 -0.2712
  129MOL    H3341249   7.375   2.471   4.040 -0.7853  1.4684 -3.1494
  129MOL    C3441250   7.788   2.473   4.360 -0.3790 -0.1061 -0.1301
  129MOL    C3541251   7.793   2.426   4.510  0.2151 -0.5588 -0.3793
  129MOL    O3641252   7.689   2.326   4.539  0.7712 -0.5918 -0.0030
  129MOL    C3741253   7.559   2.370   4.546  0.3110 -0.2303  0.6794
  129MOL    C3841254   7.465   2.248   4.534  0.4750 -0.2205  0.3766
  129MOL    C3941255   7.531   2.442   4.674  0.3365  0.4409 -0.4657
  129MOL    H4041256   7.696   2.531   4.347 -0.3997  0.0838  0.8394
  129MOL    H4141257   0.043   2.548   4.339  0.9516 -0.9242  1.6107
  129MOL    H4241258   7.762   2.507   4.575 -0.6385 -1.8182  0.8098
  129MOL    H4341259   7.538   2.434   4.460  0.8673 -0.6764  0.2110
  129MOL    H4441260   7.486   2.190   4.445  1.6878  0.4377  0.2233
  129MOL    H4541261   7.358   2.269   4.526  0.5469  0.6611  1.5889
  129MOL    H4641262   7.483   2.180   4.618 -1.2219  0.8170  1.6278
  129MOL    H4741263   7.605   2.521   4.691 -1.6592  3.0491 -3.2877
  129MOL    H4841264   7.428   2.479   4.677  0.8106  1.7566  0.1172
  129MOL    H4941265   7.543   2.369   4.754 -0.7655  0.3444 -0.3761
  129MOL    C5041266   0.110   2.374   4.553  0.3551  0.5616 -0.2432
  129MOL    C5141267   0.147   2.391   4.701 -0.1700  0.3254 -0.3690
  129MOL    O5241268   0.267   2.317   4.723 -0.1632  0.5629 -0.8978
  129MOL    C5341269   0.388   2.380   4.684  0.0414  0.3821  0.3197
  129MOL    C5441270   0.512   2.286   4.666  0.0556  0.3561 -0.1697
  129MOL    C5541271   0.430   2.491   4.779  0.4301 -0.1882  0.3392
  129MOL    H5641272   0.106   2.267   4.531 -1.5562  0.5823 -0.0799
  129MOL    H5741273   0.184   2.424   4.491  1.9211  0.4892  1.5154
  129MOL    H5841274   0.162   2.498   4.712  0.3664  0.0744  1.7025
  129MOL    H5941275   0.378   2.426   4.586  1.7233  0.8892  0.3550
  129MOL    H6041276   0.544   2.249   4.763  1.8670 -0.8483 -1.1906
  129MOL    H6141277   0.607   2.322   4.628  0.5566 -1.5504 -0.7909
  129MOL    H6241278   0.488   2.200   4.604  0.4084  0.5862 -0.6251
  129MOL    H6341279   0.427   2.449   4.880 -2.4580 -1.2523 -0.1395
  129MOL    H6441280   0.381   2.588   4.776  1.8929  0.4965 -2.2039
  129MOL    H6541281   0.535   2.516   4.766  0.0468  0.7995 -0.9326
  129MOL    C6641282   0.034   2.346   4.800 -0.4680 -0.6331 -0.0819
  129MOL    C6741283   0.084   2.357   4.948  0.3142  0.1846 -0.1745
  129MOL    O6841284   7.805   2.310   5.039  0.5993 -0.6848 -0.1592
  129MOL    C6941285   7.789   2.170   5.044  0.3100 -0.4445 -0.0213
  129MOL    C7041286   0.072   2.120   5.140 -0.6847  0.9172 -0.4227
  129MOL    C7141287   7.654   2.137   5.096 -0.2162  0.2984  0.0621
  129MOL    H7241288   7.766   2.409   4.793  0.7908  1.0537 -1.3518
  129MOL    H7341289   0.003   2.247   4.768  1.8455 -1.2225 -0.5940
  129MOL    H7441290   0.173   2.296   4.955  0.3075  0.3159  1.1368
  129MOL    H7541291   7.800   2.120   4.948 -1.1698  1.9610 -1.5281
  129MOL    H7641292   0.065   2.012   5.150  1.0039  0.9541  1.5477
  129MOL    H7741293   0.173   2.145   5.107 -0.4026 -0.6565 -0.7940
  129MOL    H7841294   0.066   2.164   5.239  1.0394 -1.3710  0.7468
  129MOL    H7941295   7.623   2.033   5.100 -2.2883  0.8373 -0.8630
  129MOL    H8041296   7.576   2.184   5.036  0.0353  2.2591  1.2283
  129MOL    H8141297   7.637   2.182   5.194 -1.0400  1.9691 -0.8074
  129MOL    C8241298   0.111   2.499   4.986 -0.2075 -0.2765  0.3910
  129MOL    C8341299   0.011   2.614   4.965 -0.2421  0.2428  0.0935
  129MOL    O8441300   7.741   2.612   5.080 -0.1381 -0.1674 -0.6131
  129MOL    C8541301   7.603   2.581   5.070 -0.1309  0.5449  0.5797
  129MOL    C8641302   7.530   2.691   4.991 -0.0684  0.1509  0.5925
  129MOL    C8741303   7.554   2.554   5.223  0.0818  0.4420 -0.1770
  129MOL    H8841304   0.162   2.502   5.082  0.4700 -0.5552  0.0450
  129MOL    H8941305   0.201   2.522   4.929 -0.8394 -0.2224 -0.5877
  129MOL    H9041306   7.768   2.596   4.878 -2.4818 -1.7364  2.0616
  129MOL    H9141307   7.578   2.486   5.022  0.2961 -0.1482  1.7076
  129MOL    H9241308   7.553   2.786   5.040 -0.5560 -0.1525  1.4177
  129MOL    H9341309   7.566   2.694   4.888  0.4739  0.3553  0.7895
  129MOL    H9441310   7.423   2.671   4.979  0.5700 -2.9648 -0.2357
  129MOL    H9541311   7.446   2.540   5.230 -0.0460  1.4370 -0.2127
  129MOL    H9641312   7.604   2.467   5.267  0.7624  0.4828 -0.8593
  129MOL    H9741313   7.576   2.633   5.294 -1.1342 -0.1265  0.8470
  129MOL    C9841314   0.103   2.738   4.962  0.2149  0.2938  1.1420
  129MOL    C9941315   0.036   2.864   4.906  0.0120  0.0512 -0.8204
  129MOL   O10041316   0.070   2.887   4.769 -0.4925 -0.2253  0.7452
  129MOL   C10141317   7.793   2.842   4.673  0.0143 -0.6773 -0.1674
  129MOL   C10241318   0.038   2.857   4.540  0.6043  0.0998 -0.3704
  129MOL   C10341319   7.660   2.923   4.688  0.1097  0.0672  0.3785
  129MOL   H10441320   0.120   2.758   5.068 -0.5112  2.2380  0.9115
  129MOL   H10541321   0.196   2.721   4.907 -2.3481 -1.4064 -2.8464
  129MOL   H10641322   7.750   2.853   4.923  0.5370 -2.9390  1.0125
  129MOL   H10741323   7.762   2.738   4.688 -1.0879 -0.3212  0.1229
  129MOL   H10841324   7.797   2.822   4.457 -1.8962  2.1471  0.5533
  129MOL   H10941325   0.127   2.795   4.532  0.9640  0.3097  1.8730
  129MOL   H11041326   0.058   2.962   4.518  2.0750 -0.3416 -1.2069
  129MOL   H11141327   7.602   2.899   4.599  1.5108 -0.6485 -0.3732
  129MOL   H11241328   7.680   3.030   4.680 -0.7992  0.2745  0.8512
  129MOL   H11341329   7.607   2.889   4.776 -2.3431 -0.3951 -1.2199
  129MOL   C11441330   0.079   2.997   4.974 -0.2330  0.2551 -0.0540
  129MOL   C11541331   0.063   3.024   5.125  0.4971 -0.2156 -0.3487
  129MOL   O11641332   0.074   3.162   5.167 -0.0380 -0.2564  0.0326
  129MOL   C11741333   0.188   3.238   5.121  0.3285  0.1221  0.4495
  129MOL   C11841334   0.317   3.194   5.189 -0.6860  0.5341 -0.7861
  129MOL   C11941335   0.154   3.386   5.151  0.5986  0.6389  0.4559
  129MOL   H12041336   0.023   3.080   4.930 -2.5794 -1.2009  0.0909
  129MOL   H12141337   0.181   3.019   4.943 -0.7177  0.4672 -1.5180
  129MOL   H12241338   0.144   2.969   5.172 -1.1495 -2.8066 -0.4649
  129MOL   H12341339   0.206   3.227   5.014  3.4801 -0.3973  0.9764
  129MOL   H12441340   0.399   3.264   5.197  0.2692 -0.6890  0.2947
  129MOL   H12541341   0.370   3.113   5.138 -1.8114 -0.8273  0.1526
  129MOL   H12641342   0.292   3.160   5.289  2.0551  2.0042  0.4516
  129MOL   H12741343   0.171   3.426   5.251 -1.3112 -1.7786  1.7867
  129MOL   H12841344   0.047   3.400   5.134  0.8310 -0.2791 -1.9377
  129MOL   H12941345   0.213   3.447   5.082  0.7073  0.6856  0.5903
  129MOL   C13041346   7.746   2.964   5.172  0.1346  0.5371  0.9462
  129MOL   C13141347   7.702   3.016   5.315 -0.3629 -0.2078  1.0472
  129MOL   O13241348   7.760   2.925   5.398 -0.3468  0.0217 -0.1886
  129MOL   C13341349   0.038   2.985   5.473 -0.4349 -0.9270 -0.0154
  129MOL   C13441350   7.806   3.067   5.598  0.0956 -0.2420 -0.3993
  129MOL   C13541351   0.140   2.890   5.532  0.7600  0.1895 -0.6707
  129MOL   H13641352   7.764   2.857   5.181  1.0170  0.5507 -0.4651
  129MOL   H13741353   7.670   2.978   5.096  0.8797 -1.0072 -0.1141
  129MOL   H13841354   7.724   3.122   5.322 -1.8874  0.2551 -0.6085
  129MOL   H13941355   0.098   3.062   5.425  2.1248 -2.4668  0.6483
  129MOL   H14041356   0.068   3.125   5.641 -0.2278 -1.2005  1.5387
  129MOL   H14141357   7.755   3.007   5.673  2.0585  0.2842  1.4199
  129MOL   H14241358   7.733   3.139   5.560  0.2780  1.2878  2.0315
  129MOL   H14341359   0.081   2.822   5.594 -1.8875  0.7407 -2.4991
  129MOL   H14441360   0.192   2.825   5.462  2.6811  2.2634 -1.1985
  129MOL   H14541361   0.213   2.940   5.595 -0.6297 -0.1079  1.2315
  129MOL   C14641362   7.552   3.014   5.332 -0.1980 -0.0662 -0.2545
  129MOL   C14741363   7.476   3.145   5.291 -0.2696 -0.7738  0.1329
  129MOL   O14841364   7.470   3.135   5.152  0.1008  0.0195  0.1988
  129MOL   C14941365   7.471   3.262   5.081  0.5967  0.2059  0.1597
  129MOL   C15041366   7.399   3.253   4.947  0.5119  0.2719  1.0902
  129MOL   C15141367   7.616   3.313   5.062 -0.2681 -0.3228 -0.7303
  129MOL   H15241368   7.525   2.989   5.435  2.7992  1.7712  1.0298
  129MOL   H15341369   7.512   2.933   5.271 -0.3347  0.1237 -0.4165
  129MOL   H15441370   7.520   3.238   5.328  0.4415 -2.0233  2.5150
  129MOL   H15541371   7.420   3.336   5.144  0.3639 -0.1653  0.4091
  129MOL   H15641372   7.457   3.206   4.867 -0.3618  3.5684 -1.6106
  129MOL   H15741373   7.366   3.351   4.913  0.7424 -0.3917 -1.1217
  129MOL   H15841374   7.306   3.197   4.951  0.6769 -0.0530  0.5477
  129MOL   H15941375   7.681   3.237   5.018  0.4444 -0.8813  1.2345
  129MOL   H16041376   7.658   3.340   5.159 -1.7834  0.9218 -0.3932
  129MOL   H16141377   7.616   3.405   5.003  2.9948 -0.8895 -1.7292
  129MOL   C16241378   7.323   3.135   5.320  0.0542  0.0523  0.1914
  129MOL   C16341379   7.284   3.178   5.466  0.0058  0.8706  0.1717
  129MOL   O16441380   7.296   3.320   5.487  0.0207  0.3727  0.3507
  129MOL   C16541381   7.314   3.368   5.617  0.6345  0.2932 -0.1460
  129MOL   C16641382   7.292   3.515   5.617 -0.1259 -0.5949  0.3834
  129MOL   C16741383   7.452   3.336   5.677  0.1581 -0.2478 -0.0117
  129MOL   H16841384   7.266   3.200   5.254  1.8803  0.8411 -0.6450
  129MOL   H16941385   7.295   3.030   5.305  0.8291 -0.1897  0.3755
  129MOL   H17041386   7.361   3.132   5.529 -2.2356 -1.9712  0.9092
  129MOL   H17141387   7.241   3.324   5.685  0.7013  1.5158  0.7382
  129MOL   H17241388   7.381   3.566   5.580 -0.6385  0.6842  0.8628
  129MOL   H17341389   7.286   3.553   5.719  1.5684 -0.4673  0.4451
  129MOL   H17441390   7.201   3.537   5.560 -0.8207 -0.8515  1.3937
  129MOL   H17541391   7.474   3.232   5.705 -2.0244 -1.0680 -1.2882
  129MOL   H17641392   7.470   3.392   5.769 -0.1505 -3.3433  2.0094
  129MOL   H17741393   7.528   3.372   5.608 -0.2227 -2.5728 -1.7206
  129MOL   C17841394   7.148   3.120   5.511  0.3796 -0.4087  0.3613
  129MOL   C17941395   7.155   2.984   5.575  0.0738  0.2591  0.2082
  129MOL   O18041396   7.214   3.005   5.697  0.3399  0.0571 -0.1320
  129MOL   C18141397   7.292   2.891   5.751  0.2819  0.0986  0.2247
  129MOL   C18241398   7.279   2.894   5.897 -0.0598 -0.4224  0.3468
  129MOL   C18341399   7.429   2.893   5.694  0.2911 -0.0044 -0.9211
  129MOL   H18441400   7.076   3.125   5.430 -0.6603 -2.4408  1.1173
  129MOL   H18541401   7.099   3.191   5.578  0.4762 -1.8022  1.9695
  129MOL   H18641402   7.216   2.916   5.516 -0.3335  0.4022 -0.3772
  129MOL   H18741403   7.247   2.803   5.706  2.4461 -1.0099  0.1289
  129MOL   H18841404   7.346   2.975   5.927 -0.8768  1.0035 -1.5183
  129MOL   H18941405   7.313   2.797   5.932 -0.8695 -0.4422  1.0758
  129MOL   H19041406   7.181   2.923   5.935 -0.3750  1.1860 -1.5663
  129MOL   H19141407   7.485   2.985   5.712  0.1725 -0.2861  0.9638
  129MOL   H19241408   7.429   2.878   5.586 -3.6426 -4.1475 -0.5446
  129MOL   H19341409   7.494   2.812   5.727  2.9051  2.3800 -0.0462
  129MOL   C19441410   7.019   2.916   5.574 -0.6302 -0.6448 -0.1850
  129MOL   C19541411   6.971   2.859   5.441 -0.1651 -0.2799 -1.0129
  129MOL   O19641412   6.907   2.968   5.371 -0.0118  0.3704 -0.4570
  129MOL   C19741413   6.891   2.951   5.229  0.4157  0.0992 -0.2609
  129MOL   C19841414   6.760   3.006   5.187 -0.5487  0.1551 -0.2368
  129MOL   C19941415   7.012   3.028   5.161 -0.0674 -0.1884 -0.7145
  129MOL   H20041416   7.025   2.832   5.643 -2.1316 -0.6715 -0.0711
  129MOL   H20141417   6.940   2.977   5.617  0.0956  1.1497 -1.3247
  129MOL   H20241418   7.049   2.809   5.383 -1.1377  0.5520 -3.0704
  129MOL   H20341419   6.893   2.847   5.199  0.2739 -0.2130  0.7873
  129MOL   H20441420   6.682   2.979   5.258 -1.1500  0.6299 -0.7142
  129MOL   H20541421   6.756   3.114   5.174 -1.9800  0.0179 -1.0081
  129MOL   H20641422   6.727   2.961   5.093 -1.1401 -2.0801  1.0063
  129MOL   H20741423   7.010   3.131   5.196 -3.1132 -0.5799  0.4159
  129MOL   H20841424   7.113   2.990   5.178  1.4819  2.8208 -2.7689
  129MOL   H20941425   7.007   3.036   5.053 -0.0671 -1.6427 -0.8349
  129MOL   C21041426   6.864   2.748   5.471  0.2402  0.0449  0.5235
  129MOL   C21141427   6.929   2.606   5.491  0.3322  0.0573  0.0570
  129MOL   O21241428   7.041   2.609   5.583 -0.2544  0.2921  0.2701
  129MOL   C21341429   7.146   2.520   5.556 -0.0034  0.4733  0.2166
  129MOL   C21441430   7.248   2.589   5.465 -0.0121  0.1257 -0.0110
  129MOL   C21541431   7.224   2.465   5.679  0.5076 -0.6829  0.3349
  129MOL   H21641432   6.792   2.753   5.389  0.7353 -0.7806  0.0327
  129MOL   H21741433   6.806   2.778   5.558  0.4071 -1.2298  1.0834
  129MOL   H21841434   6.957   2.562   5.396 -0.2722 -3.3298  1.3641
  129MOL   H21941435   7.105   2.436   5.501  2.4863  0.6860 -2.1048
  129MOL   H22041436   7.315   2.509   5.434 -0.9287 -1.1686  1.2429
  129MOL   H22141437   7.302   2.673   5.508 -0.2088 -0.9351  2.4066
  129MOL   H22241438   7.205   2.614   5.368 -0.7108 -0.6197  0.0974
  129MOL   H22341439   7.284   2.544   5.723 -0.9271  1.1702 -0.9592
  129MOL   H22441440   7.303   2.398   5.646  0.0972 -1.8871  1.7338
  129MOL   H22541441   7.166   2.418   5.759  2.4575  0.8445  2.7057
  129MOL   C22641442   6.832   2.502   5.541  0.2305  0.5422  0.4497
  129MOL   C22741443   6.683   2.513   5.507  0.0223 -0.3580  0.4241
  129MOL   O22841444   6.602   2.415   5.566 -0.1776  0.2654  0.1092
  129MOL   C22941445   6.563   2.440   5.696 -0.0127 -0.1677 -0.0767
  129MOL   C23041446   6.472   2.322   5.723 -0.2370 -0.1915  0.0430
  129MOL   C23141447   6.494   2.576   5.711  0.3755  0.0558  0.3373
  129MOL   H23241448   6.834   2.495   5.650 -1.0855  0.0808  0.4408
  129MOL   H23341449   6.878   2.406   5.518 -0.4781  0.4603 -0.6660
  129MOL   H23441450   6.646   2.615   5.520  0.9472 -0.2581  2.3568
  129MOL   H23541451   6.646   2.422   5.764  0.0831  0.4429 -0.0282
  129MOL   H23641452   6.377   2.322   5.669 -1.2060 -3.0912  1.6003
  129MOL   H23741453   6.514   2.227   5.690  0.8760 -0.1555  1.3353
  129MOL   H23841454   6.456   2.323   5.831 -1.4407 -0.1582 -0.1249
  129MOL   H23941455   6.440   2.569   5.805 -2.2059 -0.4520 -1.1266
  129MOL   H24041456   6.438   2.602   5.620  1.0057  0.0322 -0.0605
  129MOL   H24141457   6.564   2.657   5.728  1.0299 -0.3733 -0.2777
  129MOL   C24241458   6.657   2.480   5.358  0.0792 -0.1441  0.8297
  129MOL   C24341459   6.519   2.503   5.293  0.4276  0.5484  0.1756
  129MOL   O24441460   6.530   2.449   5.161 -0.0182  0.3168 -0.3634
  129MOL   C24541461   6.491   2.308   5.155  0.8206  0.1038  0.1399
  129MOL   C24641462   6.397   2.291   5.042 -0.1515 -0.3938  0.4037
  129MOL   C24741463   6.614   2.218   5.127  0.8928 -0.4136 -0.2290
  129MOL   H24841464   6.729   2.535   5.296 -0.8300  0.8063  0.5964
  129MOL   H24941465   6.692   2.378   5.344  2.6791  1.1030 -2.6392
  129MOL   H25041466   6.448   2.447   5.355 -0.4732 -1.2840 -2.3925
  129MOL   H25141467   6.442   2.275   5.246 -0.5492  0.5596 -0.4120
  129MOL   H25241468   6.308   2.353   5.052 -0.5177 -1.0733  1.4856
  129MOL   H25341469   6.451   2.322   4.953 -2.6750 -0.4967 -1.2287
  129MOL   H25441470   6.363   2.187   5.040  0.1980 -0.4848 -1.1308
  129MOL   H25541471   6.583   2.113   5.131 -0.8301  0.0023 -1.9379
  129MOL   H25641472   6.642   2.239   5.024 -1.2753  0.7689 -0.6184
  129MOL   H25741473   6.688   2.232   5.205 -0.4950  0.1548  0.9978
  129MOL   C25841474   6.462   2.648   5.281 -0.5401  0.0802  0.4267
  129MOL   C25941475   6.319   2.648   5.245 -0.6042  0.9814  0.1113
  129MOL   O26041476   6.278   2.777   5.191  0.0780 -0.3512  0.6215
  129MOL   C26141477   6.282   2.799   5.052  0.4077  0.8219  0.2532
  129MOL   C26241478   6.167   2.900   5.018 -0.1062  0.4802 -0.2738
  129MOL   C26341479   6.419   2.862   5.003  0.2148 -0.9728 -0.5275
  129MOL   H26441480   6.474   2.699   5.377  2.6878  0.6394 -0.2126
  129MOL   H26541481   6.528   2.712   5.223 -0.5565  1.8168  2.2636
  129MOL   H26641482   6.291   2.574   5.169 -0.8210 -0.2998  1.4262
  129MOL   H26741483   6.261   2.710   4.993  2.3410 -0.6090  1.6592
  129MOL   H26841484   6.167   2.993   5.074  0.3574 -0.6079  1.5444
  129MOL   H26941485   6.068   2.864   5.046  0.4861  0.9772  2.5583
  129MOL   H27041486   6.152   2.898   4.910 -1.2907 -2.1174 -0.1033
  129MOL   H27141487   6.462   2.939   5.066  0.1055 -2.2695  1.1592
  129MOL   H27241488   6.488   2.779   4.987  1.5468 -0.7156  3.3352
  129MOL   H27341489   6.411   2.906   4.903  2.2662  0.3902 -0.1240
  129MOL   C27441490   6.220   2.630   5.358  0.5237 -0.1069 -0.1498
  129MOL   C27541491   6.080   2.590   5.307 -0.3557 -0.2133 -0.2228
  129MOL   O27641492   6.040   2.501   5.414  0.2143 -0.2659 -0.2965
  129MOL   C27741493   6.058   2.363   5.391 -0.2168  0.3111  0.0948
  129MOL   C27841494   5.930   2.304   5.322  0.4691  0.0510  0.7807
  129MOL   C27941495   6.068   2.298   5.523 -0.6739  0.5511 -0.3148
  129MOL   H28041496   6.261   2.550   5.419  0.7950  0.3757  0.3113
  129MOL   H28141497   6.222   2.722   5.417  0.4120 -0.2371  0.0589
  129MOL   H28241498   6.090   2.532   5.215  1.0400 -0.2656 -0.0486
  129MOL   H28341499   6.153   2.349   5.339 -0.6972  2.2166 -1.3810
  129MOL   H28441500   5.839   2.336   5.374 -2.0691 -0.4715 -3.0669
  129MOL   H28541501   5.908   2.348   5.224 -2.8181 -2.3936  0.3166
  129MOL   H28641502   5.930   2.197   5.304  0.9603  0.2508 -0.5291
  129MOL   H28741503   6.169   2.305   5.564 -0.7215  2.3723 -0.4568
  129MOL   H28841504   6.047   2.191   5.515  1.0704  0.1276  0.4306
  129MOL   H28941505   5.999   2.344   5.594  1.4515  2.0637  0.8284
  129MOL   C29041506   5.973   2.699   5.314  0.2262  0.0368 -0.3274
  129MOL   C29141507   5.835   2.673   5.238  0.7404  0.0026 -0.1191
  129MOL   O29241508   5.732   2.753   5.309 -0.7144 -0.0822  0.0425
  129MOL   C29341509   5.684   2.687   5.423  0.3544 -1.0184 -0.1755
  129MOL   C29441510   5.584   2.578   5.387  0.2338 -0.0704  0.1938
  129MOL   C29541511   5.620   2.806   5.505 -0.4083  0.1027 -0.0796
  129MOL   H29641512   6.016   2.786   5.264  0.0521 -0.3102 -1.0821
  129MOL   H29741513   5.958   2.731   5.417 -1.5799 -2.6310  0.2678
  129MOL   H29841514   5.809   2.569   5.255  0.3769 -0.1119 -1.3243
  129MOL   H29941515   5.765   2.646   5.484  1.8320 -0.8089 -1.9344
  129MOL   H30041516   5.632   2.486   5.355 -0.0452  0.1637 -0.9249
  129MOL   H30141517   5.530   2.558   5.479  0.4235 -0.7780  0.1504
  129MOL   H30241518   5.510   2.613   5.315  0.2155  2.2330  1.2949
  129MOL   H30341519   5.550   2.867   5.448 -1.6242 -0.1543  1.1112
  129MOL   H30441520   5.575   2.775   5.599 -1.9663 -0.5734 -1.0298
  129MOL   H30541521   5.697   2.881   5.524 -0.3398  0.0817 -0.2740
  129MOL   C30641522   5.822   2.708   5.091 -0.1401 -0.6868  0.5267
  129MOL   C30741523   5.920   2.626   5.005  0.6777  0.7909  0.3139
  129MOL   O30841524   5.912   2.679   4.871 -0.6519 -0.1619 -0.2988
  129MOL   C30941525   5.828   2.598   4.792  0.3235  0.7664 -0.1569
  129MOL   C31041526   5.722   2.696   4.731 -0.0474 -0.4167  0.2899
  129MOL   C31141527   5.913   2.536   4.684  0.1236 -0.0997 -0.2133
  129MOL   H31241528   5.866   2.808   5.087 -1.4652 -0.1841 -4.2207
  129MOL   H31341529   5.726   2.708   5.041  0.5678  1.5258 -0.8978
  129MOL   H31441530   6.023   2.640   5.037  0.5498  1.1269  0.5814
  129MOL   H31541531   5.771   2.530   4.856 -0.0024  0.9073 -0.2927
  129MOL   H31641532   5.782   2.763   4.669  2.4447  0.9179  3.9881
  129MOL   H31741533   5.683   2.752   4.816  0.6610 -1.0150  1.0204
  129MOL   H31841534   5.649   2.638   4.674  0.2374 -1.3358  0.8423
  129MOL   H31941535   5.840   2.478   4.627 -0.1101 -0.7316  0.7159
  129MOL   H32041536   5.981   2.468   4.737 -1.0182 -0.3248  0.9913
  129MOL   H32141537   5.974   2.613   4.636 -0.4362 -0.1200 -0.9686
  129MOL   H32241538   5.905   2.518   5.018 -4.2897  1.0957 -1.6896
  130MOL     C141539   5.907   1.643   1.336  0.1387 -0.5030 -0.0631
  130MOL     C241540   5.925   1.794   1.328  0.0605  0.1468 -0.8592
  130MOL     O341541   5.937   1.861   1.450  0.4224 -0.1287 -0.7727
  130MOL     C441542   5.820   1.891   1.524  0.3023 -0.4647  0.4009
  130MOL     C541543   5.738   2.012   1.458 -0.6636  0.6848  0.0742
  130MOL     C641544   5.882   1.929   1.657  0.0334  0.0267  0.9206
  130MOL     H741545   5.817   1.598   1.378  0.2128 -1.7999 -1.2392
  130MOL     H841546   5.893   1.609   1.233  1.6562 -1.9258  0.1799
  130MOL     H941547   5.849   1.831   1.259 -0.1152 -1.1150 -1.3722
  130MOL    H1041548   5.763   1.799   1.527 -1.6457  0.5245 -3.3316
  130MOL    H1141549   5.770   2.114   1.476 -1.0506  0.9386 -0.6583
  130MOL    H1241550   5.721   1.997   1.351  2.4583 -1.1076 -0.2564
  130MOL    H1341551   5.642   2.007   1.509 -0.5438 -0.4436  0.2035
  130MOL    H1441552   5.923   1.839   1.703  1.5454  1.4454  2.4287
  130MOL    H1541553   5.950   2.014   1.651 -1.8896  1.5397  0.1392
  130MOL    H1641554   5.802   1.952   1.727 -1.9771  0.0312 -1.3224
  130MOL    H1741555   5.995   1.606   1.388  2.3240  2.4354 -1.4653
  130MOL    C1841556   6.055   1.829   1.256  0.6287  0.4927 -0.4284
  130MOL    C1941557   6.090   1.762   1.124 -0.2818 -0.3575 -0.4110
  130MOL    O2041558   6.225   1.803   1.099  0.7130 -0.6968 -0.2294
  130MOL    C2141559   6.317   1.699   1.056  0.4247 -0.1856 -0.2300
  130MOL    C2241560   6.424   1.668   1.159 -0.6155 -0.1579 -1.0472
  130MOL    C2341561   6.393   1.745   0.936 -0.3152 -0.6276  0.2703
  130MOL    H2441562   6.043   1.935   1.238  0.7777  0.6044  0.1142
  130MOL    H2541563   6.130   1.818   1.334  0.3206  2.0706  0.0889
  130MOL    H2641564   6.085   1.655   1.143  0.4167 -0.4732 -0.8369
  130MOL    H2741565   6.268   1.604   1.037 -1.6731  0.6385  0.8788
  130MOL    H2841566   6.499   1.597   1.125  0.3664  0.1092  0.4993
  130MOL    H2941567   6.476   1.761   1.185 -0.8551  0.2862 -2.1578
  130MOL    H3041568   6.372   1.630   1.247  0.0177  0.3028 -0.4597
  130MOL    H3141569   6.458   1.831   0.952  1.5413 -1.9776  0.0992
  130MOL    H3241570   6.329   1.769   0.850 -0.0304 -1.0265 -0.0519
  130MOL    H3341571   6.469   1.672   0.910  1.8651  1.5829  0.2987
  130MOL    C3441572   6.002   1.809   1.006  0.3807  0.4655 -0.8163
  130MOL    C3541573   5.996   1.723   0.874 -0.6967 -0.3821  0.4493
  130MOL    O3641574   5.949   1.597   0.915 -0.1161 -0.1912 -0.2732
  130MOL    C3741575   6.001   1.476   0.854 -0.6006 -0.5263  0.1580
  130MOL    C3841576   5.962   1.347   0.935  0.0572 -0.4071 -0.1227
  130MOL    C3941577   5.961   1.477   0.707 -0.5863 -0.0656 -0.2849
  130MOL    H4041578   6.035   1.910   0.980 -0.0338  0.7694 -0.1902
  130MOL    H4141579   5.899   1.823   1.039  1.3613  2.1512  1.7848
  130MOL    H4241580   6.092   1.713   0.825 -0.6844  3.1399 -0.3609
  130MOL    H4341581   6.108   1.497   0.862 -0.8223  0.4336  0.6892
  130MOL    H4441582   5.855   1.328   0.928  0.2470 -1.1625 -1.1183
  130MOL    H4541583   5.997   1.360   1.037  0.3206 -1.4611 -0.0705
  130MOL    H4641584   6.022   1.271   0.885  0.4198  0.7350 -1.4815
  130MOL    H4741585   5.952   1.382   0.655 -1.7630 -1.1560  1.8234
  130MOL    H4841586   5.860   1.517   0.711  0.3726  2.4045  0.4840
  130MOL    H4941587   6.018   1.533   0.633 -0.1485  2.9517  2.2499
  130MOL    C5041588   5.904   1.796   0.773  0.4046 -0.3980  0.0187
  130MOL    C5141589   5.953   1.930   0.710 -0.2820 -0.0608  0.4802
  130MOL    O5241590   5.850   1.984   0.615  0.0763 -0.0238  0.2561
  130MOL    C5341591   5.734   2.043   0.679  0.3137  0.8270  0.1574
  130MOL    C5441592   5.614   1.961   0.662  0.4972 -0.5785  0.3399
  130MOL    C5541593   5.714   2.184   0.624 -0.0314  0.0845  0.2406
  130MOL    H5641594   5.881   1.736   0.685 -1.1280  1.3050 -0.7838
  130MOL    H5741595   5.806   1.805   0.820  0.6341 -0.9163  0.6060
  130MOL    H5841596   5.976   2.002   0.789 -1.4782  0.7898  0.0701
  130MOL    H5941597   5.747   2.060   0.786  2.3552 -1.0548  0.2526
  130MOL    H6041598   5.529   2.019   0.697 -0.1121 -0.1081 -1.8016
  130MOL    H6141599   5.613   1.859   0.702  2.0677 -0.2965  1.1157
  130MOL    H6241600   5.581   1.943   0.559 -2.8489 -0.8763  1.4201
  130MOL    H6341601   5.812   2.230   0.614  0.1244 -0.0430  1.1255
  130MOL    H6441602   5.645   2.243   0.684 -2.1139 -0.8821 -1.0903
  130MOL    H6541603   5.683   2.181   0.519 -1.2250  2.9441  0.4585
  130MOL    C6641604   6.072   1.904   0.616  0.2655  0.4752  0.4613
  130MOL    C6741605   6.140   2.030   0.562 -0.0896  0.6576 -0.1836
  130MOL    O6841606   6.217   1.990   0.447 -0.0130  0.3649 -0.0791
  130MOL    C6941607   6.150   1.966   0.324  0.4187 -0.4584  0.1933
  130MOL    C7041608   6.126   2.104   0.267 -0.3904 -0.4279  0.2246
  130MOL    C7141609   6.237   1.873   0.233  0.9697  0.1179  0.7113
  130MOL    H7241610   6.144   1.831   0.653 -0.3987 -0.2222  0.3985
  130MOL    H7341611   6.037   1.845   0.531 -1.1786  0.9569  0.7052
  130MOL    H7441612   6.064   2.100   0.524  0.3020  0.7617 -0.7817
  130MOL    H7541613   6.061   1.909   0.352  0.3561 -0.5167 -0.1263
  130MOL    H7641614   6.124   2.105   0.158  0.0047  0.8128  0.2210
  130MOL    H7741615   6.031   2.151   0.293  0.9523  0.9851  2.7113
  130MOL    H7841616   6.207   2.173   0.287  0.5648 -1.6555  0.6196
  130MOL    H7941617   6.187   1.832   0.145  0.1049  1.0580  0.7446
  130MOL    H8041618   6.262   1.785   0.293  1.4518 -0.6221 -0.5605
  130MOL    H8141619   6.327   1.923   0.197 -1.0795  1.5563 -2.6931
  130MOL    C8241620   6.248   2.089   0.654  0.1968  0.1362 -0.0041
  130MOL    C8341621   6.197   2.152   0.781  0.2166 -0.4634  0.1681
  130MOL    O8441622   6.301   2.217   0.848 -0.7139 -0.5396  0.3499
  130MOL    C8541623   6.387   2.129   0.921  0.3659  0.3766  0.2042
  130MOL    C8641624   6.331   2.102   1.063  0.3649  0.6570  0.4636
  130MOL    C8741625   6.525   2.200   0.936  0.1998  0.4551  0.2674
  130MOL    H8841626   6.323   2.015   0.683  0.3361  0.6050  0.8517
  130MOL    H8941627   6.306   2.161   0.596  0.2684 -0.1342 -0.2669
  130MOL    H9041628   6.156   2.076   0.848 -1.3711  2.5470  2.7434
  130MOL    H9141629   6.401   2.031   0.876 -0.1729  0.1305  0.5597
  130MOL    H9241630   6.397   2.037   1.121  1.0682  0.5307 -0.4689
  130MOL    H9341631   6.315   2.187   1.129  1.8673 -0.4528  2.3309
  130MOL    H9441632   6.242   2.039   1.068  0.2087  0.9340  1.3586
  130MOL    H9541633   6.595   2.125   0.974  0.3724  1.1204  1.2528
  130MOL    H9641634   6.558   2.242   0.841  1.0545 -2.2330 -0.6938
  130MOL    H9741635   6.513   2.284   1.004  3.0713  0.9889  0.1436
  130MOL    C9841636   6.094   2.269   0.752 -0.6727  0.5827  0.6057
  130MOL    C9941637   6.041   2.346   0.877  0.9784 -0.0217  0.3289
  130MOL   O10041638   5.954   2.253   0.941 -0.2853  0.4689 -0.0539
  130MOL   C10141639   5.908   2.268   1.074  0.0097 -0.0190  0.0636
  130MOL   C10241640   6.016   2.228   1.172 -0.3452 -0.2001  0.4721
  130MOL   C10341641   5.783   2.183   1.092  0.5585  0.5064 -0.1880
  130MOL   H10441642   6.141   2.342   0.687  0.8115 -0.3488  0.5980
  130MOL   H10541643   6.003   2.231   0.707 -0.2087  0.1226  0.0521
  130MOL   H10641644   6.120   2.371   0.949  0.7104  1.1178  0.2354
  130MOL   H10741645   5.882   2.371   1.096 -0.7236 -0.1366 -0.2208
  130MOL   H10841646   6.098   2.299   1.184 -3.4476  3.5590  0.2822
  130MOL   H10941647   6.053   2.128   1.151  0.0764 -0.2960  1.6070
  130MOL   H11041648   5.975   2.232   1.273  0.4935 -1.8905  0.9037
  130MOL   H11141649   5.741   2.206   1.191 -1.4620  1.0135 -1.1329
  130MOL   H11241650   5.808   2.077   1.093  1.5963  0.7306  2.5398
  130MOL   H11341651   5.708   2.188   1.013 -0.9319  0.9401  1.1981
  130MOL   C11441652   5.961   2.466   0.842 -0.1149 -0.6870  0.2914
  130MOL   C11541653   6.027   2.600   0.886  0.0327  0.0501  0.6055
  130MOL   O11641654   5.929   2.701   0.852  0.2197  0.2710 -0.4000
  130MOL   C11741655   5.917   2.749   0.718 -0.1668 -0.0983 -0.8041
  130MOL   C11841656   6.031   2.848   0.677  0.1536 -0.1047  0.2563
  130MOL   C11941657   5.786   2.829   0.696  0.2019 -0.4933 -0.2547
  130MOL   H12041658   5.857   2.454   0.875 -0.0336  0.1441  0.8673
  130MOL   H12141659   5.956   2.461   0.733 -0.1956 -1.9556  0.3425
  130MOL   H12241660   6.118   2.621   0.829  0.4440  1.3906  1.7312
  130MOL   H12341661   5.918   2.665   0.648 -0.4222 -0.2507 -0.6255
  130MOL   H12441662   6.016   2.943   0.728 -0.9282 -0.9384  1.5374
  130MOL   H12541663   6.024   2.871   0.571  2.2068  1.4358  0.4136
  130MOL   H12641664   6.131   2.803   0.682 -0.0167 -0.3762  1.5093
  130MOL   H12741665   5.696   2.768   0.697  0.3964 -0.7814 -0.2886
  130MOL   H12841666   5.797   2.860   0.592 -0.6697  1.7345  0.2993
  130MOL   H12941667   5.770   2.910   0.767 -0.9673 -1.1230  0.2186
  130MOL   C13041668   6.056   2.595   1.036  0.0390 -0.5547 -0.2652
  130MOL   C13141669   6.099   2.731   1.095 -0.6153  0.3068 -0.1780
  130MOL   O13241670   6.239   2.730   1.089 -0.3799  0.0524  0.0760
  130MOL   C13341671   6.299   2.832   1.011 -0.0809 -0.6810  0.0830
  130MOL   C13441672   6.331   2.956   1.100 -0.3372 -0.6484  0.6908
  130MOL   C13541673   6.425   2.762   0.958 -0.0524  0.8405  0.2960
  130MOL   H13641674   6.124   2.524   1.084  0.2870 -1.3087 -1.6932
  130MOL   H13741675   5.960   2.578   1.085  0.1090  1.2685  0.5309
  130MOL   H13841676   6.055   2.819   1.047 -0.9544 -0.0869 -0.5888
  130MOL   H13941677   6.229   2.846   0.928  0.8069 -1.2085 -0.7682
  130MOL   H14041678   6.390   2.921   1.184 -0.9739 -0.1531  1.3478
  130MOL   H14141679   6.233   2.994   1.126 -1.2672 -1.2691 -1.7680
  130MOL   H14241680   6.389   3.030   1.045 -2.3639 -0.6570 -1.5444
  130MOL   H14341681   6.465   2.820   0.875  0.1103 -1.7538 -1.4854
  130MOL   H14441682   6.501   2.751   1.036  1.5243 -0.9207 -1.4398
  130MOL   H14541683   6.400   2.667   0.911  1.6222  1.1215 -1.2389
  130MOL   C14641684   6.065   2.731   1.250  1.0869  0.2768  0.1888
  130MOL   C14741685   5.917   2.770   1.274 -0.1457 -0.2231 -0.2777
  130MOL   O14841686   5.887   2.744   1.416 -0.0744  0.4384 -0.3322
  130MOL   C14941687   5.854   2.607   1.436  0.1957 -0.0537 -0.2203
  130MOL   C15041688   5.703   2.586   1.399  0.0979  0.1691 -0.8036
  130MOL   C15141689   5.876   2.559   1.578 -0.1424 -0.4785 -0.6823
  130MOL   H15241690   6.140   2.795   1.296  1.1611 -0.8953  1.7228
  130MOL   H15341691   6.086   2.636   1.299 -0.0402 -0.4400 -0.7032
  130MOL   H15441692   5.838   2.725   1.215  0.8826 -0.9814 -1.1038
  130MOL   H15541693   5.921   2.540   1.381  0.0518 -0.4607  0.1033
  130MOL   H15641694   5.674   2.482   1.419  0.2038  0.1379 -0.8139
  130MOL   H15741695   5.680   2.602   1.293 -0.3904 -0.7679 -0.8444
  130MOL   H15841696   5.648   2.659   1.458  1.9601  0.9952 -0.0611
  130MOL   H15941697   5.975   2.576   1.618 -0.2627  2.1267 -1.3650
  130MOL   H16041698   5.851   2.453   1.578  0.1726 -0.5562 -1.4912
  130MOL   H16141699   5.800   2.605   1.642  0.0778  0.8388 -1.3437
  130MOL   C16241700   5.900   2.926   1.256  0.4502 -0.4247 -0.0766
  130MOL   C16341701   5.747   2.965   1.252 -0.6560  0.3691  0.3456
  130MOL   O16441702   5.724   3.083   1.338  0.0842 -0.0015  0.4057
  130MOL   C16541703   5.721   3.071   1.479  0.3581  0.1765  0.1333
  130MOL   C16641704   5.573   3.057   1.534 -0.2202  0.3836  0.2927
  130MOL   C16741705   5.793   3.181   1.542 -0.2260  0.3386  0.0892
  130MOL   H16841706   5.963   2.966   1.335  0.2597 -0.3716  0.0483
  130MOL   H16941707   5.950   2.966   1.167 -0.5315 -2.6305 -1.6545
  130MOL   H17041708   5.696   2.887   1.309  0.8640  0.3523  1.7325
  130MOL   H17141709   5.767   2.976   1.507 -0.8831  0.3900  3.1225
  130MOL   H17241710   5.576   3.037   1.641  0.6859 -0.5899  0.0946
  130MOL   H17341711   5.518   2.978   1.484 -1.1396  1.5168 -0.5262
  130MOL   H17441712   5.512   3.147   1.526  0.0171  0.6500  1.4236
  130MOL   H17541713   5.893   3.171   1.500 -0.9055  0.1816 -1.5571
  130MOL   H17641714   5.780   3.171   1.649 -3.0365 -0.3092 -0.2795
  130MOL   H17741715   5.749   3.274   1.505 -1.8560 -0.2630  0.4936
  130MOL   C17841716   5.690   2.969   1.115  0.2861 -0.0601 -0.0081
  130MOL   C17941717   5.548   3.022   1.118  0.3125 -0.7442  0.1108
  130MOL   O18041718   5.503   3.052   0.986  0.8466 -0.0856  0.5814
  130MOL   C18141719   5.523   3.187   0.938 -0.1218  0.8108  0.0628
  130MOL   C18241720   5.413   3.275   0.992  0.4048  0.7260  0.1961
  130MOL   C18341721   5.529   3.165   0.784 -0.0674 -0.3578 -0.6609
  130MOL   H18441722   5.700   2.871   1.067  0.1373  1.5532 -3.4909
  130MOL   H18541723   5.752   3.028   1.047 -1.3667  1.3980 -0.2859
  130MOL   H18641724   5.551   3.109   1.184  3.5059 -0.3643 -0.4195
  130MOL   H18741725   5.613   3.233   0.978 -1.0582  2.3449  0.4358
  130MOL   H18841726   5.314   3.231   0.985  0.7065 -0.1289  1.1143
  130MOL   H18941727   5.411   3.372   0.944  0.7504  0.2497 -0.7896
  130MOL   H19041728   5.419   3.280   1.101  2.3747 -1.3097  0.2278
  130MOL   H19141729   5.521   3.263   0.737 -3.9412 -0.2590  0.0914
  130MOL   H19241730   5.443   3.105   0.756  0.7758 -2.3723  0.9564
  130MOL   H19341731   5.615   3.108   0.748  0.3083 -0.6597  0.6901
  130MOL   C19441732   5.440   2.918   1.160  0.3698  0.1587 -0.2604
  130MOL   C19541733   5.301   2.978   1.182  0.1600  0.6091  0.1422
  130MOL   O19641734   5.316   3.073   1.289 -0.1206  0.4094  0.7804
  130MOL   C19741735   5.199   3.140   1.331 -0.8382  0.0550  0.4384
  130MOL   C19841736   5.245   3.217   1.453 -0.1551  0.6286 -0.6330
  130MOL   C19941737   5.129   3.238   1.238 -0.0171 -0.7041 -0.4122
  130MOL   H20041738   5.427   2.837   1.088 -1.3530  2.5767 -2.8104
  130MOL   H20141739   5.468   2.872   1.254 -0.9704 -0.2828 -0.0729
  130MOL   H20241740   5.277   3.037   1.093  0.4397 -0.1533 -0.4421
  130MOL   H20341741   5.135   3.064   1.376 -0.6557 -1.0754 -1.1662
  130MOL   H20441742   5.301   3.310   1.447  0.9052 -0.0165 -0.8393
  130MOL   H20541743   5.151   3.244   1.502 -0.9061 -0.7707 -1.2516
  130MOL   H20641744   5.290   3.153   1.529  0.3037 -0.0527 -1.4628
  130MOL   H20741745   5.045   3.282   1.292  0.2750  0.0048 -0.5390
  130MOL   H20841746   5.202   3.313   1.208  1.1540 -0.9355  1.8045
  130MOL   H20941747   5.079   3.185   1.157  1.2351  1.3979 -2.6166
  130MOL   C21041748   5.192   2.872   1.209  0.2402 -0.0103  0.7162
  130MOL   C21141749   5.167   2.766   1.104  0.6372  1.1922  0.5773
  130MOL   O21241750   5.267   2.666   1.116  0.4440  0.4838 -0.4115
  130MOL   C21341751   5.295   2.591   0.994  0.1549  0.1058  0.9772
  130MOL   C21441752   5.387   2.674   0.894 -0.1587  0.1980 -0.1685
  130MOL   C21541753   5.376   2.472   1.035  0.6981 -1.3435  1.3429
  130MOL   H21641754   5.099   2.929   1.213  0.0577 -0.2465 -0.1810
  130MOL   H21741755   5.226   2.818   1.298 -0.7008 -1.4642  0.2220
  130MOL   H21841756   5.168   2.806   1.003  0.8199 -0.8077 -0.2426
  130MOL   H21941757   5.207   2.559   0.938 -2.0629  0.8688  3.9329
  130MOL   H22041758   5.391   2.623   0.797  0.7201 -2.8943  1.4423
  130MOL   H22141759   5.491   2.689   0.923 -0.2006  2.1913 -0.9106
  130MOL   H22241760   5.348   2.774   0.874  0.2656  0.8436  2.0999
  130MOL   H22341761   5.330   2.419   1.118 -3.2602  1.8087  1.3043
  130MOL   H22441762   5.479   2.488   1.066  0.9077 -0.2975  0.1438
  130MOL   H22541763   5.401   2.406   0.952 -0.3995 -2.2151  1.6979
  130MOL   C22641764   5.028   2.698   1.107 -0.3605  0.2203 -0.1358
  130MOL   C22741765   4.934   2.741   0.993  0.5058 -0.4635  0.0409
  130MOL   O22841766   4.908   2.880   1.020  0.6141 -0.1047  0.0867
  130MOL   C22941767   4.846   2.972   0.921 -0.7108 -0.1226  0.2956
  130MOL   C23041768   4.945   2.985   0.809 -0.2447 -0.3134  0.5017
  130MOL   C23141769   4.810   3.097   0.993  0.0021 -1.1910  0.3108
  130MOL   H23241770   4.977   2.697   1.203  1.2658 -1.2624  0.7536
  130MOL   H23341771   5.035   2.590   1.097  0.7681  0.2065  0.6853
  130MOL   H23441772   4.982   2.725   0.896  2.7292 -1.2584  1.2312
  130MOL   H23541773   4.757   2.919   0.888  0.8561 -3.1101  0.7078
  130MOL   H23641774   5.036   3.025   0.856  0.3843  0.2072 -1.1308
  130MOL   H23741775   4.973   2.889   0.766 -0.5701 -0.4384  0.5655
  130MOL   H23841776   4.918   3.059   0.735 -1.7642 -0.5361  0.8291
  130MOL   H23941777   4.738   3.078   1.073  0.7934  2.3795  1.9951
  130MOL   H24041778   4.762   3.167   0.925 -0.5070 -0.7785  1.0765
  130MOL   H24141779   4.901   3.142   1.034 -0.1286 -1.3587  0.7948
  130MOL   C24241780   4.803   2.652   0.989 -0.5952  0.0829  0.0381
  130MOL   C24341781   4.821   2.517   0.907 -0.0040 -0.1875 -0.0630
  130MOL   O24441782   4.810   2.551   0.772 -0.4499  0.2289  0.0533
  130MOL   C24541783   4.876   2.453   0.689 -0.0605 -0.7348  0.0716
  130MOL   C24641784   4.758   2.420   0.594  0.3103  0.5533  1.1963
  130MOL   C24741785   4.984   2.534   0.618  0.1357  0.0254  0.2567
  130MOL   H24841786   4.781   2.636   1.095  0.8190 -0.3149  0.2827
  130MOL   H24941787   4.722   2.713   0.949  0.4306  2.8794  2.0350
  130MOL   H25041788   4.922   2.480   0.926  0.3027  0.0479 -1.2475
  130MOL   H25141789   4.910   2.364   0.741  0.0470  0.3919  1.9865
  130MOL   H25241790   4.666   2.382   0.639  1.1918 -2.7295  0.4028
  130MOL   H25341791   4.733   2.517   0.551  0.0825  1.0269  2.3856
  130MOL   H25441792   4.791   2.346   0.520  1.5074  1.8317  0.4271
  130MOL   H25541793   4.955   2.639   0.608  2.4477  0.5332 -1.7102
  130MOL   H25641794   5.074   2.524   0.677 -0.5217 -1.0122  1.0988
  130MOL   H25741795   4.998   2.489   0.520 -0.0133  1.1571 -0.2947
  130MOL   C25841796   4.707   2.415   0.940 -0.4915 -0.1444  0.0187
  130MOL   C25941797   4.748   2.320   1.056 -0.1684  0.8168 -0.5210
  130MOL   O26041798   4.844   2.242   0.998  0.2391  0.0221 -0.5478
  130MOL   C26141799   4.949   2.170   1.077 -0.0954 -0.4615 -0.4145
  130MOL   C26241800   4.975   2.051   0.985  0.1572 -0.1254  0.4243
  130MOL   C26341801   5.071   2.263   1.088  0.6390  0.6970 -0.6481
  130MOL   H26441802   4.613   2.468   0.949 -0.6471 -0.3630 -0.2925
  130MOL   H26541803   4.690   2.358   0.848  0.3053  1.7321 -1.3294
  130MOL   H26641804   4.788   2.380   1.137  5.2785 -1.5171 -1.2574
  130MOL   H26741805   4.920   2.136   1.177 -1.5773  0.7738 -0.4088
  130MOL   H26841806   4.888   1.990   0.963  1.0010 -0.4692 -2.0769
  130MOL   H26941807   5.063   1.993   1.014 -0.3892 -0.4328  1.4845
  130MOL   H27041808   5.000   2.085   0.885  0.5744  1.0888  0.9335
  130MOL   H27141809   5.103   2.301   0.991  0.0971  2.7065 -0.0564
  130MOL   H27241810   5.046   2.344   1.157  1.7452  2.4466 -2.2442
  130MOL   H27341811   5.152   2.204   1.133 -0.5274  0.2029  0.8514
  130MOL   C27441812   4.625   2.228   1.107  0.6671 -0.7120 -0.1159
  130MOL   C27541813   4.526   2.307   1.197 -0.1537 -0.5405  0.1802
  130MOL   O27641814   4.411   2.220   1.229  0.0898 -0.0341  0.1456
  130MOL   C27741815   4.295   2.266   1.157  0.5134 -1.2692 -0.4228
  130MOL   C27841816   4.182   2.233   1.257  0.9534 -0.2465 -0.0320
  130MOL   C27941817   4.280   2.198   1.018 -0.3620 -0.4419  0.6290
  130MOL   H28041818   4.580   2.178   1.021  0.6372  1.6297 -1.4997
  130MOL   H28141819   4.673   2.146   1.160  0.1486 -0.7397  0.3135
  130MOL   H28241820   4.496   2.398   1.146  0.4486 -1.2429 -1.4770
  130MOL   H28341821   4.289   2.370   1.126 -1.2454 -1.7984 -1.9058
  130MOL   H28441822   4.205   2.142   1.312 -1.2754  0.6363  2.4411
  130MOL   H28541823   4.181   2.311   1.333  0.5987  0.3173 -0.6014
  130MOL   H28641824   4.085   2.221   1.208 -0.6999  2.3366  2.4250
  130MOL   H28741825   4.178   2.205   0.979  0.5659 -1.6024 -2.1702
  130MOL   H28841826   4.308   2.093   1.016 -1.4461 -0.7292 -0.6839
  130MOL   H28941827   4.345   2.243   0.942 -0.1959 -1.3386  0.2394
  130MOL   C29041828   4.586   2.339   1.334 -0.0460  0.1024  0.0249
  130MOL   C29141829   4.506   2.447   1.413  0.3963  0.8448 -0.5335
  130MOL   O29241830   4.588   2.469   1.531 -0.0768 -0.3944 -0.1389
  130MOL   C29341831   4.535   2.447   1.656  0.2966  0.0924 -0.3640
  130MOL   C29441832   4.615   2.542   1.753  0.1219  0.1196  0.2171
  130MOL   C29541833   4.538   2.296   1.698 -0.4233  0.0895 -0.0683
  130MOL   H29641834   4.689   2.374   1.330 -0.2002  0.5336 -0.1855
  130MOL   H29741835   4.584   2.246   1.392 -2.2659  1.0076  1.4396
  130MOL   H29841836   4.417   2.402   1.459  1.0074  0.2550  0.0993
  130MOL   H29941837   4.432   2.484   1.657  0.8703  1.7336 -0.8594
  130MOL   H30041838   4.722   2.522   1.761  0.1739  0.2638 -0.0919
  130MOL   H30141839   4.609   2.635   1.696 -0.6921 -0.4806 -0.6868
  130MOL   H30241840   4.571   2.541   1.853 -0.4464 -0.7330 -0.0347
  130MOL   H30341841   4.634   2.251   1.672 -0.1589  1.1799 -0.9837
  130MOL   H30441842   4.509   2.277   1.802 -0.9166  0.1526 -0.1924
  130MOL   H30541843   4.466   2.247   1.633  0.0935 -0.2694 -0.3738
  130MOL   C30641844   4.493   2.587   1.352 -0.5893 -0.1633 -0.3465
  130MOL   C30741845   4.443   2.702   1.429 -0.4024 -0.3209 -0.3923
  130MOL   O30841846   4.417   2.814   1.353  0.2821 -0.1940  0.1548
  130MOL   C30941847   4.519   2.872   1.274 -0.1596  0.1761  0.6359
  130MOL   C31041848   4.495   2.846   1.127  0.1171 -0.1807  0.4051
  130MOL   C31141849   4.530   3.015   1.311  0.1677 -0.2799  0.0952
  130MOL   H31241850   4.445   2.586   1.254 -1.7620 -0.1359  0.2269
  130MOL   H31341851   4.594   2.626   1.341 -0.5291 -0.0125  0.6671
  130MOL   H31441852   4.348   2.673   1.476 -0.4964 -1.3625 -1.2185
  130MOL   H31541853   4.620   2.837   1.297 -0.5098 -1.4539 -0.1842
  130MOL   H31641854   4.395   2.889   1.112  0.6320  1.8297  2.4484
  130MOL   H31741855   4.494   2.745   1.087 -1.0418 -1.0768  2.6476
  130MOL   H31841856   4.567   2.902   1.068  2.3921 -2.1243  1.2665
  130MOL   H31941857   4.428   3.052   1.318  0.0101 -0.9601  1.5724
  130MOL   H32041858   4.588   3.079   1.245  2.2218 -1.3205  0.8450
  130MOL   H32141859   4.570   3.021   1.412  1.8624  0.3330 -0.5941
  130MOL   H32241860   4.519   2.728   1.503 -0.4259  1.9086 -1.1230
  131MOL     C141861   6.873   0.058   6.430  0.0636 -0.5985  0.1300
  131MOL     C241862   6.861   0.004   6.574  0.7455 -0.0132  0.7192
  131MOL     O341863   6.885   7.675   6.572 -0.4253 -0.5709 -0.0846
  131MOL     C441864   6.775   7.589   6.549  0.2110 -0.0921 -0.5383
  131MOL     C541865   6.799   7.473   6.649  0.3850  0.7474  0.1848
  131MOL     C641866   6.778   7.544   6.406  0.0847  0.6933 -0.7859
  131MOL     H741867   6.800   0.027   6.356  0.1123  0.5245 -0.4057
  131MOL     H841868   6.852   0.165   6.433  1.2922 -0.3591  1.1448
  131MOL     H941869   6.771   0.029   6.630 -0.0597  0.6933 -0.8838
  131MOL    H1041870   6.683   7.639   6.581  1.2365  1.0964  0.5768
  131MOL    H1141871   6.785   7.515   6.749 -2.0825 -1.1416  0.6710
  131MOL    H1241872   6.727   7.396   6.622 -0.1499  1.3674 -0.1840
  131MOL    H1341873   6.900   7.433   6.637  0.3376 -0.0643  2.3382
  131MOL    H1441874   6.714   7.461   6.378 -0.3822  0.7550  0.0577
  131MOL    H1541875   6.734   7.621   6.343 -1.0932  0.0576 -0.7620
  131MOL    H1641876   6.878   7.512   6.379 -0.4280  0.0235 -1.8859
  131MOL    H1741877   6.976   0.043   6.398  0.5562 -1.0973  1.8779
  131MOL    C1841878   6.970   0.069   6.652  0.0367  0.3890 -0.1247
  131MOL    C1941879   6.986   0.016   6.799 -0.3646 -0.0165  0.0823
  131MOL    O2041880   6.885   0.062   6.893 -0.0426  0.5507 -0.2743
  131MOL    C2141881   6.770   7.794   6.924 -0.0001  0.4411 -0.2429
  131MOL    C2241882   6.674   0.060   7.005  0.5415  0.4795 -1.2437
  131MOL    C2341883   6.807   7.670   7.014 -0.6762 -0.0858 -0.9158
  131MOL    H2441884   7.070   0.057   6.611  0.6086  3.5498  0.1622
  131MOL    H2541885   6.964   0.178   6.654  1.7603  0.5654 -2.3189
  131MOL    H2641886   6.979   7.729   6.783 -1.5449  0.3323 -1.9254
  131MOL    H2741887   6.724   7.758   6.832 -0.8721 -0.3290  0.4860
  131MOL    H2841888   6.719   0.069   7.104  0.2328 -1.5559 -0.8868
  131MOL    H2941889   6.663   0.161   6.966  4.0904  1.5843  0.3609
  131MOL    H3041890   6.571   0.025   7.012  0.5715  0.7899  1.2747
  131MOL    H3141891   6.868   7.590   6.971 -3.3108 -0.3790 -4.3432
  131MOL    H3241892   6.721   7.613   7.049 -0.9478  0.6708 -0.3437
  131MOL    H3341893   6.864   7.705   7.100 -1.7887  1.6734 -0.8604
  131MOL    C3441894   7.126   0.043   6.855  0.2591  0.2288  0.5550
  131MOL    C3541895   7.202   7.749   6.920 -0.0433  0.0689 -0.3912
  131MOL    O3641896   7.345   7.781   6.910 -0.1340 -0.1997 -0.1917
  131MOL    C3741897   7.429   7.757   6.796  0.1329  0.0567  0.1829
  131MOL    C3841898   7.553   0.028   6.814  0.2762 -0.4332  1.0072
  131MOL    C3941899   7.478   7.613   6.799  0.0753 -0.3295 -0.6767
  131MOL    H4041900   7.110   0.121   6.929 -1.5493 -0.2381  0.6937
  131MOL    H4141901   7.194   0.076   6.777 -0.1568 -0.4999 -0.1353
  131MOL    H4241902   7.180   7.656   6.867 -1.9902 -1.1912  2.5195
  131MOL    H4341903   7.380   7.783   6.702  0.4522  1.1725  0.3222
  131MOL    H4441904   7.594   0.000   6.911 -2.2755 -0.7590  2.0213
  131MOL    H4541905   7.525   0.133   6.812 -0.7758 -0.7235  0.0541
  131MOL    H4641906   7.621   0.008   6.731  0.1509  2.1785  0.2217
  131MOL    H4741907   7.554   7.615   6.878 -1.5185  3.0737  0.8661
  131MOL    H4841908   7.398   7.546   6.830  0.6640  0.0830  1.8713
  131MOL    H4941909   7.530   7.581   6.709  3.1212  1.0411  0.5014
  131MOL    C5041910   7.171   7.726   7.070  0.9020  0.0017  0.2090
  131MOL    C5141911   7.213   7.589   7.111  0.2819 -0.4658  0.9287
  131MOL    O5241912   7.113   7.507   7.054 -0.2050  0.8157 -0.4764
  131MOL    C5341913   7.152   7.392   6.976  0.2467 -0.7297 -1.7864
  131MOL    C5441914   7.028   7.324   6.921  0.1682 -0.1321  0.2374
  131MOL    C5541915   7.233   7.298   7.066  0.2193 -0.1091 -0.5149
  131MOL    H5641916   7.219   7.804   7.129 -0.6890 -0.2377  1.8676
  131MOL    H5741917   7.064   7.738   7.087  0.6923 -0.6881 -0.6155
  131MOL    H5841918   7.312   7.568   7.071  0.3525 -0.3996  1.0680
  131MOL    H5941919   7.218   7.427   6.897  0.5743 -2.7433 -2.4438
  131MOL    H6041920   6.964   7.285   7.000 -3.2299  2.4496 -1.0985
  131MOL    H6141921   7.063   7.244   6.855  2.1644  0.5188  0.4810
  131MOL    H6241922   6.976   7.396   6.858  1.1522  0.6465  0.2949
  131MOL    H6341923   7.267   7.207   7.018 -1.2434  0.1784 -2.1372
  131MOL    H6441924   7.174   7.259   7.149  1.1098 -0.1992  0.0845
  131MOL    H6541925   7.332   7.330   7.099 -0.1218  0.8824 -0.4203
  131MOL    C6641926   7.213   7.570   7.270  0.7748 -0.0375  0.3110
  131MOL    C6741927   7.326   7.636   7.356 -0.4212  0.7878  0.1456
  131MOL    O6841928   7.442   7.568   7.336  0.0120 -0.1153 -0.4999
  131MOL    C6941929   7.535   7.621   7.239 -0.2059  0.1413 -0.3422
  131MOL    C7041930   7.628   7.720   7.309  0.2744  0.5916  0.3398
  131MOL    C7141931   7.608   7.499   7.187  0.0928 -0.3290 -0.6124
  131MOL    H7241932   7.110   7.598   7.295  0.0251 -0.8397 -1.7164
  131MOL    H7341933   7.209   7.463   7.291 -2.2228 -0.3093 -1.3077
  131MOL    H7441934   7.322   7.736   7.314 -2.3413  0.2193 -1.0899
  131MOL    H7541935   7.484   7.672   7.157  1.3927  0.1914 -1.3502
  131MOL    H7641936   7.684   7.672   7.390 -0.9932 -0.9866  0.3002
  131MOL    H7741937   7.700   7.755   7.236  2.5402 -1.9197  1.2641
  131MOL    H7841938   7.569   7.799   7.355 -0.3383 -0.6607  1.7522
  131MOL    H7941939   7.673   7.455   7.263  2.6568  1.8716 -1.4300
  131MOL    H8041940   7.665   7.499   7.095 -1.0416  3.1227 -1.3913
  131MOL    H8141941   7.539   7.416   7.172 -0.5816  0.0038  0.5136
  131MOL    C8241942   7.286   7.634   7.504  0.3234 -0.2360  0.6430
  131MOL    C8341943   7.370   7.699   7.614  0.4709  0.3437  0.0580
  131MOL    O8441944   7.299   7.726   7.735 -0.2002  0.0912  0.4359
  131MOL    C8541945   7.185   7.801   7.735  0.4343  0.3822 -0.4186
  131MOL    C8641946   7.189   0.107   7.643  0.4923 -0.2745  0.3539
  131MOL    C8741947   7.123   7.819   0.059 -0.2016 -0.2684 -0.4311
  131MOL    H8841948   7.186   7.674   7.517  1.1549  1.5323  1.7595
  131MOL    H8941949   7.276   7.531   7.538 -1.3241 -0.2733  0.0912
  131MOL    H9041950   7.426   7.788   7.586  1.8587 -0.8972 -1.1553
  131MOL    H9141951   7.101   7.743   7.696  0.8246 -0.5085  0.0716
  131MOL    H9241952   7.254   0.177   7.696 -2.0176  0.7353  2.2461
  131MOL    H9341953   7.222   0.085   7.542  0.2515  1.5496 -0.1326
  131MOL    H9441954   7.093   0.159   7.635  0.6487 -0.3736 -2.5940
  131MOL    H9541955   7.205   0.024   0.126  1.2519  0.8478 -2.5694
  131MOL    H9641956   7.045   0.074   0.062 -0.3870 -0.4475 -0.7141
  131MOL    H9741957   7.072   7.728   0.089  0.6714 -1.3006 -1.9980
  131MOL    C9841958   7.487   7.604   7.657 -1.2668 -0.3537 -0.7721
  131MOL    C9941959   7.626   7.665   7.704 -0.2278  0.2743 -0.0532
  131MOL   O10041960   7.726   7.569   7.745 -0.8137  0.5048 -0.1777
  131MOL   C10141961   7.773   7.473   7.650  0.1830 -0.3655  0.0004
  131MOL   C10241962   0.024   7.358   7.729 -0.6253  0.6566 -0.5234
  131MOL   C10341963   0.067   7.551   7.579  0.4376 -0.4817  0.6315
  131MOL   H10441964   7.446   7.534   7.729 -1.1349  0.8743  0.5068
  131MOL   H10541965   7.518   7.544   7.570  1.4405 -0.2736  0.0995
  131MOL   H10641966   7.660   7.733   7.626  1.7443 -0.5003  0.1254
  131MOL   H10741967   7.707   7.428   7.577 -1.7801  0.0225  1.4921
  131MOL   H10841968   0.076   7.287   7.664  1.0382 -0.5520  2.0088
  131MOL   H10941969   7.767   7.296   7.775  1.6703 -0.5698  1.8067
  131MOL   H11041970   0.085   7.401   7.809  1.2632 -2.2987 -0.2618
  131MOL   H11141971   0.012   7.625   7.521 -1.9652 -1.2115  1.9259
  131MOL   H11241972   0.118   7.482   7.511 -1.4389  0.8796 -2.2948
  131MOL   H11341973   0.144   7.599   7.640 -1.0471  0.5168  1.7601
  131MOL   C11441974   7.605   7.758   0.005  0.0041 -0.3567 -0.4811
  131MOL   C11541975   7.730   0.017   0.049  0.3632 -0.1374  0.0572
  131MOL   O11641976   7.800   0.078   7.765  0.1637 -0.1515 -0.3761
  131MOL   C11741977   0.121   0.058   7.770  0.3685  0.2288  0.0141
  131MOL   C11841978   0.192   0.131   0.068 -0.4264  0.0375  0.0221
  131MOL   C11941979   0.177   0.111   7.639 -0.3043  0.5814  0.4276
  131MOL   H12041980   7.574   7.688   0.083  0.6171  0.4211  0.4730
  131MOL   H12141981   7.521   0.003   7.805 -1.2076 -0.9462  2.2527
  131MOL   H12241982   7.788   7.764   0.105 -0.5052 -2.7370 -2.3053
  131MOL   H12341983   0.139   7.770   7.771 -2.9426 -0.4086 -1.7086
  131MOL   H12441984   0.163   0.235   0.059 -2.7922 -0.5001  0.9421
  131MOL   H12541985   0.298   0.109   0.061  0.0972  1.7858  2.1164
  131MOL   H12641986   0.161   0.104   0.169 -1.8829  0.4106 -0.3168
  131MOL   H12741987   0.124   0.077   7.550  0.0654 -0.9690  0.7817
  131MOL   H12841988   0.280   0.075   7.631  0.3395  1.8886  2.5088
  131MOL   H12941989   0.184   0.220   7.638  0.1138  0.5535 -1.1106
  131MOL   C13041990   7.685   0.128   0.148  0.7755 -0.2147  0.2438
  131MOL   C13141991   7.642   0.083   0.295 -0.8738  0.0281 -0.5781
  131MOL   O13241992   7.592   0.203   0.352  0.4842  0.0980 -0.1215
  131MOL   C13341993   7.449   0.218   0.329  0.1714 -0.2358  0.0922
  131MOL   C13441994   7.368   0.127   0.427  0.2165  0.5810 -0.7062
  131MOL   C13541995   7.416   0.364   0.336 -0.1738 -0.2499  1.1311
  131MOL   H13641996   7.604   0.184   0.102  0.2852 -0.8544  0.3239
  131MOL   H13741997   7.766   0.200   0.162 -2.3645  3.1037  2.5480
  131MOL   H13841998   7.561   0.011   0.290 -1.9317  1.2012 -0.6021
  131MOL   H13941999   7.422   0.183   0.229 -1.1279  1.1812 -0.0902
  131MOL   H14042000   7.389   0.022   0.405 -2.3740  0.0430 -0.8138
  131MOL   H14142001   7.260   0.138   0.437  0.4794  2.7605  0.1229
  131MOL   H14242002   7.397   0.139   0.532 -0.7968 -1.7161 -0.1181
  131MOL   H14342003   7.308   0.376   0.324 -0.0581 -0.1966  0.0710
  131MOL   H14442004   7.440   0.415   0.429  0.8321  1.6999 -0.1649
  131MOL   H14542005   7.457   0.420   0.252  0.3207 -1.6126  0.4513
  131MOL   C14642006   7.762   0.040   0.384 -0.6975 -0.3070  0.4385
  131MOL   C14742007   7.733   0.010   0.532 -0.2565 -0.0468 -0.0488
  131MOL   O14842008   7.795   7.706   0.565 -0.0878 -0.2494  0.0075
  131MOL   C14942009   7.736   7.584   0.526  0.3392 -0.4944 -0.0051
  131MOL   C15042010   7.615   7.551   0.608 -0.4253  0.3084 -0.3276
  131MOL   C15142011   0.016   7.465   0.521 -0.3066 -0.1630  0.0215
  131MOL   H15242012   0.032   0.100   0.388  0.3703 -1.7133 -1.8577
  131MOL   H15342013   7.808   7.776   0.333 -2.0010  0.5698 -2.2587
  131MOL   H15442014   7.625   0.007   0.548 -0.3120  2.0415  0.0582
  131MOL   H15542015   7.698   7.603   0.426  2.1602  3.0860 -0.1173
  131MOL   H15642016   7.537   7.626   0.599  0.0915  0.9923  0.7042
  131MOL   H15742017   7.638   7.546   0.715 -3.8001  1.7643  0.5468
  131MOL   H15842018   7.568   7.458   0.577 -1.7871  1.0454 -0.5266
  131MOL   H15942019   0.058   7.443   0.619  0.6362 -2.0248 -0.7642
  131MOL   H16042020   0.097   7.496   0.454  0.4338 -0.2659  0.8580
  131MOL   H16142021   7.787   7.373   0.490  0.9572 -0.6111 -0.7068
  131MOL   C16242022   7.800   0.115   0.620 -0.8642 -0.3553 -0.1271
  131MOL   C16342023   7.728   0.122   0.756 -0.5735 -0.3194 -0.5696
  131MOL   O16442024   0.004   0.150   0.853  0.0775 -0.6642  0.3008
  131MOL   C16542025   0.042   0.045   0.941  0.3968 -0.4088 -0.8525
  131MOL   C16642026   0.092   0.103   1.070 -0.2668  0.0697 -0.1752
  131MOL   C16742027   0.145   7.779   0.872 -0.5277  0.2316 -0.3424
  131MOL   H16842028   0.087   0.099   0.622 -0.9867 -1.6922 -2.5286
  131MOL   H16942029   7.797   0.210   0.567  2.0430  1.0373  2.0894
  131MOL   H17042030   7.682   0.024   0.770  1.0794 -1.1178 -0.6203
  131MOL   H17142031   7.772   7.811   0.967  0.8777 -1.2250 -0.8501
  131MOL   H17242032   0.105   0.026   1.146 -0.2486 -0.3267 -0.5767
  131MOL   H17342033   0.018   0.171   1.113  0.0398  0.8026 -0.7988
  131MOL   H17442034   0.188   0.148   1.046  1.1501 -2.4002  0.6855
  131MOL   H17542035   0.175   7.696   0.935 -0.7468  0.0010 -0.5423
  131MOL   H17642036   0.222   0.023   0.831  0.1451 -0.4569 -0.1626
  131MOL   H17742037   0.100   7.731   0.785 -3.0867  1.2738  0.3621
  131MOL   C17842038   7.615   0.229   0.770  0.1138 -0.0419  0.2231
  131MOL   C17942039   7.544   0.243   0.902  0.1612 -0.5029 -0.1142
  131MOL   O18042040   7.442   0.343   0.889  0.0404 -0.4361 -0.7282
  131MOL   C18142041   7.495   0.472   0.896 -0.3382 -0.1181  0.5815
  131MOL   C18242042   7.428   0.550   1.010  0.1850  0.7443  0.5692
  131MOL   C18342043   7.477   0.555   0.767 -0.0391 -0.1565  0.2393
  131MOL   H18442044   7.541   0.209   0.692 -0.3652 -0.6722  0.8371
  131MOL   H18542045   7.663   0.323   0.740 -0.2590 -0.0266 -0.3256
  131MOL   H18642046   7.619   0.265   0.978 -0.9019 -1.6592  1.3004
  131MOL   H18742047   7.599   0.469   0.928 -0.1170 -0.5451 -0.1713
  131MOL   H18842048   7.320   0.560   0.999  0.3970  0.6785 -2.0330
  131MOL   H18942049   7.477   0.647   1.019 -2.8920  2.3688  0.3826
  131MOL   H19042050   7.450   0.494   1.100 -2.1645 -0.4833  0.4257
  131MOL   H19142051   7.372   0.577   0.745 -0.2966 -0.9770  0.6074
  131MOL   H19242052   7.526   0.502   0.684  2.5496  1.1485  0.9052
  131MOL   H19342053   7.526   0.651   0.753 -3.8157  1.9786  1.0469
  131MOL   C19442054   7.471   0.104   0.927  0.5038  0.3455 -0.2023
  131MOL   C19542055   7.406   0.077   1.068 -0.2844  0.1052  0.8974
  131MOL   O19642056   7.360   7.765   1.072 -0.0543 -0.0887 -0.1220
  131MOL   C19742057   7.441   7.658   1.112 -0.4862  0.3272  0.7213
  131MOL   C19842058   7.372   7.576   1.221  0.3351  0.2123  0.2286
  131MOL   C19942059   7.481   7.582   0.978  0.2395  0.3556 -0.7969
  131MOL   H20042060   7.398   0.076   0.851  0.3865 -0.6004  0.2555
  131MOL   H20142061   7.546   0.025   0.921 -1.7611 -1.9078  0.2281
  131MOL   H20242062   7.490   0.091   1.137  1.3691  0.0767 -1.0633
  131MOL   H20342063   7.536   7.685   1.158 -0.6157  1.9801  0.0241
  131MOL   H20442064   7.333   7.637   1.302 -2.8073 -0.1625 -0.9358
  131MOL   H20542065   7.288   7.526   1.174  1.4872 -0.1952 -1.4442
  131MOL   H20642066   7.431   7.499   1.272  0.0607 -0.2145 -0.0923
  131MOL   H20742067   7.543   7.496   1.003  1.2460  1.1385 -0.5544
  131MOL   H20842068   7.388   7.553   0.929 -0.4167  1.9385 -0.5189
  131MOL   H20942069   7.540   7.648   0.915  1.6059 -0.7683 -0.7254
  131MOL   C21042070   7.289   0.184   1.105 -0.0713 -0.0328 -0.0548
  131MOL   C21142071   7.240   0.169   1.254  0.5681  0.3625 -0.1733
  131MOL   O21242072   7.346   0.226   1.316  0.4265  0.8265 -0.2403
  131MOL   C21342073   7.366   0.197   1.455  0.4174 -0.1180  0.1011
  131MOL   C21442074   7.409   0.050   1.458 -0.4513 -1.0528  0.3514
  131MOL   C21542075   7.492   0.278   1.500  0.1569 -0.1261  0.1245
  131MOL   H21642076   7.202   0.181   1.039  0.8401  0.1626 -1.2820
  131MOL   H21742077   7.316   0.290   1.098 -0.4001  0.2476  2.5595
  131MOL   H21842078   7.233   0.061   1.270 -0.8859  0.5015  0.2470
  131MOL   H21942079   7.280   0.234   1.510  1.3340 -0.0285  1.4927
  131MOL   H22042080   7.331   7.798   1.436  0.7183 -1.7918 -1.4299
  131MOL   H22142081   7.432   0.029   1.563  0.1239  1.0915  0.6810
  131MOL   H22242082   7.503   0.027   1.408  0.3640  0.4077  1.1639
  131MOL   H22342083   7.524   0.236   1.596 -0.3096  0.1356  0.3916
  131MOL   H22442084   7.470   0.384   1.504 -4.2116 -0.9496  0.3665
  131MOL   H22542085   7.569   0.265   1.423  0.3019 -0.6313  0.3512
  131MOL   C22642086   7.105   0.239   1.281  0.0521  0.1277 -0.0062
  131MOL   C22742087   6.976   0.187   1.217 -0.0552 -0.2323 -0.3317
  131MOL   O22842088   6.898   0.292   1.160 -0.4422  0.2147 -0.4759
  131MOL   C22942089   6.806   0.245   1.063 -0.1201  0.2986  0.1150
  131MOL   C23042090   6.884   0.237   0.929  0.5359 -0.3675 -0.4187
  131MOL   C23142091   6.700   0.346   1.049  0.0637  0.2455  0.1263
  131MOL   H23242092   7.116   0.345   1.257 -2.0202  0.0893 -1.2536
  131MOL   H23342093   7.090   0.244   1.389 -0.0964  1.2116 -0.0671
  131MOL   H23442094   7.002   0.122   1.133 -1.5540 -1.0776 -0.1750
  131MOL   H23542095   6.747   0.154   1.074 -0.5827  0.4267 -1.1614
  131MOL   H23642096   6.826   0.196   0.847  0.1049 -0.0687 -0.2623
  131MOL   H23742097   6.917   0.332   0.887 -0.2981 -0.2272 -0.7681
  131MOL   H23842098   6.975   0.177   0.935  1.3743  0.9166  0.1306
  131MOL   H23942099   6.716   0.418   0.968 -1.5239  0.1498 -0.2867
  131MOL   H24042100   6.674   0.402   1.139  2.4380 -1.9280  2.2211
  131MOL   H24142101   6.608   0.297   1.018  0.0892  0.1129  0.2636
  131MOL   C24242102   6.878   0.121   1.324  0.5537  0.2008 -0.3837
  131MOL   C24342103   6.937   7.810   1.390  0.2953  0.4617  0.0365
  131MOL   O24442104   6.836   7.706   1.390  0.5537 -0.2321 -0.0465
  131MOL   C24542105   6.877   7.590   1.314 -0.0010 -0.0694  0.4862
  131MOL   C24642106   6.804   7.466   1.366 -0.1489 -0.2138 -0.0641
  131MOL   C24742107   6.847   7.616   1.172  0.5167  0.2942 -1.1228
  131MOL   H24842108   6.856   0.182   1.412  0.0617 -1.3514  0.5832
  131MOL   H24942109   6.784   0.104   1.272  0.3778 -1.3752  0.4339
  131MOL   H25042110   7.027   7.775   1.339  1.0181  0.6094  1.1742
  131MOL   H25142111   6.984   7.573   1.324  0.6841  1.5447 -3.1554
  131MOL   H25242112   6.796   7.481   1.474 -1.1955 -1.0933 -0.0239
  131MOL   H25342113   6.697   7.470   1.346  0.0770  0.3522 -1.2031
  131MOL   H25442114   6.847   7.374   1.326  1.6035 -0.2649  1.8337
  131MOL   H25542115   6.874   7.525   1.119  0.0916 -0.6079  0.1985
  131MOL   H25642116   6.742   7.640   1.156  0.2881  0.5966  0.7591
  131MOL   H25742117   6.896   7.703   1.128  2.7329  0.0641  0.8090
  131MOL   C25842118   6.977   0.018   1.536 -0.4035  0.2304  0.1381
  131MOL   C25942119   7.024   7.717   1.628  0.5367  0.2090 -0.9791
  131MOL   O26042120   7.058   7.760   1.756 -0.2050  0.0199 -0.2493
  131MOL   C26142121   6.957   7.801   1.846 -0.3243  0.5154  0.4107
  131MOL   C26242122   6.997   7.723   1.971 -0.6301  0.5594  0.4650
  131MOL   C26342123   6.959   0.134   1.884 -0.1426  0.2937 -0.1133
  131MOL   H26442124   7.050   0.100   1.538  0.6740 -0.7284  0.4547
  131MOL   H26542125   6.889   0.062   1.582 -0.7875 -1.0003  0.5908
  131MOL   H26642126   6.947   7.640   1.632  0.6236  0.1839  0.2950
  131MOL   H26742127   6.859   7.772   1.809 -0.1170 -0.7789  0.8652
  131MOL   H26842128   7.100   7.737   2.003  0.0182 -1.5114 -0.5770
  131MOL   H26942129   6.982   7.619   1.940 -0.0908  0.1471  1.5475
  131MOL   H27042130   6.926   7.748   2.049 -0.3768  0.5850  0.6862
  131MOL   H27142131   7.061   0.170   1.901 -0.2366 -0.3567  2.0894
  131MOL   H27242132   6.913   0.191   1.803 -2.2065  0.2196  0.9682
  131MOL   H27342133   6.908   0.163   1.976  2.9250  3.9321  0.5592
  131MOL   C27442134   7.145   7.637   1.574  0.0348  0.4453 -0.2226
  131MOL   C27542135   7.173   7.486   1.613  0.4183  0.9172  0.4016
  131MOL   O27642136   7.064   7.405   1.565 -0.8503 -0.2724  0.4388
  131MOL   C27742137   7.020   7.293   1.637 -0.0031  0.3821  0.0616
  131MOL   C27842138   7.001   7.178   1.535  0.0691 -0.0351  0.1950
  131MOL   C27942139   6.898   7.325   1.728 -0.5299 -0.5740  0.2790
  131MOL   H28042140   7.140   7.638   1.465 -2.5731 -0.6856 -0.1325
  131MOL   H28142141   7.231   7.701   1.595 -1.4269  2.3388  0.1443
  131MOL   H28242142   7.174   7.474   1.721  1.3218 -1.1513  0.1909
  131MOL   H28342143   7.104   7.272   1.702  0.7874  0.6406 -0.8624
  131MOL   H28442144   6.916   7.187   1.467  2.0067  0.3216 -2.2585
  131MOL   H28542145   7.084   7.148   1.471 -0.5201 -0.4745 -0.3725
  131MOL   H28642146   6.989   7.085   1.591  0.1113 -0.9323 -1.2605
  131MOL   H28742147   6.855   7.246   1.790 -0.8710 -1.2719 -0.8303
  131MOL   H28842148   6.810   7.368   1.681  1.0783  1.4191 -0.9810
  131MOL   H28942149   6.934   7.405   1.793  0.9690 -1.5311  0.6819
  131MOL   C29042150   7.307   7.446   1.547  1.1348 -0.6536  0.8529
  131MOL   C29142151   7.357   7.301   1.574  0.5672  0.4168 -0.4521
  131MOL   O29242152   7.470   7.287   1.490 -0.2804  0.0318  0.5521
  131MOL   C29342153   7.470   7.170   1.405  0.5886  0.4777 -0.1166
  131MOL   C29442154   7.610   7.183   1.348 -0.3573 -0.1212 -0.2397
  131MOL   C29542155   7.368   7.182   1.294  0.1939 -0.6850  0.3740
  131MOL   H29642156   7.384   7.506   1.595 -0.5647 -0.2888  3.2045
  131MOL   H29742157   7.286   7.461   1.441 -2.1755 -2.7634  1.1347
  131MOL   H29842158   7.277   7.230   1.556 -0.8984  1.8462  0.2806
  131MOL   H29942159   7.467   7.079   1.464  1.4520 -0.5011 -1.5623
  131MOL   H30042160   7.670   7.184   1.439 -1.3140 -1.2157  0.4305
  131MOL   H30142161   7.642   7.094   1.294  0.9974  0.1354  0.1224
  131MOL   H30242162   7.620   7.274   1.289 -2.1521 -0.7353 -1.5262
  131MOL   H30342163   7.357   7.096   1.228  1.0133 -0.7147  0.2656
  131MOL   H30442164   7.267   7.198   1.332  0.6597  2.5690  0.3863
  131MOL   H30542165   7.399   7.268   1.235 -0.3140  0.9679  2.4358
  131MOL   C30642166   7.414   7.289   1.713 -0.5815 -0.0312  0.3679
  131MOL   C30742167   7.428   7.145   1.753  0.5074  0.3109  0.4885
  131MOL   O30842168   7.303   7.086   1.771  0.3245 -0.2803  0.5672
  131MOL   C30942169   7.308   6.963   1.837 -0.3643  0.5314 -0.2486
  131MOL   C31042170   7.170   6.926   1.868  0.1845 -0.0448  0.5914
  131MOL   C31142171   7.371   6.855   1.749  0.4510  0.0604  0.2439
  131MOL   H31242172   7.353   7.336   1.790 -1.9793 -1.2371  0.0097
  131MOL   H31342173   7.509   7.340   1.729 -1.2714  1.1336  0.8372
  131MOL   H31442174   7.476   7.105   1.664 -1.1256  1.4519 -0.9148
  131MOL   H31542175   7.373   6.961   1.925 -0.2063 -0.7742 -0.3870
  131MOL   H31642176   7.169   6.821   1.900  0.9264 -0.1412  0.2951
  131MOL   H31742177   7.098   6.934   1.786  1.4085  1.1750 -0.3618
  131MOL   H31842178   7.117   6.998   1.929 -0.5980  0.0559 -0.1882
  131MOL   H31942179   7.466   6.888   1.708 -0.1001 -1.3961 -2.3854
  131MOL   H32042180   7.308   6.835   1.662 -0.7091 -0.5521  1.2036
  131MOL   H32142181   7.371   6.761   1.804 -3.7933 -0.2356 -0.1086
  131MOL   H32242182   7.495   7.135   1.839  0.3105  0.5216  0.6678
  132MOL     C142183   0.373   2.249   7.284 -0.0683 -0.0435 -0.4584
  132MOL     C242184   0.242   2.290   7.220 -0.0108  0.1286 -0.3114
  132MOL     O342185   0.265   2.418   7.157  0.2083 -0.4274  0.4917
  132MOL     C442186   0.192   2.527   7.200  0.1347 -0.5642 -0.1639
  132MOL     C542187   0.191   2.624   7.083  0.5687 -0.3127 -0.8153
  132MOL     C642188   0.259   2.585   7.322 -0.8543 -0.5152 -1.1086
  132MOL     H742189   0.397   2.317   7.366 -0.9172 -1.5458  1.0613
  132MOL     H842190   0.373   2.147   7.323 -1.3260  0.0062 -0.3343
  132MOL     H942191   0.174   2.297   7.304 -0.1657 -1.1983 -0.3059
  132MOL    H1042192   0.087   2.507   7.223 -0.0085 -1.2163 -1.3302
  132MOL    H1142193   0.292   2.661   7.067  1.1857 -1.1469  1.0841
  132MOL    H1242194   0.135   2.597   6.993  0.1794  0.7583 -0.9055
  132MOL    H1342195   0.126   2.706   7.115 -1.1724 -1.7126 -0.7099
  132MOL    H1442196   0.212   2.677   7.357  1.0021  0.2098 -0.4765
  132MOL    H1542197   0.258   2.517   7.407 -1.2865  0.7681 -0.0722
  132MOL    H1642198   0.364   2.607   7.306 -0.2352  0.1113  3.2881
  132MOL    H1742199   0.466   2.244   7.227  0.0288 -1.7491 -0.1862
  132MOL    C1842200   0.191   2.189   7.115  0.5076 -0.4184  0.0295
  132MOL    C1942201   0.051   2.217   7.056  0.8968  0.0289 -0.5184
  132MOL    O2042202   7.768   2.165   7.141 -0.2282  0.0544  0.8416
  132MOL    C2142203   7.716   2.248   7.239 -0.1577 -0.0167 -0.2808
  132MOL    C2242204   7.725   2.188   7.383  0.1151  0.1449  0.0236
  132MOL    C2342205   7.576   2.299   7.209  0.7070 -0.2017 -0.3797
  132MOL    H2442206   0.264   2.190   7.034  1.0973  2.4852  0.5351
  132MOL    H2542207   0.201   2.082   7.133  0.6944 -1.4646 -5.3971
  132MOL    H2642208   0.043   2.326   7.056  2.0768  0.1703  3.2210
  132MOL    H2742209   7.779   2.334   7.261  0.0589 -0.0192 -0.8768
  132MOL    H2842210   7.666   2.256   7.444  0.7018 -0.3886  1.2131
  132MOL    H2942211   7.684   2.087   7.393  1.4442 -0.3795  0.3432
  132MOL    H3042212   0.003   2.171   7.429 -0.0073 -1.5676 -0.2849
  132MOL    H3142213   7.591   2.373   7.130  0.5874 -1.2451 -1.3827
  132MOL    H3242214   7.533   2.342   7.300  2.5737  1.0823 -0.0711
  132MOL    H3342215   7.510   2.219   7.175  0.9155  0.1818 -1.6781
  132MOL    C3442216   0.030   2.172   6.910 -0.1912  0.0827  0.6587
  132MOL    C3542217   7.748   2.254   6.826  0.3046  0.6775  0.2114
  132MOL    O3642218   7.806   2.386   6.818  0.6765 -0.0433 -0.3762
  132MOL    C3742219   7.716   2.490   6.777 -0.0697 -0.1712  0.0873
  132MOL    C3842220   7.635   2.540   6.900  0.4658  0.6402  0.1488
  132MOL    C3942221   7.779   2.608   6.695 -0.3902  0.0994 -0.0073
  132MOL    H4042222   7.813   2.070   6.923  0.0599 -0.1263 -0.2716
  132MOL    H4142223   0.124   2.163   6.856  0.6205  2.5225  1.6011
  132MOL    H4242224   7.646   2.263   6.863 -0.9770 -0.0610 -3.0130
  132MOL    H4342225   7.648   2.449   6.702  1.5719 -1.9103 -0.5250
  132MOL    H4442226   7.705   2.570   6.978 -0.8717 -1.7369  2.3431
  132MOL    H4542227   7.579   2.452   6.933  0.1112  0.9170  0.2863
  132MOL    H4642228   7.561   2.614   6.869 -1.1152 -1.0008 -0.0291
  132MOL    H4742229   7.715   2.691   6.666  0.7803  1.2937  0.8058
  132MOL    H4842230   0.035   2.642   6.765  0.4870  1.7135 -1.7031
  132MOL    H4942231   0.027   2.579   6.614 -0.9092 -2.3602  0.3848
  132MOL    C5042232   7.746   2.203   6.676  0.2527  0.7662 -0.8265
  132MOL    C5142233   7.704   2.053   6.663 -0.7968  0.2950 -0.2434
  132MOL    O5242234   7.703   2.000   6.529 -0.0969 -0.7147 -0.0344
  132MOL    C5342235   0.014   2.002   6.474  0.6427  0.0557  0.0593
  132MOL    C5442236   0.015   1.931   6.338 -0.6981  0.2679  0.6702
  132MOL    C5542237   0.130   1.943   6.562 -0.4466 -0.3213 -0.0634
  132MOL    H5642238   7.671   2.258   6.620  0.9433 -0.6780 -3.2437
  132MOL    H5742239   0.023   2.227   6.632  1.7577 -0.0729  1.8956
  132MOL    H5842240   7.764   1.986   6.725 -2.3704  0.1474  1.1620
  132MOL    H5942241   0.030   2.108   6.455 -0.3071  0.2589  0.3328
  132MOL    H6042242   7.807   1.826   6.347  0.4889 -0.2028 -0.7136
  132MOL    H6142243   0.108   1.949   6.283 -1.8500  0.3683 -1.2982
  132MOL    H6242244   7.746   1.964   6.285 -0.1781  1.0321  0.2685
  132MOL    H6342245   0.086   1.853   6.605  0.5269  0.0139  1.6590
  132MOL    H6442246   0.168   2.001   6.646 -0.5420  1.4594 -1.2138
  132MOL    H6542247   0.216   1.914   6.502 -0.2494  0.5932 -0.2326
  132MOL    C6642248   7.556   2.026   6.722 -0.5336  0.9638  0.1657
  132MOL    C6742249   7.428   2.070   6.644  0.0060 -0.5980 -0.6684
  132MOL    O6842250   7.436   2.211   6.675 -0.4435 -0.1838  0.0889
  132MOL    C6942251   7.342   2.295   6.610  0.0704 -0.1937  0.1140
  132MOL    C7042252   7.316   2.412   6.711 -0.0895 -0.0053 -0.1539
  132MOL    C7142253   7.412   2.338   6.484  0.0898  0.2834  0.0837
  132MOL    H7242254   7.552   1.918   6.732  0.8220  0.6996 -1.6636
  132MOL    H7342255   7.547   2.060   6.825  0.7538 -0.8621  0.9149
  132MOL    H7442256   7.447   2.056   6.537 -0.4487 -1.7213 -0.6147
  132MOL    H7542257   7.248   2.244   6.589 -1.2329  2.5314 -0.9061
  132MOL    H7642258   7.242   2.480   6.671 -0.2523 -0.5776 -0.8230
  132MOL    H7742259   7.264   2.367   6.795 -0.9270 -1.5188 -1.4866
  132MOL    H7842260   7.408   2.460   6.747 -0.0357 -0.4767  0.3451
  132MOL    H7942261   7.356   2.413   6.429 -0.7242  0.1117  0.6725
  132MOL    H8042262   7.439   2.261   6.411  0.0479  3.4319 -3.3885
  132MOL    H8142263   7.511   2.378   6.507 -0.7157  0.6030  3.2881
  132MOL    C8242264   7.305   1.995   6.697  0.0961 -0.1079 -0.2372
  132MOL    C8342265   7.264   1.867   6.618  0.8487  0.0721 -0.0246
  132MOL    O8442266   7.190   1.790   6.708 -0.2249  0.2521  0.8875
  132MOL    C8542267   7.266   1.700   6.786  0.9581  0.2131 -0.3018
  132MOL    C8642268   7.276   1.564   6.709 -0.3493 -0.0859  0.1152
  132MOL    C8742269   7.179   1.690   6.905 -0.2437  0.0423  0.6058
  132MOL    H8842270   7.327   1.964   6.799  1.4205 -0.7586 -0.7143
  132MOL    H8942271   7.220   2.062   6.709 -0.4384 -0.6391 -1.0437
  132MOL    H9042272   7.361   1.826   6.589  0.6789 -1.9498  2.1240
  132MOL    H9142273   7.371   1.726   6.802  0.9940  0.1750 -0.4716
  132MOL    H9242274   7.180   1.517   6.689 -0.3280 -0.1060  0.0620
  132MOL    H9342275   7.339   1.581   6.623  0.8932  2.5631  1.4734
  132MOL    H9442276   7.328   1.490   6.770 -2.8310 -1.5606  0.5254
  132MOL    H9542277   7.133   1.783   6.939 -1.6061 -0.3771 -0.0486
  132MOL    H9642278   7.091   1.632   6.879  0.4436 -0.8409  0.2234
  132MOL    H9742279   7.227   1.638   6.987  1.5409  2.0208  0.8657
  132MOL    C9842280   7.169   1.906   6.500  0.4446  0.4225 -0.2281
  132MOL    C9942281   7.190   1.833   6.367  0.2697  0.1141  1.0822
  132MOL   O10042282   7.317   1.878   6.311  0.0474 -0.0898 -0.6413
  132MOL   C10142283   7.387   1.782   6.230  0.2904 -0.4915 -0.0879
  132MOL   C10242284   7.471   1.684   6.305  0.2520  0.1312  0.2183
  132MOL   C10342285   7.471   1.857   6.121 -0.2472 -0.1769 -0.5881
  132MOL   H10442286   7.065   1.894   6.532  0.4056 -0.0391 -0.5267
  132MOL   H10542287   7.183   2.011   6.476 -0.2981  0.2133 -1.6176
  132MOL   H10642288   7.210   1.726   6.374  1.0023  0.1063 -0.9953
  132MOL   H10742289   7.311   1.723   6.180  0.5452 -1.1277  0.2740
  132MOL   H10842290   7.521   1.721   6.395  0.8618  0.5274 -0.2792
  132MOL   H10942291   7.558   1.642   6.254 -0.1730 -0.8584  0.2925
  132MOL   H11042292   7.410   1.600   6.338 -0.8604  1.4996  1.6603
  132MOL   H11142293   7.498   1.787   6.042 -0.1267 -0.9534  0.1333
  132MOL   H11242294   7.558   1.905   6.166 -1.5617  0.0465  1.7820
  132MOL   H11342295   7.417   1.941   6.078  1.4556  1.6745  0.7584
  132MOL   C11442296   7.075   1.856   6.271 -0.6508  0.0800 -1.1664
  132MOL   C11542297   6.967   1.748   6.278  0.1299 -0.4633  0.8567
  132MOL   O11642298   6.891   1.786   6.392 -0.3529  0.3968  0.3002
  132MOL   C11742299   6.808   1.681   6.442 -0.4822 -0.9525  0.2192
  132MOL   C11842300   6.660   1.734   6.438 -0.4712  0.4386  0.4684
  132MOL   C11942301   6.844   1.624   6.582 -0.2518 -0.3036 -0.4636
  132MOL   H12042302   7.109   1.866   6.168 -0.3088  0.8144 -0.9904
  132MOL   H12142303   7.026   1.951   6.294 -1.4869 -0.1713 -1.8840
  132MOL   H12242304   7.020   1.655   6.298 -0.9045 -1.1428  0.4660
  132MOL   H12342305   6.824   1.589   6.386  3.7859  0.5568 -1.2579
  132MOL   H12442306   6.651   1.838   6.468  3.5656  0.5886  1.4366
  132MOL   H12542307   6.586   1.676   6.495 -1.4998  1.1412 -0.1360
  132MOL   H12642308   6.623   1.735   6.336 -0.7854 -0.1802  0.5710
  132MOL   H12742309   6.933   1.561   6.575 -0.3996 -0.7719  1.7112
  132MOL   H12842310   6.771   1.556   6.625 -2.8521  2.3364 -0.5399
  132MOL   H12942311   6.853   1.705   6.654 -0.1077 -1.2441  0.5711
  132MOL   C13042312   6.881   1.745   6.162  0.0013  0.6395 -0.1706
  132MOL   C13142313   6.947   1.666   6.046  0.4506  0.2775  0.2738
  132MOL   O13242314   6.858   1.670   5.933 -0.0231 -0.3291 -0.2469
  132MOL   C13342315   6.901   1.728   5.809 -0.0400  0.1496  0.5814
  132MOL   C13442316   6.781   1.707   5.719 -0.6795  0.2564 -0.3166
  132MOL   C13542317   6.923   1.876   5.833 -0.4768 -0.2636  0.2146
  132MOL   H13642318   6.861   1.850   6.140  1.2298  1.0985  0.8480
  132MOL   H13742319   6.782   1.702   6.178  0.8114 -0.7892  1.0480
  132MOL   H13842320   7.041   1.715   6.020  0.1289  0.1782 -1.1418
  132MOL   H13942321   6.988   1.674   5.772 -0.3055 -0.2884  0.5790
  132MOL   H14042322   6.688   1.708   5.777 -1.1818  1.1055 -1.1223
  132MOL   H14142323   6.776   1.610   5.670  1.2339  0.3797 -0.7762
  132MOL   H14242324   6.774   1.783   5.641  2.3439  2.1013  1.1500
  132MOL   H14342325   6.832   1.925   5.868 -0.9336 -0.8023 -0.2094
  132MOL   H14442326   6.991   1.901   5.914  0.6239 -0.6009 -0.5915
  132MOL   H14542327   6.960   1.934   5.748 -0.4855  0.2579  0.5673
  132MOL   C14642328   6.958   1.512   6.072  0.1035  0.2168  0.7939
  132MOL   C14742329   7.057   1.439   5.983  0.0248  0.8743  0.0431
  132MOL   O14842330   7.188   1.491   6.002  0.0088  0.3919 -0.1181
  132MOL   C14942331   7.285   1.485   5.896  0.7181  0.5575 -0.1632
  132MOL   C15042332   7.417   1.441   5.950  0.1083  0.3305  0.1959
  132MOL   C15142333   7.281   1.611   5.808 -0.5446  0.0531  0.0882
  132MOL   H15242334   6.859   1.475   6.046 -0.3517  0.9907  1.4162
  132MOL   H15342335   6.970   1.482   6.176 -2.5989  0.7715  1.3004
  132MOL   H15442336   7.027   1.464   5.881  0.6968  0.5474 -0.2386
  132MOL   H15542337   7.240   1.404   5.838  0.2349 -1.2789  2.6732
  132MOL   H15642338   7.409   1.366   6.028  1.9065 -0.4076 -0.3165
  132MOL   H15742339   7.463   1.531   5.990  1.5773 -0.8133  1.1045
  132MOL   H15842340   7.486   1.413   5.870  0.5300  0.3832  0.5441
  132MOL   H15942341   7.181   1.652   5.820 -0.6962  0.1263 -1.3290
  132MOL   H16042342   7.302   1.599   5.701 -2.4517 -1.1837 -0.1751
  132MOL   H16142343   7.341   1.690   5.853  0.1825 -1.3538  1.6239
  132MOL   C16242344   7.059   1.290   6.018  0.6574 -0.1616  0.4020
  132MOL   C16342345   6.939   1.197   5.984 -0.1102 -0.0874  0.2274
  132MOL   O16442346   6.944   1.166   5.844  0.1743  0.0103 -0.6893
  132MOL   C16542347   6.825   1.147   5.772  0.8315  0.3011  0.1058
  132MOL   C16642348   6.811   1.002   5.706  0.1873 -0.0272 -0.1324
  132MOL   C16742349   6.830   1.262   5.671 -0.0036  0.1955 -0.1192
  132MOL   H16842350   7.144   1.246   5.965 -0.3272 -1.0486 -0.4616
  132MOL   H16942351   7.065   1.281   6.127 -1.4762 -1.9756  0.4113
  132MOL   H17042352   6.856   1.264   6.005 -2.5665 -2.2222 -2.1996
  132MOL   H17142353   6.735   1.170   5.828  1.2028  0.4291  0.6544
  132MOL   H17242354   6.887   0.991   5.629  1.7533 -1.2258  1.5265
  132MOL   H17342355   6.711   0.981   5.670 -0.2240  1.1253  0.3125
  132MOL   H17442356   6.837   0.919   5.772  0.3484 -1.2041 -1.6620
  132MOL   H17542357   6.755   1.231   5.598  0.8183  0.6391 -1.1585
  132MOL   H17642358   6.929   1.282   5.629  0.5226 -1.7721  0.1144
  132MOL   H17742359   6.784   1.351   5.715 -1.2995 -0.6257  0.2296
  132MOL   C17842360   6.940   1.071   6.068  0.0682  0.4777  0.6374
  132MOL   C17942361   6.890   1.085   6.215 -0.3241 -0.4844  0.3887
  132MOL   O18042362   6.747   1.101   6.207 -0.7623  0.3661  0.1596
  132MOL   C18142363   6.681   1.173   6.305 -0.5129 -0.7888 -0.4510
  132MOL   C18242364   6.592   1.067   6.367 -0.5030  0.3901 -0.3071
  132MOL   C18342365   6.594   1.291   6.240  0.2233  0.0179 -0.1305
  132MOL   H18442366   7.043   1.036   6.078 -0.2582 -0.8428 -0.4774
  132MOL   H18542367   6.877   1.000   6.014  1.3526 -0.3848  0.2408
  132MOL   H18642368   6.923   1.185   6.243  0.9190  0.1530 -3.1001
  132MOL   H18742369   6.753   1.224   6.368 -0.8255  0.0747 -0.7856
  132MOL   H18842370   6.530   1.106   6.448  0.3440  0.1548  0.4675
  132MOL   H18942371   6.644   0.987   6.420  0.3273  1.1862  0.0966
  132MOL   H19042372   6.528   1.024   6.291  1.5583 -3.1982 -0.1476
  132MOL   H19142373   6.653   1.372   6.197 -1.6269  0.8793 -1.0878
  132MOL   H19242374   6.522   1.330   6.312 -1.4138 -4.1834  0.6172
  132MOL   H19342375   6.531   1.244   6.164  0.7847 -0.3876 -0.3460
  132MOL   C19442376   6.941   0.972   6.305  0.3254  0.4401 -0.2759
  132MOL   C19542377   7.089   0.993   6.351 -0.2701  0.0197  0.3410
  132MOL   O19642378   7.144   0.873   6.396 -0.3905  0.3611 -0.2526
  132MOL   C19742379   7.225   0.796   6.298 -0.3639 -0.1296 -0.0137
  132MOL   C19842380   7.331   0.717   6.361 -0.5154  0.5483  0.0391
  132MOL   C19942381   7.126   0.704   6.218 -0.4671 -0.5515  0.2790
  132MOL   H20042382   6.884   0.960   6.397  3.3714 -0.3744  1.6018
  132MOL   H20142383   6.930   0.876   6.254  1.0887 -0.1030  0.5555
  132MOL   H20242384   7.148   1.033   6.269  1.1927 -0.9070  0.9357
  132MOL   H20342385   7.279   0.854   6.223  2.5719 -0.3100  1.9012
  132MOL   H20442386   7.397   0.783   6.417 -1.2914 -0.6015  2.3431
  132MOL   H20542387   7.285   0.656   6.438 -2.3776 -0.1479 -1.5971
  132MOL   H20642388   7.385   0.654   6.289 -1.6467 -2.5434  1.7913
  132MOL   H20742389   7.066   0.757   6.144 -0.7049 -0.4801  0.5219
  132MOL   H20842390   7.187   0.649   6.146 -0.1818  1.7541 -1.2849
  132MOL   H20942391   7.065   0.648   6.289  0.4888 -0.3420  1.2753
  132MOL   C21042392   7.106   1.089   6.474  0.4200 -0.1341 -0.2282
  132MOL   C21142393   7.254   1.119   6.509 -0.3243  0.6402  0.7191
  132MOL   O21242394   7.305   1.200   6.402 -0.6003  0.2277  0.3445
  132MOL   C21342395   7.441   1.198   6.378  0.1544  0.5358 -0.5612
  132MOL   C21442396   7.466   1.126   6.241  0.3813  0.1441  0.0770
  132MOL   C21542397   7.506   1.341   6.390 -0.1669  0.4310  0.4619
  132MOL   H21642398   7.059   1.028   6.551  1.1043  1.4816  1.5137
  132MOL   H21742399   7.053   1.183   6.458  2.7994  1.2130 -0.3373
  132MOL   H21842400   7.310   1.026   6.517 -2.5599 -0.8831 -0.8188
  132MOL   H21942401   7.493   1.132   6.448  0.3458  2.3625  1.0737
  132MOL   H22042402   7.445   1.019   6.250  1.0643  0.0751  0.9515
  132MOL   H22142403   7.561   1.150   6.193 -0.4860  0.7131 -1.3866
  132MOL   H22242404   7.394   1.159   6.166  0.7028 -1.5327 -0.9960
  132MOL   H22342405   7.480   1.395   6.299 -0.4016  2.7300  1.8604
  132MOL   H22442406   7.610   1.312   6.403 -0.8102 -1.0344  2.5768
  132MOL   H22542407   7.461   1.398   6.471  0.5234  0.6505  0.6937
  132MOL   C22642408   7.268   1.202   6.639  0.0451 -0.1081 -0.2247
  132MOL   C22742409   7.291   1.109   6.759 -0.6616  0.4282  0.5070
  132MOL   O22842410   7.237   1.174   6.869 -0.2406 -0.7575 -0.4790
  132MOL   C22942411   7.101   1.163   6.893 -0.2164  0.2801 -0.0002
  132MOL   C23042412   7.066   1.294   6.954  0.7051 -0.1856  0.4643
  132MOL   C23142413   7.087   1.038   6.986  0.7608 -0.2245 -0.0826
  132MOL   H23242414   7.172   1.251   6.656 -1.3446 -1.2432 -4.3016
  132MOL   H23342415   7.351   1.272   6.633 -0.2080  0.0654 -1.9365
  132MOL   H23442416   7.239   1.014   6.744 -2.0350  0.9589  1.7901
  132MOL   H23542417   7.041   1.159   6.802 -0.7043  0.1902  0.3216
  132MOL   H23642418   6.957   1.293   6.959  0.7893 -0.3121  2.8721
  132MOL   H23742419   7.107   1.308   7.053  0.4314 -0.4149  0.6113
  132MOL   H23842420   7.095   1.370   6.881 -0.4118 -0.3179 -0.1426
  132MOL   H23942421   6.983   1.022   7.016  1.2157 -0.6853  1.3286
  132MOL   H24042422   7.143   1.057   7.078 -1.1921 -2.9514  1.7617
  132MOL   H24142423   7.113   0.946   6.933 -1.6106 -1.2902  0.5159
  132MOL   C24242424   7.439   1.076   6.795 -0.0244  0.5476  0.2124
  132MOL   C24342425   7.461   0.956   6.888 -0.2863  0.2061  0.1802
  132MOL   O24442426   7.565   0.983   6.982 -0.2384 -0.0891  0.1742
  132MOL   C24542427   7.563   0.905   7.097  0.0163  0.7953 -0.0465
  132MOL   C24642428   7.715   0.873   7.114  0.2675 -0.1583 -0.8167
  132MOL   C24742429   7.503   0.980   7.213  0.2273  0.8334  0.2447
  132MOL   H24842430   7.501   1.064   6.706 -1.5918 -0.5918 -0.7566
  132MOL   H24942431   7.478   1.158   6.855  1.0390  0.6360 -0.5932
  132MOL   H25042432   7.365   0.929   6.931  0.3098 -2.9531 -0.3677
  132MOL   H25142433   7.499   0.818   7.085 -1.3669  1.5633  1.5382
  132MOL   H25242434   7.756   0.825   7.025 -3.7190 -2.7544 -1.3739
  132MOL   H25342435   7.775   0.964   7.122  0.5034 -0.2707 -1.2757
  132MOL   H25442436   7.728   0.819   7.207  1.1634  3.0699  1.0234
  132MOL   H25542437   7.574   1.046   7.262 -2.0382  1.2433  3.1324
  132MOL   H25642438   7.416   1.036   7.178 -0.4268 -1.5350 -2.0572
  132MOL   H25742439   7.484   0.906   7.291 -0.9820  1.5560  0.6539
  132MOL   C25842440   7.495   0.837   6.788 -0.3739  0.0425 -0.2709
  132MOL   C25942441   7.481   0.697   6.832  0.2494 -0.8163  0.0457
  132MOL   O26042442   7.525   0.624   6.715  0.0876 -0.2323 -0.1744
  132MOL   C26142443   7.664   0.584   6.690 -0.5754  0.2807  0.0728
  132MOL   C26242444   7.719   0.488   6.800 -0.5980  0.0012  0.1555
  132MOL   C26342445   7.652   0.518   6.554 -0.1747 -0.2679  0.0113
  132MOL   H26442446   7.433   0.840   6.699 -2.5808 -0.9699  1.1858
  132MOL   H26542447   7.600   0.857   6.764 -0.6835  0.8552 -0.9522
  132MOL   H26642448   7.547   0.666   6.912 -0.9049  0.8045  1.6728
  132MOL   H26742449   7.746   0.656   6.689  0.4074 -0.8265 -2.1482
  132MOL   H26842450   7.736   0.548   6.889  1.4087  1.5451 -1.2263
  132MOL   H26942451   7.817   0.456   6.764 -0.2365  0.3652  0.8018
  132MOL   H27042452   7.662   0.397   6.819  2.2748 -2.0419 -0.6181
  132MOL   H27142453   7.586   0.433   6.573  0.0287  0.0955  2.4026
  132MOL   H27242454   7.603   0.588   6.485 -1.0133 -1.9691 -1.1526
  132MOL   H27342455   7.738   0.469   6.509  0.0285 -0.7962  0.9664
  132MOL   C27442456   7.331   0.652   6.851 -0.5274 -0.0837 -0.3738
  132MOL   C27542457   7.313   0.519   6.930  0.1289 -0.1925  0.5207
  132MOL   O27642458   7.354   0.545   7.060 -0.8274  0.5656  0.3321
  132MOL   C27742459   7.384   0.436   7.140  0.0197 -0.3568 -0.9067
  132MOL   C27842460   7.381   0.498   7.277 -0.3672 -0.3774 -0.4063
  132MOL   C27942461   7.521   0.382   7.106  0.3817  0.1118 -0.3240
  132MOL   H28042462   7.289   0.722   6.924 -0.0088  1.7315 -1.7668
  132MOL   H28142463   7.269   0.658   6.762 -0.8126 -0.0579 -0.1742
  132MOL   H28242464   7.365   0.435   6.885  1.5068  0.8028  0.2099
  132MOL   H28342465   7.308   0.359   7.148 -0.2615 -0.0346 -0.4303
  132MOL   H28442466   7.451   0.581   7.291 -1.9617  0.4206  3.4066
  132MOL   H28542467   7.284   0.547   7.287 -1.1692 -1.5735 -2.0990
  132MOL   H28642468   7.398   0.434   7.363 -1.2439 -0.1652 -0.0711
  132MOL   H28742469   7.545   0.319   7.192 -1.5498  0.9414  0.8622
  132MOL   H28842470   7.598   0.458   7.095 -0.7362  0.9781 -2.3016
  132MOL   H28942471   7.520   0.326   7.012 -1.5330  2.1640 -1.5411
  132MOL   C29042472   7.159   0.475   6.937 -0.3166 -0.3368  1.1600
  132MOL   C29142473   7.072   0.453   6.810 -0.8219 -0.5497 -0.0222
  132MOL   O29242474   7.141   0.350   6.733 -0.0492  0.4400 -0.2221
  132MOL   C29342475   7.229   0.392   6.634  0.3161  0.6692 -0.1868
  132MOL   C29442476   7.144   0.447   6.517  0.3448  0.4108  0.3746
  132MOL   C29542477   7.321   0.276   6.578 -0.5795 -0.3277  0.4396
  132MOL   H29642478   7.099   0.551   6.988 -0.7285 -1.2024  1.9918
  132MOL   H29742479   7.147   0.382   6.993  2.4077  0.1946  2.6968
  132MOL   H29842480   7.064   0.551   6.763  0.9379 -1.0610 -1.4652
  132MOL   H29942481   7.304   0.457   6.679 -0.8779  0.4708  2.1291
  132MOL   H30042482   7.087   0.539   6.529  0.2050  0.1790  1.6283
  132MOL   H30142483   7.207   0.453   6.428  1.0345 -1.0046  0.7559
  132MOL   H30242484   7.075   0.368   6.488  0.0003  1.5943 -2.2114
  132MOL   H30342485   7.393   0.246   6.655  1.8057 -0.3073 -1.7097
  132MOL   H30442486   7.265   0.189   6.545  0.1214 -0.3121 -0.8009
  132MOL   H30542487   7.376   0.308   6.490 -1.0654 -1.7396 -0.3946
  132MOL   C30642488   6.926   0.413   6.829  0.7361 -0.3123  0.2377
  132MOL   C30742489   6.837   0.513   6.908  0.7669 -0.4169  0.2276
  132MOL   O30842490   6.704   0.455   6.917 -0.0758  0.1358  0.2286
  132MOL   C30942491   6.607   0.529   6.989 -0.8963  0.2356 -0.0937
  132MOL   C31042492   6.476   0.446   6.976 -0.2391  0.1386 -0.1413
  132MOL   C31142493   6.643   0.566   7.133  0.1581 -0.0260 -0.2963
  132MOL   H31242494   6.918   0.319   6.883 -0.9971 -0.5474 -0.4120
  132MOL   H31342495   6.876   0.400   6.733 -0.7031 -0.6482  1.0212
  132MOL   H31442496   6.875   0.508   7.010  0.6319  3.9261  0.6132
  132MOL   H31542497   6.604   0.623   6.933  0.2860 -0.1743 -0.8779
  132MOL   H31642498   6.392   0.513   6.963  1.1193  1.6661 -1.2213
  132MOL   H31742499   6.474   0.380   7.063  2.2221 -0.4369 -0.4746
  132MOL   H31842500   6.492   0.383   6.888 -0.2461  2.1811 -1.6296
  132MOL   H31942501   6.711   0.649   7.149  0.3538 -0.5277  1.5281
  132MOL   H32042502   6.707   0.491   7.179  0.8545  0.6881 -0.0930
  132MOL   H32142503   6.548   0.585   7.184 -1.1176  0.3181 -2.7131
  132MOL   H32242504   6.835   0.618   6.877 -2.1438 -0.3220  0.5757
  133MOL     C142505   4.316   7.548   7.010 -0.7487  0.2873 -0.0014
  133MOL     C242506   4.254   7.489   7.143  0.3318 -0.2165 -0.7430
  133MOL     O342507   4.256   7.341   7.143 -0.2049  0.6083  0.5083
  133MOL     C442508   4.176   7.273   7.047  0.1981  0.4828 -0.7949
  133MOL     C542509   4.033   7.262   7.086  0.5681 -0.3181 -0.0983
  133MOL     C642510   4.253   7.144   7.024  0.9157 -0.1627 -0.3287
  133MOL     H742511   4.338   7.655   7.010  2.8238 -0.4002 -0.0071
  133MOL     H842512   4.418   7.511   7.003  0.0475  2.5295 -0.6951
  133MOL     H942513   4.147   7.506   7.138  0.1081 -0.9656  1.0941
  133MOL    H1042514   4.192   7.335   6.958 -2.4616  1.2150 -0.7845
  133MOL    H1142515   3.980   7.209   7.007 -0.3144  1.4206 -0.7037
  133MOL    H1242516   4.020   7.208   7.180  2.1802 -0.9340 -0.2156
  133MOL    H1342517   3.980   7.356   7.102  3.0760  0.9694  0.8510
  133MOL    H1442518   4.208   7.101   6.935 -0.9109  1.6785 -0.3150
  133MOL    H1542519   4.360   7.159   7.012  0.7745  1.7306  0.7033
  133MOL    H1642520   4.233   7.081   7.111 -1.8160  1.1324  0.0055
  133MOL    H1742521   4.260   7.523   6.919 -1.7115  2.5181 -0.0571
  133MOL    C1842522   4.326   7.553   7.269  0.1052  0.2808 -0.2075
  133MOL    C1942523   4.238   7.533   7.393 -0.1874 -0.5464  0.3760
  133MOL    O2042524   4.107   7.584   7.387 -0.0789 -0.1042 -0.4509
  133MOL    C2142525   4.004   7.526   7.475 -0.1107 -0.0974 -0.6116
  133MOL    C2242526   3.915   7.426   7.394 -0.6181 -0.3763  0.0121
  133MOL    C2342527   3.930   7.645   7.517  0.1573 -0.2635 -1.1061
  133MOL    H2442528   4.426   7.509   7.278  0.0894  0.2230 -0.3126
  133MOL    H2542529   4.350   7.657   7.252  0.6373  0.6593  2.5767
  133MOL    H2642530   4.232   7.425   7.405  0.6975 -0.6657 -0.1769
  133MOL    H2742531   4.053   7.475   7.558 -0.6781 -2.4095 -1.6554
  133MOL    H2842532   3.990   7.363   7.346 -0.3392  1.4392 -2.0100
  133MOL    H2942533   3.837   7.366   7.441 -0.2181 -2.4195 -1.8079
  133MOL    H3042534   3.861   7.480   7.316 -0.5337 -1.4515 -0.8049
  133MOL    H3142535   3.995   7.709   7.576 -2.7557  1.0916  0.7384
  133MOL    H3242536   3.839   7.617   7.572  1.5546 -1.2717  0.7344
  133MOL    H3342537   3.900   7.698   7.427  0.9928  1.4934 -0.3740
  133MOL    C3442538   4.305   7.597   7.517 -0.2179  0.1358  1.2252
  133MOL    C3542539   4.451   7.555   7.547  0.1765  0.1937 -0.1758
  133MOL    O3642540   4.499   7.617   7.665  0.6253 -0.6255 -0.8071
  133MOL    C3742541   4.531   7.753   7.663  0.2712  0.3554  0.3875
  133MOL    C3842542   4.518   7.792   7.812  0.2407 -0.2175 -0.2872
  133MOL    C3942543   4.681   7.774   7.621  0.2977 -0.6079 -0.0723
  133MOL    H4042544   4.249   7.559   7.602 -1.3152 -0.9773  0.0317
  133MOL    H4142545   4.298   7.706   7.515 -0.4096  0.1292  1.6670
  133MOL    H4242546   4.518   7.585   7.467  1.2213 -0.6578  0.3669
  133MOL    H4342547   4.461   7.810   7.602 -2.1622 -2.2153  0.6823
  133MOL    H4442548   4.423   7.760   0.033  0.8291 -0.4188  0.9265
  133MOL    H4542549   4.542   0.078   7.818 -2.0848  0.4214 -1.7173
  133MOL    H4642550   4.600   7.761   0.057  1.3302  0.6786 -1.2025
  133MOL    H4742551   4.689   0.011   7.529  0.8556  0.1736  0.4545
  133MOL    H4842552   4.747   0.010   7.687  0.1364  0.0288 -0.4457
  133MOL    H4942553   4.728   7.680   7.595 -0.1933 -0.6448 -0.8351
  133MOL    C5042554   4.464   7.397   7.567 -0.2415 -0.5783 -0.8892
  133MOL    C5142555   4.597   7.338   7.520 -0.0878  0.0334  0.1942
  133MOL    O5242556   4.579   7.198   7.516  0.0593  0.6696  0.4082
  133MOL    C5342557   4.624   7.128   7.402 -0.4718  0.3715  0.3543
  133MOL    C5442558   4.504   7.131   7.312 -0.5476 -0.2086 -0.2357
  133MOL    C5542559   4.661   6.987   7.446  0.8562 -0.4173 -0.5581
  133MOL    H5642560   4.440   7.366   7.669  0.1791 -0.7284 -0.8325
  133MOL    H5742561   4.386   7.344   7.512 -2.3758 -1.2402  2.6436
  133MOL    H5842562   4.619   7.374   7.419  2.2704  1.9819  1.3384
  133MOL    H5942563   4.708   7.180   7.357  0.5041 -1.2893  0.2426
  133MOL    H6042564   4.412   7.085   7.349 -1.2998  0.8879 -0.6966
  133MOL    H6142565   4.536   7.075   7.224  1.3510 -0.2840  0.4863
  133MOL    H6242566   4.479   7.231   7.276 -0.9228  1.3257  4.0416
  133MOL    H6342567   4.570   6.932   7.473  0.5657  1.4674  2.5325
  133MOL    H6442568   4.730   6.988   7.530  0.0459  0.9740  0.1054
  133MOL    H6542569   4.709   6.929   7.368 -3.5886 -3.5226 -1.2228
  133MOL    C6642570   4.707   7.359   7.618  0.1189  0.4476  0.1858
  133MOL    C6742571   4.849   7.306   7.573 -0.2470  0.7180 -0.1471
  133MOL    O6842572   4.932   7.317   7.685 -0.2515 -0.1889 -0.5626
  133MOL    C6942573   4.927   7.210   7.781  0.1732 -0.7674  0.2799
  133MOL    C7042574   5.070   7.149   7.807  0.3059  0.4737  0.4540
  133MOL    C7142575   4.887   7.269   0.093  0.1020  0.1189  0.0672
  133MOL    H7242576   4.705   7.462   7.652 -0.5840  0.3739  0.3728
  133MOL    H7342577   4.682   7.299   7.706  3.0166 -1.1601 -0.0176
  133MOL    H7442578   4.847   7.201   7.542  1.5316 -0.1726  2.5989
  133MOL    H7542579   4.851   7.136   7.755 -0.2044  0.0586 -0.9928
  133MOL    H7642580   5.111   7.085   7.729 -1.8330 -0.2419 -0.1281
  133MOL    H7742581   5.140   7.228   0.010  1.1020 -0.2171  0.4290
  133MOL    H7842582   5.081   7.089   0.077  0.0451  0.7702  0.6830
  133MOL    H7942583   4.958   7.341   0.132  0.2722 -0.7137  1.3133
  133MOL    H8042584   4.869   7.184   0.160  0.2354  0.3531  0.3978
  133MOL    H8142585   4.792   7.321   0.083  0.7088  0.8167 -2.4073
  133MOL    C8242586   4.924   7.396   7.470 -0.0631 -0.7914  0.3223
  133MOL    C8342587   5.026   7.320   7.382  0.2162  0.1466  0.0429
  133MOL    O8442588   4.960   7.213   7.321  0.0664  0.5753  0.4207
  133MOL    C8542589   5.034   7.097   7.284 -0.0593  0.1984 -0.2687
  133MOL    C8642590   4.957   7.016   7.181  0.2187  0.2124  0.1642
  133MOL    C8742591   5.091   7.010   7.395 -0.8290 -0.2505  0.1845
  133MOL    H8842592   4.858   7.460   7.411 -0.3740 -1.7917 -0.4338
  133MOL    H8942593   4.978   7.468   7.532  1.6110 -1.3937 -0.3985
  133MOL    H9042594   5.090   7.268   7.454  0.4691 -2.0525 -1.7020
  133MOL    H9142595   5.120   7.127   7.223 -0.8247 -2.7394 -2.9366
  133MOL    H9242596   5.014   6.924   7.165  2.1056  1.2970  0.4805
  133MOL    H9342597   4.863   6.982   7.223 -0.4566 -0.8613 -2.1108
  133MOL    H9442598   4.942   7.080   7.094  0.6838  0.8158  0.5259
  133MOL    H9542599   5.143   7.067   7.472 -0.2711 -0.1681 -0.2481
  133MOL    H9642600   5.005   6.956   7.434 -1.6435 -1.2608 -2.8966
  133MOL    H9742601   5.163   6.939   7.356  0.5496  2.3216 -2.0966
  133MOL    C9842602   5.101   7.415   7.282  0.3752  0.6578 -0.5205
  133MOL    C9942603   5.145   7.555   7.342 -0.1529 -0.6383  0.3527
  133MOL   O10042604   5.219   7.629   7.241  0.4825  0.9591  0.3229
  133MOL   C10142605   5.135   7.700   7.145  0.4678 -0.2123  0.0744
  133MOL   C10242606   5.208   7.695   7.005 -0.0289 -0.6281 -0.4328
  133MOL   C10342607   5.111   0.025   7.194  0.8183  0.6989 -0.3621
  133MOL   H10442608   5.185   7.370   7.231 -1.0155 -0.7938 -1.5682
  133MOL   H10542609   5.044   7.428   7.190 -0.8108 -1.0966 -0.0671
  133MOL   H10642610   5.056   7.613   7.367  0.1068  0.4150 -1.1052
  133MOL   H10742611   5.039   7.649   7.141  0.5622 -0.5075  1.5822
  133MOL   H10842612   5.293   7.763   7.005 -0.1032 -0.5054  1.7545
  133MOL   H10942613   5.141   7.725   6.923  0.3713 -0.7330 -0.8001
  133MOL   H11042614   5.250   7.600   6.973  0.8731 -0.7899  1.1942
  133MOL   H11142615   5.076   0.037   7.297  0.2936  0.1045 -0.4740
  133MOL   H11242616   5.040   0.083   7.135 -0.2062  0.2473  0.4120
  133MOL   H11342617   5.195   0.094   7.185  2.1312 -0.4568  2.5460
  133MOL   C11442618   5.229   7.542   7.479 -0.1915 -0.0138 -0.6240
  133MOL   C11542619   5.223   7.671   7.569  0.6506  0.0986  0.3563
  133MOL   O11642620   5.272   7.644   7.703  0.0708  0.3494  0.2065
  133MOL   C11742621   5.188   7.602   7.803 -0.3944  0.6345 -0.0413
  133MOL   C11842622   5.142   7.714   0.079 -0.4242 -0.2003 -0.0617
  133MOL   C11942623   5.277   7.504   0.061  0.0598 -0.2395 -0.2383
  133MOL   H12042624   5.332   7.512   7.460 -0.0607  0.7392 -1.1297
  133MOL   H12142625   5.192   7.460   7.540  3.2636 -1.5643 -0.5034
  133MOL   H12242626   5.120   7.708   7.576  0.9438  1.3600 -1.5602
  133MOL   H12342627   5.095   7.554   7.772 -1.5852  1.9676  1.4077
  133MOL   H12442628   5.105   7.673   0.173 -1.1097  0.0772 -0.2105
  133MOL   H12542629   5.062   7.771   0.032  0.5621  0.1445 -1.3812
  133MOL   H12642630   5.227   7.781   0.092  0.1987 -1.2896  1.6669
  133MOL   H12742631   5.233   7.443   0.139  0.1133  0.2898  0.2053
  133MOL   H12842632   5.362   7.566   0.089 -1.5302  2.0619 -0.2848
  133MOL   H12942633   5.321   7.432   7.813  1.3607  0.1782  0.1440
  133MOL   C13042634   5.309   7.788   7.513 -0.8056 -0.6011  0.1582
  133MOL   C13142635   5.302   0.104   7.582  0.0094 -0.0919 -0.1188
  133MOL   O13242636   5.212   0.179   7.505 -0.1812  0.4945 -0.4560
  133MOL   C13342637   5.131   0.272   7.571  0.6605 -0.7349  0.2099
  133MOL   C13442638   5.195   0.412   7.580  0.2521 -0.2364  0.6014
  133MOL   C13542639   5.008   0.264   7.482  0.2583 -1.1184  0.4073
  133MOL   H13642640   5.291   7.806   7.407  0.8061  2.6184  0.3707
  133MOL   H13742641   5.414   7.758   7.520 -0.5446  0.1782 -0.2273
  133MOL   H13842642   5.255   0.082   7.678  2.7173  0.6021  1.4348
  133MOL   H13942643   5.106   0.240   7.672 -2.8716  0.9486 -0.0510
  133MOL   H14042644   5.261   0.429   7.665 -1.0637  2.5568  1.1347
  133MOL   H14142645   5.124   0.493   7.598 -1.0762 -1.3727  0.4861
  133MOL   H14242646   5.241   0.445   7.487 -1.5992  2.4890  0.5872
  133MOL   H14342647   4.930   0.293   7.553  1.3910  2.4874  0.2966
  133MOL   H14442648   5.013   0.340   7.404  1.5019  1.1822  2.6358
  133MOL   H14542649   5.002   0.161   7.448 -0.4099 -0.5710 -1.1865
  133MOL   C14642650   5.436   0.187   7.600  0.5337  0.3955 -0.0670
  133MOL   C14742651   5.516   0.155   7.726 -0.0647  0.4603 -0.4461
  133MOL   O14842652   5.642   0.225   7.718 -0.3428  0.6417 -0.3583
  133MOL   C14942653   5.757   0.144   7.700 -0.1407  0.0536 -0.4612
  133MOL   C15042654   5.876   0.228   7.732 -0.1139  0.1494 -0.2666
  133MOL   C15142655   5.770   0.098   7.562 -0.0826  0.1675  0.6699
  133MOL   H15242656   5.411   0.293   7.609  0.6451  0.4836 -0.7812
  133MOL   H15342657   5.500   0.192   7.512 -0.2534 -3.5651 -0.9576
  133MOL   H15442658   5.541   0.049   7.718 -3.4779 -0.3840 -0.5962
  133MOL   H15542659   5.768   0.063   7.772 -0.5709  1.1444  0.8463
  133MOL   H15642660   5.871   0.325   7.682  1.1286  0.2776 -0.1385
  133MOL   H15742661   5.970   0.183   7.703  0.1794  0.4824  0.1625
  133MOL   H15842662   5.875   0.250   0.018 -2.1065 -1.6086  0.1197
  133MOL   H15942663   5.783   0.187   7.501 -2.3210  0.3637  0.4380
  133MOL   H16042664   5.683   0.041   7.529 -1.6100  1.4337  2.4287
  133MOL   H16142665   5.857   0.032   7.559  1.0462  1.6986 -1.5930
  133MOL   C16242666   5.438   0.185   0.026 -0.0521  0.1164 -0.2042
  133MOL   C16342667   5.523   0.169   0.160 -0.7482  0.6322  0.7056
  133MOL   O16442668   5.447   0.203   0.273  0.8256 -0.5287 -0.1834
  133MOL   C16542669   5.496   0.303   0.360  0.5292  0.4551  0.4377
  133MOL   C16642670   5.440   0.278   0.501 -0.0016 -0.1120 -0.0037
  133MOL   C16742671   5.447   0.436   0.298 -0.3185 -1.0545 -0.6527
  133MOL   H16842672   5.399   0.287   0.032  2.1909  1.0572 -1.1365
  133MOL   H16942673   5.361   0.109   0.037 -0.4304  0.5660  0.2826
  133MOL   H17042674   5.602   0.242   0.144 -1.3333  0.9301 -0.9692
  133MOL   H17142675   5.604   0.288   0.358  0.4927  0.3054 -2.3233
  133MOL   H17242676   5.473   0.181   0.538 -2.0035 -0.6375  0.4504
  133MOL   H17342677   5.332   0.266   0.502  0.2129 -2.3375  1.6216
  133MOL   H17442678   5.472   0.356   0.570 -1.5657 -0.4245  1.0953
  133MOL   H17542679   5.525   0.503   0.334  0.1391 -1.1565 -1.4216
  133MOL   H17642680   5.348   0.469   0.328  0.5526 -0.0006  1.1363
  133MOL   H17742681   5.444   0.432   0.189 -2.1523 -0.4477 -0.6290
  133MOL   C17842682   5.586   0.024   0.184 -0.2350  0.1785 -0.5839
  133MOL   C17942683   5.686   0.020   0.302  0.9450  0.2752  0.0519
  133MOL   O18042684   5.695   7.702   0.319 -0.0019  0.5852 -0.1675
  133MOL   C18142685   5.747   7.669   0.445  0.2550 -0.2200  0.2457
  133MOL   C18242686   5.863   7.578   0.410  0.0265 -0.0408 -0.1891
  133MOL   C18342687   5.639   7.591   0.536  0.1547  0.2787  0.3842
  133MOL   H18442688   5.630   7.804   0.093  0.0997  0.7255 -0.6642
  133MOL   H18542689   5.504   7.778   0.212  1.0785 -0.4955  1.8462
  133MOL   H18642690   5.653   0.073   0.391 -1.5706  0.3169 -0.8514
  133MOL   H18742691   5.779   7.753   0.507 -0.0353  2.2899 -2.8702
  133MOL   H18842692   5.921   7.612   0.324  1.3643 -3.3382 -0.6561
  133MOL   H18942693   5.822   7.481   0.381 -1.2457  0.4314 -0.0219
  133MOL   H19042694   5.936   7.565   0.489  0.1413 -0.4658 -0.3640
  133MOL   H19142695   5.608   7.508   0.472 -0.7899  1.8212 -1.2186
  133MOL   H19242696   5.550   7.653   0.543 -0.3331  0.1139 -3.2985
  133MOL   H19342697   5.696   7.562   0.623 -0.7077  2.0827  1.5905
  133MOL   C19442698   5.819   0.074   0.256 -0.4571 -0.3556  0.0645
  133MOL   C19542699   5.917   0.134   0.363  0.0686 -0.3089 -0.1531
  133MOL   O19642700   5.866   0.259   0.411 -0.4548  0.4631  0.1914
  133MOL   C19742701   5.900   0.295   0.549  0.8252  0.2036  0.1554
  133MOL   C19842702   5.902   0.450   0.557 -0.4482  0.0066 -0.1405
  133MOL   C19942703   5.797   0.217   0.636 -0.1140 -0.1594  0.1310
  133MOL   H20042704   5.885   0.018   0.190  0.8706  2.2612 -0.9237
  133MOL   H20142705   5.813   0.161   0.190 -0.0291  0.7811  1.4997
  133MOL   H20242706   5.932   0.052   0.434 -0.0885  0.3188  0.6160
  133MOL   H20342707   6.003   0.267   0.570  0.9859  2.0314  1.9040
  133MOL   H20442708   5.972   0.487   0.482 -2.1889  0.1649 -1.7340
  133MOL   H20542709   5.802   0.485   0.529 -1.3277 -1.8902  0.5054
  133MOL   H20642710   5.920   0.484   0.658 -1.1165  0.5975 -0.2132
  133MOL   H20742711   5.802   0.108   0.636  0.4109 -0.1445  0.8428
  133MOL   H20842712   5.827   0.252   0.735  0.1492  1.5376 -0.5181
  133MOL   H20942713   5.698   0.250   0.607  0.7760 -0.8970 -4.1051
  133MOL   C21042714   6.058   0.167   0.311  0.2228  0.5046  0.0362
  133MOL   C21142715   6.150   0.041   0.314  0.0884  0.5497  0.4126
  133MOL   O21242716   6.264   0.059   0.229 -0.2057  0.1066  0.0504
  133MOL   C21342717   6.278   7.785   0.113  1.1171  0.3984 -0.5296
  133MOL   C21442718   6.159   7.771   0.014  0.4566  0.2041 -0.2868
  133MOL   C21542719   6.417   7.814   0.060 -0.2352  0.4524  0.1636
  133MOL   H21642720   6.103   0.256   0.355  2.0423  0.6361 -2.0571
  133MOL   H21742721   6.047   0.196   0.207  2.0178 -0.2116 -0.3721
  133MOL   H21842722   6.097   7.771   0.283 -0.1612  0.8376 -0.0029
  133MOL   H21942723   6.287   7.690   0.165  2.1892  1.3512  1.0576
  133MOL   H22042724   6.069   7.729   0.059  0.1023  0.4108 -0.7946
  133MOL   H22142725   6.195   7.706   7.754  0.1520  1.0827 -1.1447
  133MOL   H22242726   6.129   0.041   7.782 -1.3324 -1.5215 -2.3816
  133MOL   H22342727   6.484   7.806   0.146 -2.0136 -1.9634  1.3660
  133MOL   H22442728   6.424   0.092   0.013  1.0345 -0.3539 -1.3629
  133MOL   H22542729   6.441   7.735   7.810 -1.7088 -0.9988  1.2527
  133MOL   C22642730   6.208   0.012   0.452 -0.0440  0.0134  0.8993
  133MOL   C22742731   6.301   7.708   0.472  0.2205 -0.3489 -0.0051
  133MOL   O22842732   6.203   7.602   0.467 -0.2055  0.2055 -0.2522
  133MOL   C22942733   6.257   7.471   0.446 -0.6984 -0.2315  0.4062
  133MOL   C23042734   6.225   7.426   0.304  0.6689  0.0893  0.9844
  133MOL   C23142735   6.195   7.388   0.556  0.1875 -0.2878  0.0432
  133MOL   H23242736   6.134   0.001   0.531  0.4321  0.0209  1.3453
  133MOL   H23342737   6.266   0.099   0.484 -0.8423  1.3166 -1.1076
  133MOL   H23442738   6.379   7.684   0.400  1.0042  0.2146  0.6442
  133MOL   H23542739   6.365   7.464   0.461 -0.6207  0.9087  0.3972
  133MOL   H23642740   6.263   7.503   0.237 -1.7756  1.0084  0.6203
  133MOL   H23742741   6.275   7.332   0.281  0.6433  0.3069  0.0131
  133MOL   H23842742   6.118   7.424   0.286  0.6493 -0.0732  1.1106
  133MOL   H23942743   6.086   7.387   0.556  0.1383  1.6845  1.8183
  133MOL   H24042744   6.242   7.421   0.649 -2.6746  0.1641  1.3605
  133MOL   H24142745   6.223   7.282   0.550  0.8517 -0.2687  2.1773
  133MOL   C24242746   6.370   7.702   0.613 -0.1675  0.4501  0.6663
  133MOL   C24342747   6.458   7.819   0.662  0.5040 -0.0785  0.5780
  133MOL   O24442748   6.578   7.817   0.596 -0.0198 -0.4099  0.2179
  133MOL   C24542749   6.651   0.120   0.561 -0.2010 -0.0819 -0.3041
  133MOL   C24642750   6.785   0.086   0.504  0.5034 -0.0530 -0.1130
  133MOL   C24742751   6.582   0.214   0.474  0.9590  0.3825  0.2453
  133MOL   H24842752   6.291   7.680   0.685 -1.4454  0.6715 -0.6557
  133MOL   H24942753   6.414   7.602   0.619 -0.4363 -0.0071 -3.6622
  133MOL   H25042754   6.412   0.093   0.633  1.2392  0.3981  0.9636
  133MOL   H25142755   6.673   0.165   0.658  1.2871  1.5743 -1.3795
  133MOL   H25242756   6.832   0.179   0.475  1.1240 -0.1844  0.4662
  133MOL   H25342757   6.849   0.023   0.566  2.6231  0.0461 -2.1501
  133MOL   H25442758   6.773   0.020   0.417 -0.4615 -2.0500  1.4793
  133MOL   H25542759   6.545   0.173   0.379 -0.3654  0.8931  0.5239
  133MOL   H25642760   6.498   0.251   0.532 -1.0056 -1.9805 -0.9646
  133MOL   H25742761   6.651   0.295   0.452 -0.4000  1.3300 -0.6983
  133MOL   C25842762   6.493   0.005   0.813 -0.3560  0.4557 -0.2113
  133MOL   C25942763   6.375   0.029   0.911  0.6516 -0.2878  0.0540
  133MOL   O26042764   6.330   0.168   0.901 -0.4694 -0.5352 -0.6083
  133MOL   C26142765   6.197   0.190   0.939 -0.2854 -0.0282 -0.1801
  133MOL   C26242766   6.188   0.277   1.068 -0.0932  0.5030 -0.4599
  133MOL   C26342767   6.138   0.251   0.816 -0.1910  1.0378 -0.7022
  133MOL   H26442768   6.549   7.734   0.832  0.0695  0.5754 -0.8800
  133MOL   H26542769   6.571   0.079   0.830 -0.6027  0.5503  0.5138
  133MOL   H26642770   6.290   7.782   0.905 -0.7625  1.3874  0.8985
  133MOL   H26742771   6.150   0.092   0.947  0.2062 -0.2880 -0.4447
  133MOL   H26842772   6.088   0.321   1.070 -0.6350 -0.7756  1.2795
  133MOL   H26942773   6.259   0.358   1.086 -0.7805  0.9550  0.2985
  133MOL   H27042774   6.196   0.213   1.156  0.8791 -0.2522 -1.0985
  133MOL   H27142775   6.131   0.186   0.729 -0.6545  1.1645 -0.7631
  133MOL   H27242776   6.040   0.287   0.847 -0.5065 -2.1445  2.2828
  133MOL   H27342777   6.197   0.336   0.782 -0.9685  1.4707 -0.9842
  133MOL   C27442778   6.433   0.031   1.061  0.2302 -0.1278 -0.4441
  133MOL   C27542779   6.427   7.711   1.125 -0.5545 -0.2140  0.2825
  133MOL   O27642780   6.494   7.622   1.037  0.0595  0.8632 -0.5011
  133MOL   C27742781   6.436   7.499   1.041  0.0847 -0.2217  0.1130
  133MOL   C27842782   6.553   7.405   1.057 -0.0640 -0.5356  0.4369
  133MOL   C27942783   6.361   7.478   0.907  0.1499  0.2266  0.1464
  133MOL   H28042784   6.538   0.057   1.060  0.4234 -0.8928 -0.9663
  133MOL   H28142785   6.385   0.107   1.122 -1.0510 -0.6230 -0.8123
  133MOL   H28242786   6.322   7.682   1.130 -0.6206 -0.7462 -3.0709
  133MOL   H28342787   6.378   7.472   1.130  0.5456 -0.7840  0.2483
  133MOL   H28442788   6.608   7.414   0.964 -0.5580  1.4061  0.3097
  133MOL   H28542789   6.616   7.426   1.144  0.2938 -0.1626  0.0863
  133MOL   H28642790   6.514   7.304   1.073 -2.0755  0.1737  0.1347
  133MOL   H28742791   6.425   7.506   0.823  0.9208  2.6101  1.4961
  133MOL   H28842792   6.272   7.542   0.913  0.7520  1.0689  0.2303
  133MOL   H28942793   6.322   7.377   0.902 -2.1399  1.0562  0.4492
  133MOL   C29042794   6.482   7.696   1.271 -0.6638 -0.0600  0.4434
  133MOL   C29142795   6.387   7.753   1.371  0.9603  0.3188  0.4768
  133MOL   O29242796   6.274   7.671   1.371  0.1482 -0.5082  0.2126
  133MOL   C29342797   6.152   7.728   1.414  0.2941  0.1365 -0.1095
  133MOL   C29442798   6.085   7.626   1.508 -0.1111 -0.2428 -0.2382
  133MOL   C29542799   6.066   7.753   1.289  0.5081  0.6524  0.4648
  133MOL   H29642800   6.583   7.738   1.275 -0.4155 -0.7187  1.4976
  133MOL   H29742801   6.491   7.590   1.294  1.6895 -0.4703 -2.0216
  133MOL   H29842802   6.355   0.036   1.354  1.1215  0.3985  0.6598
  133MOL   H29942803   6.166   7.819   1.470 -2.8920  1.4399 -1.3106
  133MOL   H30042804   6.064   7.529   1.463 -2.0863 -0.3842  0.9195
  133MOL   H30142805   6.160   7.603   1.583  0.8201  0.0307 -1.0646
  133MOL   H30242806   5.993   7.665   1.551  0.1563 -0.5517  0.6183
  133MOL   H30342807   6.057   7.661   1.231  2.3248  1.4305 -1.0704
  133MOL   H30442808   5.968   7.795   1.314 -0.0944 -0.7354  0.4901
  133MOL   H30542809   6.118   0.002   1.224  0.9815  0.2912  0.4548
  133MOL   C30642810   6.453   7.743   1.509 -0.4640  0.2599  0.0505
  133MOL   C30742811   6.550   0.048   1.532  0.2517  0.7044  0.3969
  133MOL   O30842812   6.465   0.160   1.548 -0.4497  0.2679  0.1152
  133MOL   C30942813   6.532   0.281   1.561  0.0151 -0.0502 -0.6401
  133MOL   C31042814   6.543   0.348   1.421  0.3621 -1.1996 -0.3534
  133MOL   C31142815   6.455   0.381   1.656  0.0634 -0.6101 -0.0707
  133MOL   H31242816   6.509   7.650   1.523 -0.9110  0.1405  1.1411
  133MOL   H31342817   6.377   7.749   1.588  1.1919 -0.1349  1.7195
  133MOL   H31442818   6.607   0.034   1.624 -0.8743 -1.6943  0.7695
  133MOL   H31542819   6.632   0.266   1.600 -0.9416  1.9406  2.8163
  133MOL   H31642820   6.576   0.452   1.422  0.5693 -1.2130 -3.1643
  133MOL   H31742821   6.446   0.344   1.373 -0.5936  0.7462  1.3248
  133MOL   H31842822   6.612   0.295   1.356  0.1698 -0.6425 -1.0096
  133MOL   H31942823   6.481   0.486   1.642 -0.2787 -0.5978 -0.6565
  133MOL   H32042824   6.486   0.358   1.758  1.2959 -0.9055 -0.5050
  133MOL   H32142825   6.347   0.363   1.653 -0.2726  1.3181  0.2129
  133MOL   H32242826   6.618   0.068   1.449  0.3196 -1.4765 -0.1186
  134MOL     C142827   2.730   4.358   1.359  0.5313  0.6198  0.4843
  134MOL     C242828   2.798   4.221   1.329 -0.0510  0.1253  0.0255
  134MOL     O342829   2.843   4.226   1.196  0.4716 -0.1935 -0.0707
  134MOL     C442830   2.750   4.234   1.090  0.1994 -0.0575  0.5630
  134MOL     C542831   2.739   4.096   1.016 -0.5449 -0.1222 -0.6221
  134MOL     C642832   2.784   4.354   1.003 -0.4311 -0.9441  0.6832
  134MOL     H742833   2.721   4.369   1.467 -0.0506  1.2184  0.3754
  134MOL     H842834   2.798   4.439   1.334  2.7147 -1.2590  0.1377
  134MOL     H942835   2.720   4.146   1.335  0.6818 -0.5531  1.2454
  134MOL    H1042836   2.648   4.248   1.125 -0.3386  0.7077 -1.2192
  134MOL    H1142837   2.669   4.108   0.933 -1.0877  0.4545 -0.0850
  134MOL    H1242838   2.835   4.069   0.971  0.3119  2.6826 -0.5421
  134MOL    H1342839   2.710   4.007   1.073 -0.8382 -0.3073 -1.0540
  134MOL    H1442840   2.694   4.395   0.958 -0.2647 -2.7230 -1.3359
  134MOL    H1542841   2.815   4.437   1.068 -0.8437 -1.4637  1.5520
  134MOL    H1642842   2.862   4.333   0.931 -1.6251  0.8945 -1.2041
  134MOL    H1742843   2.633   4.380   1.314  0.9951 -0.2940 -1.0149
  134MOL    C1842844   2.914   4.176   1.429  0.5688 -0.2245 -0.2314
  134MOL    C1942845   2.984   4.050   1.385  0.0216 -0.3319  0.4032
  134MOL    O2042846   3.021   3.978   1.504 -0.1622 -0.1440 -0.4212
  134MOL    C2142847   2.938   3.872   1.549  0.8243  0.1172 -0.2333
  134MOL    C2242848   2.789   3.889   1.539  0.8219 -0.7515 -0.4028
  134MOL    C2342849   2.993   3.844   1.692  0.1500  0.1511  0.7172
  134MOL    H2442850   2.988   4.256   1.442 -0.7205  1.1260 -1.0383
  134MOL    H2542851   2.874   4.160   1.529 -0.6486  1.7596 -0.3747
  134MOL    H2642852   2.910   3.996   1.326  0.1150 -1.3110  1.1637
  134MOL    H2742853   2.954   3.789   1.480 -2.5888  0.2183 -1.2389
  134MOL    H2842854   2.749   3.969   1.601 -1.7990 -1.8347 -0.6386
  134MOL    H2942855   2.757   3.917   1.438 -0.9137  0.0354  0.3618
  134MOL    H3042856   2.746   3.794   1.570  0.5003  0.7082  3.9415
  134MOL    H3142857   2.948   3.762   1.747  1.0379 -0.0039  1.2274
  134MOL    H3242858   2.984   3.934   1.753  0.3733  0.7646 -0.1437
  134MOL    H3342859   3.099   3.819   1.684  0.1866 -0.3854  2.6691
  134MOL    C3442860   3.112   4.079   1.300  0.4687  0.8664  0.6235
  134MOL    C3542861   3.176   3.954   1.244 -0.5511  0.6991 -0.0036
  134MOL    O3642862   3.169   3.950   1.103 -0.0131 -0.4138  0.1097
  134MOL    C3742863   3.139   3.824   1.049 -0.0045 -0.0321 -0.6321
  134MOL    C3842864   2.991   3.801   1.051 -0.1434  0.1448 -0.1811
  134MOL    C3942865   3.179   3.829   0.899 -0.0856 -0.3611 -0.2349
  134MOL    H4042866   3.177   4.139   1.364  0.7654 -0.2478  1.3756
  134MOL    H4142867   3.085   4.150   1.221 -1.2599  2.0790  2.2701
  134MOL    H4242868   3.123   3.872   1.293  0.1233  0.7784  0.8761
  134MOL    H4342869   3.196   3.746   1.098  2.3854  1.6522 -0.6355
  134MOL    H4442870   2.962   3.756   1.146 -0.7266  1.5980  0.3416
  134MOL    H4542871   2.958   3.727   0.978 -0.5152  0.4653 -0.3413
  134MOL    H4642872   2.925   3.888   1.046 -1.0174 -0.3139  2.2470
  134MOL    H4742873   3.286   3.852   0.900 -0.0737 -0.3821 -0.9643
  134MOL    H4842874   3.160   3.729   0.859 -2.8676 -0.4743  1.2322
  134MOL    H4942875   3.134   3.902   0.833  2.1153  0.4489 -0.9038
  134MOL    C5042876   3.322   3.941   1.286 -0.0061  0.4774  0.8076
  134MOL    C5142877   3.351   3.887   1.428  0.3292 -0.4052 -0.5992
  134MOL    O5242878   3.493   3.877   1.450 -0.1623 -0.2537  0.8995
  134MOL    C5342879   3.545   3.907   1.579 -0.5280  0.0174 -0.1474
  134MOL    C5442880   3.588   4.046   1.589  0.0575 -0.1692 -0.2236
  134MOL    C5542881   3.658   3.802   1.613 -0.0814 -0.3542  0.0537
  134MOL    H5642882   3.389   3.885   1.222  1.5995  1.9246  1.1913
  134MOL    H5742883   3.374   4.036   1.284 -0.3487  0.7115  2.4242
  134MOL    H5842884   3.311   3.951   1.507  0.5604 -0.7289 -0.2209
  134MOL    H5942885   3.480   3.888   1.664  0.3011  0.8743  0.7094
  134MOL    H6042886   3.650   4.074   1.504 -0.8273  2.8044  0.0527
  134MOL    H6142887   3.643   4.065   1.682 -0.1271  2.5429 -0.6293
  134MOL    H6242888   3.508   4.119   1.579  1.0738  0.8247 -1.2372
  134MOL    H6342889   3.705   3.818   1.711 -2.5582  4.1984  0.6260
  134MOL    H6442890   3.739   3.815   1.542 -1.7744  1.5951 -1.5601
  134MOL    H6542891   3.629   3.697   1.618  1.0403 -0.6193  1.3060
  134MOL    C6642892   3.293   3.748   1.466  0.2618  0.3305 -0.2570
  134MOL    C6742893   3.307   3.624   1.379 -0.2310 -0.6676  0.5915
  134MOL    O6842894   3.224   3.521   1.431  0.4071 -0.5956 -0.5403
  134MOL    C6942895   3.096   3.518   1.373  1.0470 -0.5400  0.6150
  134MOL    C7042896   3.074   3.422   1.248 -0.2946  0.0274  0.0667
  134MOL    C7142897   2.996   3.477   1.475  0.3189 -0.3240 -0.4736
  134MOL    H7242898   3.318   3.719   1.569  0.9377 -0.1518 -0.5516
  134MOL    H7342899   3.185   3.752   1.475 -0.0667 -1.8003 -2.7432
  134MOL    H7442900   3.282   3.664   1.281  0.8756  0.9958  0.9688
  134MOL    H7542901   3.060   3.617   1.343  1.9458 -0.2357  0.5018
  134MOL    H7642902   2.978   3.443   1.202  0.1847  2.1409 -0.0305
  134MOL    H7742903   3.152   3.417   1.171  0.3183  0.7171  0.6288
  134MOL    H7842904   3.060   3.317   1.274 -0.6864  0.0192 -0.1854
  134MOL    H7942905   3.024   3.382   1.520 -1.0045  0.0198  1.1181
  134MOL    H8042906   2.902   3.475   1.421  0.4082  0.2771 -0.6603
  134MOL    H8142907   2.985   3.555   1.551 -0.7223  1.3847 -2.3408
  134MOL    C8242908   3.449   3.575   1.390 -0.9748  0.4680 -0.1165
  134MOL    C8342909   3.510   3.491   1.280 -0.6278 -0.5410  0.1370
  134MOL    O8442910   3.655   3.492   1.308  0.7011 -0.5981  0.0276
  134MOL    C8542911   3.736   3.548   1.218  0.3338 -0.2158  0.2596
  134MOL    C8642912   3.881   3.499   1.229  0.6179  0.6359 -0.0525
  134MOL    C8742913   3.719   3.702   1.195 -0.3117  0.6857 -0.5015
  134MOL    H8842914   3.516   3.661   1.388  1.1542 -1.1375 -0.2601
  134MOL    H8942915   3.460   3.534   1.490 -0.6507  0.9691  0.0539
  134MOL    H9042916   3.486   3.526   1.180 -0.0774  1.4370  0.6755
  134MOL    H9142917   3.716   3.494   1.125  1.1955 -0.6903  0.3481
  134MOL    H9242918   3.940   3.517   1.139  0.9323 -1.0813 -0.1972
  134MOL    H9342919   3.923   3.550   1.316 -0.0275  0.7707  0.1820
  134MOL    H9442920   3.872   3.391   1.241  0.8270  0.7884  1.5844
  134MOL    H9542921   3.733   3.752   1.291  1.8585  0.7483 -0.8191
  134MOL    H9642922   3.792   3.741   1.125 -1.9579  0.7634 -2.2058
  134MOL    H9742923   3.628   3.744   1.153 -0.5405  1.1469  0.4190
  134MOL    C9842924   3.466   3.341   1.289 -0.1375 -0.1048 -0.2853
  134MOL    C9942925   3.475   3.263   1.161 -0.4098  0.3848 -0.3819
  134MOL   O10042926   3.362   3.295   1.078 -0.1195  0.7328  0.1874
  134MOL   C10142927   3.378   3.303   0.938  0.1399  0.1117  0.1318
  134MOL   C10242928   3.459   3.424   0.897  0.6338 -0.9263  0.3599
  134MOL   C10342929   3.236   3.296   0.879 -0.1552  0.3642 -0.3331
  134MOL   H10442930   3.529   3.293   1.364  0.0528 -0.4066 -0.6381
  134MOL   H10542931   3.365   3.327   1.326 -0.2655  1.1602 -0.1364
  134MOL   H10642932   3.565   3.302   1.115  1.1087 -2.8150 -0.2954
  134MOL   H10742933   3.431   3.211   0.916 -0.0055  0.8757 -3.6917
  134MOL   H10842934   3.468   3.426   0.788 -1.4172  0.1852  0.1788
  134MOL   H10942935   3.559   3.432   0.938 -0.1662 -1.8682  2.6148
  134MOL   H11042936   3.401   3.513   0.922  2.7857  0.5519  0.1966
  134MOL   H11142937   3.182   3.207   0.911 -3.7882  2.6661  0.2384
  134MOL   H11242938   3.248   3.284   0.771  1.1537 -1.0264 -0.0366
  134MOL   H11342939   3.178   3.385   0.904 -0.6686 -0.1038  0.1438
  134MOL   C11442940   3.465   3.108   1.188  0.8471 -0.4262  0.2646
  134MOL   C11542941   3.588   3.029   1.246 -0.4495 -0.4994 -0.1184
  134MOL   O11642942   3.534   2.900   1.259 -0.3704  0.8698 -0.2275
  134MOL   C11742943   3.482   2.875   1.394 -0.2079 -0.2344 -0.1250
  134MOL   C11842944   3.572   2.789   1.472 -0.5292 -0.2284 -0.0860
  134MOL   C11942945   3.342   2.814   1.386  0.1115 -0.6893 -0.3345
  134MOL   H12042946   3.431   3.060   1.095 -1.3297 -0.0835  0.8508
  134MOL   H12142947   3.379   3.087   1.252  2.4413 -0.9779  2.2531
  134MOL   H12242948   3.612   3.079   1.340 -0.0891  1.5323 -1.2568
  134MOL   H12342949   3.472   2.971   1.444 -3.9981  1.1173 -3.1977
  134MOL   H12442950   3.670   2.834   1.484 -0.4466 -0.7434  1.2862
  134MOL   H12542951   3.591   2.698   1.415 -1.4065  0.7146 -1.9252
  134MOL   H12642952   3.528   2.769   1.570  0.0395 -1.8752 -0.1361
  134MOL   H12742953   3.294   2.822   1.483 -0.7182  1.2988 -0.8963
  134MOL   H12842954   3.364   2.714   1.348  1.3163 -0.2085 -0.9259
  134MOL   H12942955   3.292   2.867   1.304 -0.3898 -1.1322 -0.3240
  134MOL   C13042956   3.709   3.032   1.150  0.3895 -0.4396 -0.7116
  134MOL   C13142957   3.832   2.957   1.200  0.6142  0.2417  0.9330
  134MOL   O13242958   3.949   3.014   1.134  0.1012 -0.2710  0.2176
  134MOL   C13342959   4.022   3.114   1.201  0.9098 -0.0071  0.7249
  134MOL   C13442960   4.136   3.046   1.286 -0.0503 -0.1672 -0.2854
  134MOL   C13542961   4.076   3.219   1.106  0.4019 -0.1439 -0.1353
  134MOL   H13642962   3.733   3.138   1.161 -0.0314 -0.4471  0.3242
  134MOL   H13742963   3.688   3.015   1.044  0.5490  1.3588 -1.0498
  134MOL   H13842964   3.850   2.960   1.307 -0.2790  1.8094  1.0676
  134MOL   H13942965   3.960   3.169   1.272  0.6261 -2.2867  2.2938
  134MOL   H14042966   4.162   3.125   1.356 -1.0146 -1.0602  1.1118
  134MOL   H14142967   4.222   3.023   1.223 -0.2504 -1.4866 -0.1036
  134MOL   H14242968   4.106   2.961   1.347  2.3166 -2.4134 -2.1201
  134MOL   H14342969   3.993   3.271   1.058 -1.8642 -2.3028  1.3189
  134MOL   H14442970   4.128   3.293   1.167 -0.7461  1.8026 -1.4491
  134MOL   H14542971   4.143   3.184   1.027  0.5348  2.1912 -1.0940
  134MOL   C14642972   3.821   2.806   1.161  0.1961 -1.0847  0.4777
  134MOL   C14742973   3.926   2.707   1.227 -0.5053 -0.0202 -0.0382
  134MOL   O14842974   3.893   2.684   1.367 -0.5459  0.1144  0.4104
  134MOL   C14942975   4.004   2.666   1.461  0.2907 -0.2105 -0.2355
  134MOL   C15042976   4.010   2.522   1.516  0.2875 -1.1848 -0.7249
  134MOL   C15142977   3.987   2.759   1.584  0.7239  0.2638 -1.2487
  134MOL   H15242978   3.814   2.793   1.053 -1.8030 -0.2041  0.4905
  134MOL   H15342979   3.720   2.772   1.185 -0.0667 -0.7620 -0.1832
  134MOL   H15442980   4.019   2.760   1.208  0.4758 -2.0861 -1.1820
  134MOL   H15542981   4.103   2.693   1.423  0.4294 -0.2485  0.0966
  134MOL   H15642982   3.923   2.515   1.581  0.4959 -0.7581 -0.3946
  134MOL   H15742983   4.099   2.520   1.578 -0.9662 -0.8984  1.1227
  134MOL   H15842984   4.024   2.446   1.440  0.7315 -1.8301  0.0036
  134MOL   H15942985   4.085   2.767   1.633  0.4000 -1.8506 -0.2061
  134MOL   H16042986   3.907   2.721   1.647  0.6937  1.4713 -0.5393
  134MOL   H16142987   3.960   2.864   1.571 -2.5750 -0.7286 -2.7114
  134MOL   C16242988   3.940   2.563   1.164 -0.1766 -0.0532 -0.3471
  134MOL   C16342989   3.964   2.551   1.004  0.0274 -0.6581 -0.3954
  134MOL   O16442990   4.095   2.592   0.993 -0.8698 -0.1415 -0.7586
  134MOL   C16542991   4.136   2.670   0.884 -0.1334 -0.4997 -0.4749
  134MOL   C16642992   4.276   2.632   0.841 -0.3672 -0.0351 -0.3492
  134MOL   C16742993   4.125   2.819   0.900  0.5983 -0.0936  0.1281
  134MOL   H16842994   4.007   2.498   1.220 -1.0573 -1.2057 -0.6184
  134MOL   H16942995   3.841   2.521   1.180 -0.5322  1.4471  1.5405
  134MOL   H17042996   3.897   2.615   0.947 -2.2595 -1.5686  1.2144
  134MOL   H17142997   4.079   2.639   0.797 -1.0248  1.7519 -0.7475
  134MOL   H17242998   4.295   2.529   0.810 -0.2377 -0.2842  0.5626
  134MOL   H17342999   4.354   2.660   0.911 -2.3659  0.6821  1.6515
  134MOL   H17443000   4.299   2.682   0.747  0.6214  0.1036 -0.0347
  134MOL   H17543001   4.184   2.857   0.983 -0.1741  1.4411 -0.0062
  134MOL   H17643002   4.021   2.851   0.913  0.2422 -0.3560 -1.9124
  134MOL   H17743003   4.160   2.862   0.806 -0.2952 -3.1410 -1.6871
  134MOL   C17843004   3.954   2.413   0.942 -0.3676 -0.6654  0.4905
  134MOL   C17943005   3.808   2.371   0.913  0.0610  0.4485  0.1668
  134MOL   O18043006   3.757   2.456   0.812  0.4705 -0.9444 -0.1022
  134MOL   C18143007   3.619   2.490   0.824  0.1018  0.6489 -0.4222
  134MOL   C18243008   3.564   2.488   0.680  0.7581 -0.6527 -0.0468
  134MOL   C18343009   3.599   2.631   0.880 -0.6669 -0.0069 -0.4136
  134MOL   H18443010   4.005   2.340   1.005  1.4126 -1.7104 -2.0912
  134MOL   H18543011   4.007   2.417   0.847 -0.1270  0.2204  0.6593
  134MOL   H18643012   3.754   2.401   1.003  0.6346 -1.0589  1.0367
  134MOL   H18743013   3.562   2.419   0.883  0.9208  1.8229  1.8132
  134MOL   H18843014   3.607   2.559   0.610 -0.4261  2.2111  2.0309
  134MOL   H18943015   3.460   2.523   0.683  0.8738 -0.3552  0.4576
  134MOL   H19043016   3.561   2.392   0.628  1.9702 -0.7388  0.0327
  134MOL   H19143017   3.668   2.695   0.824  1.4192 -0.8348  1.1511
  134MOL   H19243018   3.634   2.630   0.983 -2.0757 -0.4999  0.0658
  134MOL   H19343019   3.500   2.677   0.876 -0.3925  0.6194 -0.0079
  134MOL   C19443020   3.780   2.221   0.882  0.7644  0.4815  0.1569
  134MOL   C19543021   3.759   2.145   1.015 -0.0462  0.3121 -0.2872
  134MOL   O19643022   3.774   2.007   0.989  0.7064  0.0968  0.3710
  134MOL   C19743023   3.881   1.931   1.053 -0.1642  0.5101 -0.8186
  134MOL   C19843024   3.852   1.782   1.078  0.5726 -0.5312  0.1099
  134MOL   C19943025   4.019   1.946   0.980  0.1245 -0.3851 -0.0258
  134MOL   H20043026   3.695   2.201   0.817  0.7632 -1.2762  0.6849
  134MOL   H20143027   3.865   2.175   0.832 -1.1793 -1.3762 -1.5638
  134MOL   H20243028   3.835   2.173   1.088  1.4828 -2.0684 -0.8952
  134MOL   H20343029   3.892   1.972   1.154  1.2414 -0.5463 -0.5419
  134MOL   H20443030   3.765   1.767   1.142  1.7392  1.0568  2.0990
  134MOL   H20543031   3.839   1.733   0.981  3.5196 -0.6105 -0.2801
  134MOL   H20643032   3.943   1.738   1.118 -0.8025 -3.3620  0.2553
  134MOL   H20743033   4.097   1.940   1.055 -0.5812  0.3746  0.7818
  134MOL   H20843034   4.033   1.878   0.896 -0.4446  1.6717 -1.8365
  134MOL   H20943035   4.022   2.045   0.935  1.0261 -0.1926  0.4563
  134MOL   C21043036   3.617   2.163   1.064 -0.1250 -0.1138  0.7248
  134MOL   C21143037   3.590   2.165   1.215 -0.0688 -0.1069  0.0185
  134MOL   O21243038   3.468   2.230   1.241 -0.5243  0.4180  0.2585
  134MOL   C21343039   3.449   2.371   1.242  0.5378 -0.4261  0.3918
  134MOL   C21443040   3.320   2.400   1.163  0.0598  0.0552  0.7608
  134MOL   C21543041   3.437   2.413   1.391  0.4491  0.5311  0.2910
  134MOL   H21643042   3.560   2.083   1.017  2.1792 -1.5881  0.3487
  134MOL   H21743043   3.572   2.257   1.030 -1.3389 -1.0131 -0.1952
  134MOL   H21843044   3.660   2.219   1.280 -0.0651 -1.4166  1.1228
  134MOL   H21943045   3.529   2.432   1.200  0.1112  0.3025  0.6317
  134MOL   H22043046   3.315   2.345   1.069  0.4460 -0.5653  1.0955
  134MOL   H22143047   3.314   2.507   1.144  1.7627 -0.0837 -0.5992
  134MOL   H22243048   3.231   2.367   1.217 -0.2264  0.1972  0.3725
  134MOL   H22343049   3.531   2.407   1.444  2.3392  2.2248 -2.7095
  134MOL   H22443050   3.372   2.348   1.450  0.0599 -0.9024 -1.6635
  134MOL   H22543051   3.399   2.515   1.396 -0.5489  0.0894  2.3517
  134MOL   C22643052   3.577   2.027   1.284 -0.1037 -0.3110 -0.4353
  134MOL   C22743053   3.581   2.034   1.443  0.1462  0.1795 -1.2172
  134MOL   O22843054   3.707   2.068   1.482 -0.3437 -0.4965  0.0581
  134MOL   C22943055   3.728   2.184   1.561 -0.2820 -0.6326  0.3216
  134MOL   C23043056   3.875   2.213   1.573 -0.9161 -0.2010  0.3289
  134MOL   C23143057   3.663   2.170   1.699 -0.3951  0.1183 -0.5010
  134MOL   H23243058   3.663   1.969   1.250 -2.2694 -3.4425 -0.7453
  134MOL   H23343059   3.487   1.988   1.238 -0.2744 -0.1684 -0.2268
  134MOL   H23443060   3.507   2.107   1.474 -1.0529 -1.7500  0.6422
  134MOL   H23543061   3.670   2.267   1.520  0.5613 -0.6085 -0.8288
  134MOL   H23643062   3.931   2.135   1.624 -0.9413 -0.1007  0.5084
  134MOL   H23743063   3.925   2.226   1.477 -1.4921 -1.9373 -0.2296
  134MOL   H23843064   3.892   2.301   1.635  0.1732  0.3349 -0.7079
  134MOL   H23943065   3.556   2.147   1.697 -0.5853  0.4256  2.9893
  134MOL   H24043066   3.675   2.259   1.762 -1.1707 -0.5329  0.5844
  134MOL   H24143067   3.709   2.092   1.758  0.9141  1.3205  0.1037
  134MOL   C24243068   3.561   1.905   1.517  0.0576 -0.3719 -0.0718
  134MOL   C24343069   3.408   1.857   1.524 -0.0603  0.4080  0.0722
  134MOL   O24443070   3.354   1.925   1.640  0.4123  0.3111 -0.0144
  134MOL   C24543071   3.238   2.002   1.595 -0.1981 -0.6139  0.6073
  134MOL   C24643072   3.108   1.921   1.565  0.7398  0.1826 -0.4430
  134MOL   C24743073   3.217   2.121   1.689  0.0604 -0.5592 -0.0421
  134MOL   H24843074   3.621   1.837   1.457  1.3238  0.9036 -0.2737
  134MOL   H24943075   3.606   1.906   1.617  0.8181 -1.2343 -0.3980
  134MOL   H25043076   3.356   1.869   1.429 -0.3894  0.4760  0.2579
  134MOL   H25143077   3.279   2.049   1.506  1.0021  0.4783  1.7146
  134MOL   H25243078   3.113   1.829   1.507 -1.9665  0.0412 -0.4788
  134MOL   H25343079   3.054   1.905   1.658 -2.1074 -1.0863 -2.2372
  134MOL   H25443080   3.045   1.987   1.506 -1.4501 -1.1035  0.4164
  134MOL   H25543081   3.312   2.172   1.701  0.7388 -0.7718 -3.9832
  134MOL   H25643082   3.145   2.200   1.668 -1.1388 -1.4076  0.8290
  134MOL   H25743083   3.176   2.090   1.785 -1.6993  1.5108 -0.0762
  134MOL   C25843084   3.414   1.703   1.551  0.0215 -0.3623  0.0241
  134MOL   C25943085   3.454   1.601   1.434  0.1929  0.0167 -1.1658
  134MOL   O26043086   3.341   1.575   1.355  0.3169 -0.1377 -0.1733
  134MOL   C26143087   3.358   1.620   1.218  0.2800 -0.5918  0.2043
  134MOL   C26243088   3.461   1.532   1.148  0.2618 -0.1905  0.5782
  134MOL   C26343089   3.219   1.610   1.148  0.5724  0.2826 -0.7152
  134MOL   H26443090   3.476   1.684   1.638  0.2506 -0.6619 -0.2017
  134MOL   H26543091   3.314   1.678   1.586  0.3935  1.8129  2.7875
  134MOL   H26643092   3.537   1.647   1.381  0.8582 -0.7814 -0.8282
  134MOL   H26743093   3.402   1.720   1.214 -0.1270 -0.4318 -0.4686
  134MOL   H26843094   3.441   1.425   1.153 -0.8519 -0.0027  0.2013
  134MOL   H26943095   3.558   1.552   1.193  0.7210 -0.9547 -0.0646
  134MOL   H27043096   3.472   1.564   1.045 -0.9784  1.5189  0.9553
  134MOL   H27143097   3.164   1.697   1.184  0.0524  0.9150 -2.9786
  134MOL   H27243098   3.221   1.609   1.039 -0.0201  0.3201 -0.7285
  134MOL   H27343099   3.157   1.525   1.175  2.1484 -0.2749  1.2424
  134MOL   C27443100   3.484   1.462   1.492 -0.3483 -0.1654 -0.0471
  134MOL   C27543101   3.631   1.422   1.512  0.4743 -0.0366  0.4988
  134MOL   O27643102   3.687   1.443   1.377  0.7541  0.1638 -0.5467
  134MOL   C27743103   3.818   1.392   1.348 -0.1849 -0.5429 -0.7995
  134MOL   C27843104   3.900   1.514   1.297 -0.3499  0.2549 -0.1921
  134MOL   C27943105   3.787   1.290   1.237 -0.0012 -0.3521 -0.5261
  134MOL   H28043106   3.431   1.442   1.585  0.4068 -0.1499  0.3914
  134MOL   H28143107   3.430   1.392   1.429 -2.0895  1.0993  0.0131
  134MOL   H28243108   3.643   1.315   1.527  1.0119  0.2916  2.6071
  134MOL   H28343109   3.876   1.358   1.433 -1.0232 -0.5717 -0.2399
  134MOL   H28443110   3.859   1.546   1.201 -1.0176 -0.2179 -0.0700
  134MOL   H28543111   3.889   1.603   1.359  0.9671  0.3790 -0.1206
  134MOL   H28643112   4.007   1.500   1.278 -0.4029 -1.1640  0.4891
  134MOL   H28743113   3.751   1.346   1.152  0.9276  0.7251 -0.2212
  134MOL   H28843114   3.703   1.232   1.276 -0.9981  2.1759  1.2027
  134MOL   H28943115   3.873   1.228   1.209  0.4496 -1.1056  2.2801
  134MOL   C29043116   3.697   1.496   1.636 -0.5219  0.5585 -0.3820
  134MOL   C29143117   3.649   1.442   1.774 -0.4019  0.5886  0.2372
  134MOL   O29243118   3.723   1.317   1.775  0.1312 -0.0132 -0.4209
  134MOL   C29343119   3.647   1.200   1.796 -0.2656 -0.0774 -0.7036
  134MOL   C29443120   3.627   1.185   1.943  0.8153 -0.5246 -0.7424
  134MOL   C29543121   3.735   1.084   1.739 -0.0750  0.3870 -0.6361
  134MOL   H29643122   3.669   1.601   1.632  1.3225  1.2579  2.8094
  134MOL   H29743123   3.806   1.497   1.624 -0.5347  0.4886 -0.5056
  134MOL   H29843124   3.541   1.429   1.778 -0.6225  1.2833 -2.2554
  134MOL   H29943125   3.551   1.222   1.749 -0.1302  0.2587 -0.8276
  134MOL   H30043126   3.558   1.257   1.988  0.8324 -0.3684 -0.9645
  134MOL   H30143127   3.576   1.092   1.970  0.3500 -0.3604 -1.0455
  134MOL   H30243128   3.722   1.184   1.995  1.7049 -0.6758 -2.3534
  134MOL   H30343129   3.820   1.047   1.796  0.9185  3.1904 -0.2470
  134MOL   H30443130   3.673   0.999   1.708 -0.9101  0.9343 -0.4801
  134MOL   H30543131   3.778   1.118   1.645 -0.6875  2.6143 -0.1312
  134MOL   C30643132   3.710   1.520   1.884  0.7240 -0.0657  0.0811
  134MOL   C30743133   3.675   1.665   1.894 -0.6855  0.9580 -0.0713
  134MOL   O30843134   3.535   1.676   1.929 -0.0001 -0.1283 -0.0756
  134MOL   C30943135   3.494   1.816   1.925  0.5640 -0.8238 -0.2683
  134MOL   C31043136   3.342   1.826   1.932  0.2730 -0.0902  0.0300
  134MOL   C31143137   3.554   1.885   2.048 -0.6051 -0.7223 -0.1127
  134MOL   H31243138   3.819   1.511   1.884  0.6470 -1.4321  1.8612
  134MOL   H31343139   3.697   1.478   1.984  1.4657  0.3279  0.3469
  134MOL   H31443140   3.744   1.710   1.965 -0.1746 -0.4637  0.3446
  134MOL   H31543141   3.522   1.853   1.826 -0.9644 -1.3176 -0.9129
  134MOL   H31643142   3.313   1.780   2.027 -1.8924 -2.4165 -1.7022
  134MOL   H31743143   3.295   1.769   1.852  1.0149  0.2583 -0.6649
  134MOL   H31843144   3.308   1.929   1.940  1.2174  0.1545  1.0660
  134MOL   H31943145   3.487   1.969   2.065  1.0004  0.0230  2.9120
  134MOL   H32043146   3.651   1.934   2.039 -0.9465  0.1934  1.0202
  134MOL   H32143147   3.534   1.821   2.134 -0.4083 -2.3196 -1.2324
  134MOL   H32243148   3.701   1.720   1.804  2.1585 -1.0614 -0.5593
  135MOL     C143149   6.526   0.048   1.909  0.1015  0.4632  0.5000
  135MOL     C243150   6.475   0.098   2.045 -0.5340 -0.2793 -0.0114
  135MOL     O343151   6.528   0.229   2.056 -0.7661  0.0177 -0.1983
  135MOL     C443152   6.662   0.234   2.102 -0.2815  0.4182  0.1068
  135MOL     C543153   6.642   0.241   2.257 -0.2014 -0.5847  0.3442
  135MOL     C643154   6.725   0.360   2.051  0.7166 -0.1676  0.0378
  135MOL     H743155   6.635   0.042   1.897  0.4666  0.5049  3.4093
  135MOL     H843156   6.499   7.764   1.898 -1.2424  0.9433 -1.0201
  135MOL     H943157   6.516   0.025   2.115 -0.4525  1.5748  1.9489
  135MOL    H1043158   6.720   0.145   2.078  1.1671  1.3698  0.0386
  135MOL    H1143159   6.574   0.317   2.295 -0.1757 -1.0413  1.3391
  135MOL    H1243160   6.592   0.148   2.285  0.6946 -0.4973  2.3153
  135MOL    H1343161   6.742   0.239   2.302 -0.3283 -1.5441  0.6042
  135MOL    H1443162   6.712   0.371   1.944 -0.3913 -2.3790 -0.0758
  135MOL    H1543163   6.673   0.446   2.094  1.2528 -0.1887  0.7502
  135MOL    H1643164   6.833   0.366   2.068  0.5787 -1.1271  1.3168
  135MOL    H1743165   6.485   0.113   1.831  0.8702  0.8696  0.4235
  135MOL    C1843166   6.323   0.106   2.049 -0.0634  0.1086  0.5625
  135MOL    C1943167   6.249   7.802   2.012  0.5932  0.4456 -0.8086
  135MOL    O2043168   6.115   0.029   2.020 -0.5687 -0.4714  0.2036
  135MOL    C2143169   6.036   0.031   1.896  0.0549  0.2733  0.1134
  135MOL    C2243170   6.104   0.114   1.786  0.6489  0.2063 -0.1450
  135MOL    C2343171   5.898   0.083   1.934  0.6381 -0.7236  0.1975
  135MOL    H2443172   6.292   0.139   2.148  0.4166  1.7998  0.1653
  135MOL    H2543173   6.288   0.188   1.985 -0.1000  0.1254  0.6036
  135MOL    H2643174   6.277   7.760   1.915 -0.8989 -0.5671 -0.8320
  135MOL    H2743175   6.037   7.746   1.865 -1.3320  0.2224  0.2522
  135MOL    H2843176   6.060   0.112   1.686 -1.7767  2.7727  0.8096
  135MOL    H2943177   6.108   0.217   1.820  0.1381 -0.1390  0.9971
  135MOL    H3043178   6.211   0.094   1.786  0.3223 -1.5792  1.0053
  135MOL    H3143179   5.817   0.066   1.864  1.1159 -0.4175 -0.4375
  135MOL    H3243180   5.893   0.189   1.959  0.3175 -1.1912  2.2366
  135MOL    H3343181   5.883   0.053   2.038  0.5257 -2.2747 -0.2598
  135MOL    C3443182   6.268   7.681   2.115  0.6227 -0.3118 -0.0646
  135MOL    C3543183   6.272   7.532   2.055  0.5545 -0.4633  0.7209
  135MOL    O3643184   6.390   7.525   1.985 -1.0645  0.0208 -0.4463
  135MOL    C3743185   6.404   7.433   1.875  0.1123  0.1989  1.0076
  135MOL    C3843186   6.297   7.455   1.759  0.3902 -0.3145 -0.4075
  135MOL    C3943187   6.554   7.429   1.826  0.1234 -0.3746 -0.4612
  135MOL    H4043188   6.192   7.696   2.192  2.4013 -0.8989  1.8364
  135MOL    H4143189   6.354   7.701   2.178 -0.5864 -1.4872  2.0216
  135MOL    H4243190   6.185   7.524   1.990  0.7869  3.0946 -0.1065
  135MOL    H4343191   6.389   7.335   1.919 -1.5170  0.6519  1.5174
  135MOL    H4443192   6.280   7.562   1.748 -2.7899 -0.5500  1.5520
  135MOL    H4543193   6.205   7.404   1.788  0.3458  0.9750  1.9189
  135MOL    H4643194   6.348   7.420   1.670  0.5087 -0.9553 -0.0934
  135MOL    H4743195   6.621   7.408   1.909  2.0652 -0.6588 -2.0590
  135MOL    H4843196   6.578   7.365   1.741 -0.9038 -1.4556  0.0536
  135MOL    H4943197   6.582   7.527   1.788 -1.1937 -0.6760 -2.2692
  135MOL    C5043198   6.273   7.421   2.161 -0.2235 -0.4707  0.3494
  135MOL    C5143199   6.142   7.402   2.244  1.2694  1.5916  0.2019
  135MOL    O5243200   6.170   7.337   2.370  0.0322  0.3631  0.2417
  135MOL    C5343201   6.220   7.420   2.467 -0.0583 -0.5655 -0.5151
  135MOL    C5443202   6.323   7.353   2.564 -0.2260  0.7037  0.8460
  135MOL    C5543203   6.094   7.486   2.534 -0.0637 -0.4063 -0.0463
  135MOL    H5643204   6.302   7.324   2.119  0.0917 -0.5334  0.7142
  135MOL    H5743205   6.353   7.437   2.233 -0.8860 -3.9744  1.9823
  135MOL    H5843206   6.097   7.499   2.266  0.7510  0.9868  1.8703
  135MOL    H5943207   6.276   7.503   2.424 -1.9621  2.0211  1.8313
  135MOL    H6043208   6.365   7.411   2.647  1.3586  2.9740 -1.4621
  135MOL    H6143209   6.406   7.331   2.497 -0.4696 -0.5875  0.9700
  135MOL    H6243210   6.287   7.258   2.603 -0.1781  0.2402 -0.2320
  135MOL    H6343211   6.061   7.430   2.622  1.8836  1.1663  1.7499
  135MOL    H6443212   6.011   7.478   2.464  1.5256  1.6302 -2.2149
  135MOL    H6543213   6.108   7.593   2.547 -2.6672 -0.0124 -0.2265
  135MOL    C6643214   6.041   7.305   2.174  0.0778  0.4210  0.3635
  135MOL    C6743215   5.895   7.300   2.219  0.3713  0.7015 -0.2361
  135MOL    O6843216   5.821   7.202   2.146 -0.5126  0.5304 -0.1080
  135MOL    C6943217   5.797   7.078   2.216 -0.0711  0.5717 -0.7519
  135MOL    C7043218   5.672   7.090   2.307  0.3551  0.0617  0.0191
  135MOL    C7143219   5.772   6.970   2.107  0.3596 -0.3809  0.0349
  135MOL    H7243220   6.024   7.335   2.070 -0.4313 -1.4066 -0.1014
  135MOL    H7343221   6.076   7.201   2.170  0.7891  0.6708 -0.0767
  135MOL    H7443222   5.893   7.265   2.322 -0.1113  1.9731  0.1913
  135MOL    H7543223   5.882   7.058   2.282 -0.9692  0.5330  0.4134
  135MOL    H7643224   5.639   6.991   2.336 -1.6158  1.0332  1.2242
  135MOL    H7743225   5.679   7.154   2.396 -1.0217  1.5115 -0.8899
  135MOL    H7843226   5.586   7.134   2.258 -0.3187 -1.0798  0.1767
  135MOL    H7943227   5.691   6.982   2.036 -1.8137  0.1012  2.4973
  135MOL    H8043228   5.764   6.872   2.154  1.2236 -1.6739 -2.4312
  135MOL    H8143229   5.857   6.950   2.043  0.0324 -1.0974 -0.1774
  135MOL    C8243230   5.822   7.435   2.208  0.5919 -0.1316  0.0414
  135MOL    C8343231   5.678   7.445   2.258  0.0674  0.4599 -0.6699
  135MOL    O8443232   5.651   7.574   2.310 -0.1360 -0.2302  0.0919
  135MOL    C8543233   5.634   7.600   2.448 -0.7164  0.4113  0.1121
  135MOL    C8643234   5.603   7.746   2.472  1.2403  0.2659  0.1095
  135MOL    C8743235   5.766   7.565   2.516  0.0044  0.6813  0.3209
  135MOL    H8843236   5.878   7.510   2.265 -2.2711  1.4160  0.9371
  135MOL    H8943237   5.829   7.469   2.105  0.7638 -0.1880  0.0337
  135MOL    H9043238   5.667   7.368   2.335 -0.2852  2.2033  1.0456
  135MOL    H9143239   5.560   7.532   2.491  0.0075  0.6014  1.7055
  135MOL    H9243240   5.613   7.775   2.577 -0.6541  2.5864 -0.3224
  135MOL    H9343241   5.656   7.810   2.402 -0.9568  1.4365 -0.5399
  135MOL    H9443242   5.497   7.762   2.452  1.8897  0.7494 -3.1743
  135MOL    H9543243   5.776   7.593   2.621  0.1960  0.4741  0.3591
  135MOL    H9643244   5.786   7.458   2.516  0.5942  0.7867  0.6914
  135MOL    H9743245   5.854   7.610   2.471  0.9553  0.2664  1.7033
  135MOL    C9843246   5.575   7.432   2.140  0.2299 -0.5019  0.2140
  135MOL    C9943247   5.429   7.422   2.182 -0.4116 -0.9389 -0.3195
  135MOL   O10043248   5.421   7.307   2.267 -0.2473  0.2352  0.5686
  135MOL   C10143249   5.306   7.287   2.343 -0.7389  0.1680 -0.0202
  135MOL   C10243250   5.336   7.298   2.499  0.0171 -0.2526 -0.1804
  135MOL   C10343251   5.246   7.149   2.302  0.0129  0.1498  0.1201
  135MOL   H10443252   5.594   7.520   2.078 -0.9651 -0.1969  0.2583
  135MOL   H10543253   5.594   7.344   2.080  0.1692  0.4338 -1.2058
  135MOL   H10643254   5.406   7.505   2.249  1.8351 -0.3195 -0.2835
  135MOL   H10743255   5.235   7.368   2.326 -0.2396  0.5334 -0.3913
  135MOL   H10843256   5.248   7.285   2.562 -0.3490 -0.7254 -0.7846
  135MOL   H10943257   5.367   7.402   2.512 -1.6304  0.2271 -0.0207
  135MOL   H11043258   5.416   7.228   2.520 -1.2554 -2.9607 -3.8132
  135MOL   H11143259   5.314   7.071   2.336  0.1303  1.7400  3.8743
  135MOL   H11243260   5.214   7.134   2.199 -4.2512 -0.5637  1.4266
  135MOL   H11343261   5.155   7.130   2.360 -0.7097  0.7884 -0.7843
  135MOL   C11443262   5.343   7.416   2.057 -0.0971 -0.1406  0.1324
  135MOL   C11543263   5.314   7.553   1.993  0.0087 -0.5922  0.4128
  135MOL   O11643264   5.254   7.515   1.868 -0.5222 -0.1945  0.1201
  135MOL   C11743265   5.322   7.548   1.750  0.5022  0.5676 -0.2353
  135MOL   C11843266   5.208   7.575   1.649  0.0420  0.9125 -0.1512
  135MOL   C11943267   5.430   7.452   1.706  0.5268 -0.1219  0.0370
  135MOL   H12043268   5.251   7.366   2.085 -0.4397 -0.9571 -2.3331
  135MOL   H12143269   5.378   7.345   1.983 -0.9638 -0.3294 -0.1002
  135MOL   H12243270   5.407   7.609   1.982  1.2630 -2.5358  0.9008
  135MOL   H12343271   5.372   7.643   1.769  0.2592 -0.0196  3.8268
  135MOL   H12443272   5.153   7.660   1.687  2.5402  2.4680  0.1190
  135MOL   H12543273   5.142   7.494   1.619  0.0392  1.1078 -0.6874
  135MOL   H12643274   5.259   7.607   1.558  0.0872 -0.3409 -0.5843
  135MOL   H12743275   5.486   7.422   1.795  0.8304  0.7953  0.1548
  135MOL   H12843276   5.503   7.489   1.634  3.0488 -0.5351  2.2814
  135MOL   H12943277   5.383   7.374   1.646 -1.9510  0.0979  1.6286
  135MOL   C13043278   5.213   7.645   2.069  0.3376  0.5039 -0.7045
  135MOL   C13143279   5.219   7.797   2.040  0.0620 -1.0554 -0.2629
  135MOL   O13243280   5.347   0.013   2.083 -0.2457 -0.1143  0.2096
  135MOL   C13343281   5.403   0.139   2.057 -0.5840  0.4500 -0.0663
  135MOL   C13443282   5.432   0.199   2.199 -0.3173 -0.3043  1.0222
  135MOL   C13543283   5.526   0.120   1.966  0.0633  0.1231  0.0893
  135MOL   H13643284   5.234   7.638   2.176 -0.2810  1.3423 -0.5179
  135MOL   H13743285   5.114   7.600   2.063  1.1985 -1.3726 -1.1352
  135MOL   H13843286   5.212   7.807   1.932 -0.5489  1.6014 -0.0117
  135MOL   H13943287   5.328   0.199   2.004 -0.9861 -0.8065 -0.9518
  135MOL   H14043288   5.347   0.193   2.267  0.7152  0.3720  2.4029
  135MOL   H14143289   5.459   0.304   2.184 -0.7454 -0.3543 -0.1688
  135MOL   H14243290   5.511   0.142   2.248 -0.2819 -1.2321 -0.1000
  135MOL   H14343291   5.590   0.044   2.011  1.6986  1.7587  0.5802
  135MOL   H14443292   5.499   0.101   1.862  2.0481 -0.4398 -0.3487
  135MOL   H14543293   5.588   0.210   1.963 -0.1240  0.2408 -0.2188
  135MOL   C14643294   5.106   0.058   2.104 -0.5643 -0.5041  0.1022
  135MOL   C14743295   4.983   0.084   2.015 -0.4763  0.6198  0.2903
  135MOL   O14843296   4.889   0.162   2.083  0.1583  0.1994  0.1431
  135MOL   C14943297   4.754   0.114   2.052 -0.0382  0.5701  0.0122
  135MOL   C15043298   4.661   0.232   2.071 -0.5268  0.1427  0.1785
  135MOL   C15143299   4.725   0.013   2.162 -0.0086 -0.0359  0.5631
  135MOL   H15243300   5.147   0.155   2.129 -0.5267 -0.0735 -1.5758
  135MOL   H15343301   5.077   7.817   2.189  0.1815 -2.1878 -0.8268
  135MOL   H15443302   4.947   7.806   1.986  0.4352  0.9635 -2.2132
  135MOL   H15543303   4.736   0.080   1.950  2.4669  2.8968 -1.2646
  135MOL   H15643304   4.563   0.215   2.026 -1.2652  0.0379  1.7836
  135MOL   H15743305   4.700   0.322   2.023 -2.3971  0.1050 -1.4860
  135MOL   H15843306   4.640   0.255   2.175 -0.0175  1.1164  0.0682
  135MOL   H15943307   4.775   7.738   2.143 -0.4185  0.6650 -4.5900
  135MOL   H16043308   4.621   7.802   2.168 -0.4981  1.6419  0.9048
  135MOL   H16143309   4.752   0.054   2.259  2.1245  1.2239 -0.5280
  135MOL   C16243310   5.018   0.159   1.891 -0.8473  0.1008 -0.9919
  135MOL   C16343311   5.018   0.317   1.902 -0.2476  0.6076  0.3870
  135MOL   O16443312   5.120   0.362   1.988 -0.4049  0.1326  0.0306
  135MOL   C16543313   5.094   0.477   2.058  0.0273  0.8470  0.1708
  135MOL   C16643314   5.227   0.548   2.074  0.3340  0.0714 -0.3296
  135MOL   C16743315   5.037   0.441   2.192  0.2580 -0.0826 -0.2446
  135MOL   H16843316   5.115   0.129   1.851 -0.4696  0.7872 -0.6079
  135MOL   H16943317   4.943   0.130   1.818 -2.8870 -0.6452  1.3360
  135MOL   H17043318   4.918   0.351   1.931  0.2900  1.7226  0.9602
  135MOL   H17143319   5.031   0.553   2.013  0.8432  1.7661  0.5426
  135MOL   H17243320   5.218   0.651   2.108 -0.7948  1.3815 -4.4024
  135MOL   H17343321   5.282   0.540   1.981 -0.9937  0.3593 -1.1450
  135MOL   H17443322   5.285   0.503   2.155  1.4258  2.9163  0.4977
  135MOL   H17543323   5.100   0.376   2.253 -1.4307 -0.8583  0.7187
  135MOL   H17643324   4.942   0.390   2.175  1.5086 -2.5814 -0.0242
  135MOL   H17743325   5.016   0.533   2.246 -0.0686  0.6707 -1.6244
  135MOL   C17843326   5.049   0.381   1.762  0.4815  0.0441 -0.3130
  135MOL   C17943327   4.946   0.355   1.651  0.2312  0.9072  1.0181
  135MOL   O18043328   4.823   0.403   1.687  0.0248  0.1708  0.2454
  135MOL   C18143329   4.704   0.352   1.624  0.0710  0.2072 -0.0064
  135MOL   C18243330   4.621   0.470   1.573  0.2474 -0.4142  0.3830
  135MOL   C18343331   4.632   0.264   1.723 -0.6766  0.2829  0.2232
  135MOL   H18443332   5.152   0.351   1.742  0.7536  1.0912 -0.5526
  135MOL   H18543333   5.059   0.490   1.771  0.5135 -0.0659  1.1555
  135MOL   H18643334   4.944   0.248   1.630  3.8012  1.1672 -1.0193
  135MOL   H18743335   4.730   0.298   1.533 -1.5256 -0.1151 -0.2720
  135MOL   H18843336   4.531   0.440   1.520 -0.7821  2.1039  0.6524
  135MOL   H18943337   4.672   0.542   1.510  0.8072  0.5962  1.9739
  135MOL   H19043338   4.586   0.527   1.659 -2.4549 -1.6671  0.1740
  135MOL   H19143339   4.545   0.216   1.678  1.1549 -2.1597 -0.8604
  135MOL   H19243340   4.606   0.311   1.818  0.5102  0.1096  0.6394
  135MOL   H19343341   4.706   0.185   1.738 -0.3105  0.2556 -1.5810
  135MOL   C19443342   4.990   0.436   1.531  0.7397 -1.1238 -0.5559
  135MOL   C19543343   5.091   0.360   1.442 -0.3569 -0.0267 -1.1798
  135MOL   O19643344   5.220   0.366   1.505  0.0840 -0.2700 -0.5305
  135MOL   C19743345   5.320   0.266   1.488 -0.4269  0.5983 -0.4009
  135MOL   C19843346   5.444   0.307   1.571 -0.0688 -0.1603 -0.2376
  135MOL   C19943347   5.281   0.124   1.534  0.3295  0.3607  0.5475
  135MOL   H20043348   4.905   0.459   1.467 -0.4964 -1.8130  0.8200
  135MOL   H20143349   5.030   0.532   1.563  2.1271 -1.6011 -0.8273
  135MOL   H20243350   5.058   0.258   1.424 -0.1808  0.0091 -1.7246
  135MOL   H20343351   5.362   0.265   1.387  2.2625 -0.5341  0.6893
  135MOL   H20443352   5.421   0.296   1.677  0.8482  1.1302  0.1074
  135MOL   H20543353   5.533   0.246   1.558  0.0973 -0.3900  1.7430
  135MOL   H20643354   5.459   0.415   1.569  0.1662 -0.1793  0.4256
  135MOL   H20743355   5.198   0.086   1.473  0.0344  2.5583 -0.5141
  135MOL   H20843356   5.368   0.060   1.524  1.0606  1.6200 -1.6045
  135MOL   H20943357   5.259   0.109   1.639 -0.9729 -3.2529 -0.1464
  135MOL   C21043358   5.112   0.427   1.303 -0.5699  0.6927  0.3412
  135MOL   C21143359   5.000   0.408   1.194 -0.6773  1.2475 -0.2068
  135MOL   O21243360   5.030   0.481   1.073  0.0503 -0.1480 -0.3331
  135MOL   C21343361   5.020   0.619   1.069 -0.1437  0.2752 -0.0567
  135MOL   C21443362   5.143   0.657   0.984  0.0830  0.6912  0.2323
  135MOL   C21543363   4.895   0.670   1.004 -0.4324 -0.3318  0.6410
  135MOL   H21643364   5.212   0.408   1.262  0.6396 -0.7333  3.7851
  135MOL   H21743365   5.106   0.533   1.323 -1.7712  0.3135  2.0625
  135MOL   H21843366   4.902   0.437   1.232 -1.8331 -2.6292 -0.0091
  135MOL   H21943367   5.036   0.668   1.166 -0.0639  0.7227 -0.2954
  135MOL   H22043368   5.223   0.605   1.037  0.2768  0.8438  0.0877
  135MOL   H22143369   5.154   0.764   0.966  0.0061  0.5456 -0.7050
  135MOL   H22243370   5.135   0.610   0.886 -0.0601  0.7352  0.2229
  135MOL   H22343371   4.880   0.778   1.018 -0.5034 -0.8006  4.8322
  135MOL   H22443372   4.808   0.629   1.054 -0.3047 -0.0844  1.0678
  135MOL   H22543373   4.883   0.640   0.900 -0.7511 -2.2629  1.2277
  135MOL   C22643374   5.000   0.265   1.132  0.5944 -0.3712  0.4566
  135MOL   C22743375   4.873   0.232   1.049  0.4233 -0.4368 -0.0113
  135MOL   O22843376   4.779   0.192   1.156  0.6772 -0.0777 -0.3476
  135MOL   C22943377   4.639   0.219   1.133 -0.4513 -0.5185 -0.3115
  135MOL   C23043378   4.576   0.353   1.193  0.4801 -0.0893  0.1287
  135MOL   C23143379   4.548   0.100   1.163  0.4023 -0.5780  0.3757
  135MOL   H23243380   5.006   0.191   1.212 -2.9191  1.0982  2.2016
  135MOL   H23343381   5.085   0.235   1.071 -1.7895 -1.1650 -2.5943
  135MOL   H23443382   4.831   0.318   0.998  3.9780  0.6874 -1.2125
  135MOL   H23543383   4.631   0.227   1.025 -0.2475 -2.8839 -0.5425
  135MOL   H23643384   4.544   0.359   1.297 -0.1936  0.1932 -0.0926
  135MOL   H23743385   4.647   0.436   1.186  0.0257  0.0479 -3.6337
  135MOL   H23843386   4.491   0.389   1.136 -0.4059 -2.4619 -0.0694
  135MOL   H23943387   4.442   0.122   1.150  0.4778  0.2344  1.1755
  135MOL   H24043388   4.561   0.073   1.267 -0.0948 -0.3713  0.4921
  135MOL   H24143389   4.566   0.009   1.104 -0.7984 -0.4963 -0.1259
  135MOL   C24243390   4.890   0.115   0.950  0.2614  0.3031 -0.7290
  135MOL   C24343391   4.968   0.149   0.820  1.0991 -0.1468  0.2214
  135MOL   O24443392   4.886   0.246   0.755  0.1395  0.5892  0.9229
  135MOL   C24543393   4.949   0.317   0.653  0.4970  0.3345  0.0876
  135MOL   C24643394   4.834   0.364   0.564  0.4786 -0.4768 -0.1699
  135MOL   C24743395   5.035   0.428   0.711  0.8307 -0.0540 -0.2178
  135MOL   H24843396   4.939   0.031   0.999  1.3069  1.1607 -0.2884
  135MOL   H24943397   4.796   0.072   0.916  0.2973  0.4451 -1.0006
  135MOL   H25043398   5.063   0.193   0.853  0.2635  1.3516  0.6877
  135MOL   H25143399   5.018   0.253   0.599 -1.3951 -1.1004 -0.6895
  135MOL   H25243400   4.765   0.282   0.543  2.9309 -2.7438  0.2454
  135MOL   H25343401   4.779   0.449   0.603  1.1093  1.3156 -3.0057
  135MOL   H25443402   4.873   0.386   0.465  0.7405  2.7313  0.5882
  135MOL   H25543403   5.062   0.515   0.651  0.1810  1.1792  1.2671
  135MOL   H25643404   4.977   0.463   0.796  1.0328 -2.0419  0.7642
  135MOL   H25743405   5.131   0.393   0.750  0.3074  1.2664  2.3301
  135MOL   C25843406   5.000   0.024   0.733  0.5673 -0.1063  0.7364
  135MOL   C25943407   5.142   7.795   0.741  0.3810  0.1980 -0.2809
  135MOL   O26043408   5.164   7.702   0.634  0.1897 -0.2700  0.2616
  135MOL   C26143409   5.254   7.728   0.526 -0.2548  0.4657 -0.1017
  135MOL   C26243410   5.248   7.595   0.450  0.3425 -0.0252  0.0776
  135MOL   C26343411   5.190   0.014   0.433 -0.5570 -0.5280 -0.4336
  135MOL   H26443412   4.935   7.771   0.781  2.2734  0.6275  4.3848
  135MOL   H26543413   4.980   0.046   0.629 -1.7878 -0.0323  1.1726
  135MOL   H26643414   5.209   0.055   0.710  0.5481 -0.2947 -1.2182
  135MOL   H26743415   5.354   7.737   0.569 -0.1816  1.7616 -0.5279
  135MOL   H26843416   5.144   7.565   0.435  0.0612  0.3619  1.2446
  135MOL   H26943417   5.315   7.525   0.500  0.6201  1.2951  1.5825
  135MOL   H27043418   5.290   7.605   0.350  0.2466  0.9667  0.1378
  135MOL   H27143419   5.238   0.033   0.337 -2.6736  4.4272 -0.6815
  135MOL   H27243420   5.086   7.818   0.403 -1.2609 -0.0565  1.6193
  135MOL   H27343421   5.200   0.113   0.478 -0.2241 -0.2611 -1.0899
  135MOL   C27443422   5.180   7.718   0.867  0.1448  0.0489 -0.7740
  135MOL   C27543423   5.321   7.752   0.915 -0.1748  0.2012  0.6060
  135MOL   O27643424   5.311   0.057   0.980  0.1212  0.3546 -0.3560
  135MOL   C27743425   5.427   0.138   0.974  0.3533  0.4484  0.5660
  135MOL   C27843426   5.441   0.230   1.090  0.3109  0.2014  0.8592
  135MOL   C27943427   5.422   0.227   0.844  0.4042 -0.2421 -0.5505
  135MOL   H28043428   5.111   7.732   0.950  2.2699  1.9180  0.7299
  135MOL   H28143429   5.171   7.611   0.846  2.7484 -0.2347 -0.5758
  135MOL   H28243430   5.384   7.750   0.826  0.3737 -1.2477  1.0198
  135MOL   H28343431   5.513   0.071   0.981  0.0875 -0.3262 -2.5658
  135MOL   H28443432   5.466   0.165   1.174 -0.6641  0.4104  1.3282
  135MOL   H28543433   5.520   0.305   1.082  0.7105 -0.3195 -0.0102
  135MOL   H28643434   5.349   0.286   1.107 -0.0986  0.4240 -1.9009
  135MOL   H28743435   5.519   0.272   0.823  0.3415 -0.7022 -1.8846
  135MOL   H28843436   5.347   0.306   0.855  1.0998  0.2867  0.4851
  135MOL   H28943437   5.394   0.173   0.754 -0.9838  0.1472 -0.3586
  135MOL   C29043438   5.399   7.657   1.011  0.1287  0.7277  0.5661
  135MOL   C29143439   5.331   7.609   1.144  0.4447  0.2440 -0.4735
  135MOL   O29243440   5.365   7.469   1.152  0.1575 -0.0292 -0.4486
  135MOL   C29343441   5.324   7.401   1.268  0.5337 -0.3806 -0.2324
  135MOL   C29443442   5.369   7.255   1.244 -0.8123 -0.6111 -0.3862
  135MOL   C29543443   5.166   7.409   1.292  0.1119 -0.3050  0.0492
  135MOL   H29643444   5.505   7.680   1.020  0.6219 -1.4076  0.4975
  135MOL   H29743445   5.407   7.568   0.948  0.4798  0.0457  1.5605
  135MOL   H29843446   5.223   7.622   1.133  0.0509 -0.6578  2.2150
  135MOL   H29943447   5.386   7.436   1.352  1.1684  1.1474 -1.3102
  135MOL   H30043448   5.477   7.257   1.225 -0.8206  0.5633 -0.3455
  135MOL   H30143449   5.350   7.191   1.330  2.8628 -2.0208 -0.5487
  135MOL   H30243450   5.332   7.219   1.148 -2.5479 -3.4624  1.3040
  135MOL   H30343451   5.109   7.356   1.217 -0.9876 -1.2715  1.5360
  135MOL   H30443452   5.137   7.363   1.387 -0.4278  0.4002  0.2295
  135MOL   H30543453   5.121   7.508   1.287  0.8560 -0.0020 -0.5660
  135MOL   C30643454   5.377   7.705   1.263 -0.1284  0.4897 -0.1691
  135MOL   C30743455   5.532   7.695   1.297  0.3956  0.1749 -1.1683
  135MOL   O30843456   5.562   7.766   1.416 -0.4838  0.4718 -0.3221
  135MOL   C30943457   5.698   7.809   1.420 -0.0321 -0.1223  0.8148
  135MOL   C31043458   5.714   0.127   1.353  1.0110  0.7271 -0.0102
  135MOL   C31143459   5.737   7.808   1.572 -0.5829 -0.5618  0.1322
  135MOL   H31243460   5.320   7.669   1.349  0.4161 -0.3944 -0.1748
  135MOL   H31343461   5.339   7.807   1.251 -1.6699  0.5517  4.3553
  135MOL   H31443462   5.561   7.591   1.309  2.7046  0.9052 -0.2656
  135MOL   H31543463   5.757   7.734   1.367 -1.3059 -0.4659 -0.1432
  135MOL   H31643464   5.645   0.205   1.385 -0.7317 -1.0870  0.7668
  135MOL   H31743465   5.707   0.114   1.245 -3.6944  0.6850  0.1988
  135MOL   H31843466   5.818   0.157   1.366  1.7678 -2.1415  0.8478
  135MOL   H31943467   5.730   7.706   1.611 -0.9550 -0.7913 -0.5129
  135MOL   H32043468   5.675   0.054   1.632 -2.8775 -2.4750 -0.0300
  135MOL   H32143469   5.835   0.029   1.592 -1.4416  0.1547  3.0423
  135MOL   H32243470   5.585   7.730   1.209 -0.0623  3.8259 -0.0986
  136MOL     C143471   7.277   5.494   4.301 -0.5741  0.2553  0.4356
  136MOL     C243472   7.249   5.421   4.162 -0.2418  0.2840 -1.2880
  136MOL     O343473   7.209   5.285   4.193  0.0133  0.1331 -0.0994
  136MOL     C443474   7.309   5.184   4.215 -0.1953 -0.4448 -0.7517
  136MOL     C543475   7.335   5.110   4.084  0.6260 -0.4567 -0.2676
  136MOL     C643476   7.266   5.095   4.326  0.3393 -0.1364 -0.3588
  136MOL     H743477   7.195   5.485   4.372 -1.2983 -0.7207 -0.5146
  136MOL     H843478   7.372   5.468   4.348 -1.0455  1.0063  1.8097
  136MOL     H943479   7.341   5.425   4.103  0.2908  0.3933 -0.4527
  136MOL    H1043480   7.402   5.227   4.252 -0.4940 -1.4447  1.2243
  136MOL    H1143481   7.404   5.028   4.100  1.1969  0.1283  0.3147
  136MOL    H1243482   7.242   5.074   4.040  1.2353 -1.1488 -0.9982
  136MOL    H1343483   7.360   5.183   4.007 -1.9384  1.8200  0.9491
  136MOL    H1443484   7.243   5.145   4.420 -1.8385  1.1146 -1.5105
  136MOL    H1543485   7.165   5.056   4.311  0.3391  0.2162 -1.3144
  136MOL    H1643486   7.335   5.014   4.348 -2.0260 -2.0068  0.4383
  136MOL    H1743487   7.276   5.602   4.291  0.5737  0.2338 -0.0420
  136MOL    C1843488   7.149   5.502   4.078  0.0996 -0.2432 -1.0814
  136MOL    C1943489   7.158   5.462   3.930 -0.1530 -1.0952 -0.2662
  136MOL    O2043490   7.189   5.583   3.860  0.0826  0.2866  0.4723
  136MOL    C2143491   7.280   5.594   3.754  0.0361  0.6902 -0.4635
  136MOL    C2243492   7.430   5.615   3.789  0.0151  0.3487  0.0967
  136MOL    C2343493   7.243   5.712   3.672 -0.1049 -0.5600  0.6327
  136MOL    H2443494   7.056   5.472   4.127 -0.2944  1.1613 -0.9256
  136MOL    H2543495   7.185   5.602   4.105  1.9840 -0.6436 -2.0335
  136MOL    H2643496   7.232   5.385   3.907 -0.2642 -1.1457 -0.4523
  136MOL    H2743497   7.271   5.513   3.682 -3.1574  0.4629  0.1113
  136MOL    H2843498   7.486   5.614   3.695 -0.6654 -0.3449 -0.3075
  136MOL    H2943499   7.444   5.701   3.855  0.2737 -0.1968  0.7499
  136MOL    H3043500   7.471   5.527   3.837  0.5014  1.5751  1.9723
  136MOL    H3143501   7.252   5.808   3.723  0.3092 -0.1683 -0.1663
  136MOL    H3243502   7.138   5.716   3.641 -0.2129  0.1222  1.0693
  136MOL    H3343503   7.302   5.723   3.581  0.4951 -3.1332  0.6605
  136MOL    C3443504   7.018   5.429   3.867 -0.3046 -0.1937  0.9705
  136MOL    C3543505   6.976   5.280   3.886  0.4032 -0.4882 -0.2562
  136MOL    O3643506   6.851   5.286   3.812 -0.4429  0.6222  0.0316
  136MOL    C3743507   6.741   5.234   3.890 -1.2260 -0.4034  0.0404
  136MOL    C3843508   6.678   5.345   3.974  0.4668 -0.9542 -0.5769
  136MOL    C3943509   6.640   5.172   3.793  0.4184  0.2901 -0.2721
  136MOL    H4043510   7.010   5.457   3.762  0.7070  0.4434  1.0574
  136MOL    H4143511   6.947   5.485   3.928  1.9502  0.5640  2.9702
  136MOL    H4243512   6.970   5.262   3.994 -1.7475  0.6314 -0.1551
  136MOL    H4343513   6.762   5.156   3.962 -0.1673  0.0558  0.2344
  136MOL    H4443514   6.748   5.386   4.047  0.5452 -1.5195 -0.3321
  136MOL    H4543515   6.586   5.303   4.015  0.9441 -2.0614 -0.6358
  136MOL    H4643516   6.647   5.431   3.914 -1.1159 -1.4448 -0.5063
  136MOL    H4743517   6.567   5.113   3.848  0.3620 -0.2355 -0.8965
  136MOL    H4843518   6.592   5.247   3.730 -0.6396  0.5050  0.7837
  136MOL    H4943519   6.693   5.103   3.727 -1.4449 -1.2735 -0.1917
  136MOL    C5043520   7.064   5.176   3.814 -0.1904  0.5808 -0.4036
  136MOL    C5143521   7.012   5.029   3.811  0.5230 -0.4024 -0.0128
  136MOL    O5243522   7.010   4.981   3.949  0.3697 -0.0617  0.2836
  136MOL    C5343523   6.901   4.896   3.988 -0.5496  0.1938  0.3079
  136MOL    C5443524   6.904   4.903   4.140 -0.5023  0.1634  0.3169
  136MOL    C5543525   6.944   4.753   3.940  0.3430  0.4225 -1.0367
  136MOL    H5643526   7.075   5.211   3.711 -1.5932  0.1897 -0.6980
  136MOL    H5743527   7.166   5.176   3.854 -0.3783  0.2034  0.0785
  136MOL    H5843528   6.907   5.025   3.781  1.1055 -1.3762 -1.9550
  136MOL    H5943529   6.808   4.932   3.944 -1.4788  1.1812  2.9848
  136MOL    H6043530   6.806   4.882   4.182  0.3959  0.3864  2.6024
  136MOL    H6143531   6.925   5.005   4.172 -0.7731  0.6859 -1.1499
  136MOL    H6243532   6.978   4.835   4.184 -0.2963 -0.0097 -0.2962
  136MOL    H6343533   6.868   4.687   3.981 -0.8106  1.6453 -1.1856
  136MOL    H6443534   7.040   4.722   3.981 -0.1276  0.1154 -0.1701
  136MOL    H6543535   6.963   4.739   3.833  0.9896  0.3922 -0.9219
  136MOL    C6643536   7.115   4.940   3.731  0.1701  0.2720 -0.1688
  136MOL    C6743537   7.073   4.898   3.588 -0.3220 -0.1885 -0.2526
  136MOL    O6843538   7.191   4.832   3.534  0.0659 -0.5803 -0.5237
  136MOL    C6943539   7.229   4.703   3.580  0.0628 -0.1370  0.3202
  136MOL    C7043540   7.190   4.609   3.464  0.3182 -0.5853 -0.0315
  136MOL    C7143541   7.380   4.691   3.610 -0.2278 -0.7631 -0.0173
  136MOL    H7243542   7.206   4.999   3.721  0.1406  0.5647  1.1198
  136MOL    H7343543   7.154   4.860   3.794  0.5423 -1.0583 -2.0747
  136MOL    H7443544   6.982   4.840   3.581 -0.4155  0.0737 -1.1902
  136MOL    H7543545   7.183   4.673   3.674 -0.0663  1.9966  0.9693
  136MOL    H7643546   7.252   4.610   3.375 -0.2017 -1.4999 -0.4218
  136MOL    H7743547   7.183   4.502   3.485 -3.2625 -0.5749 -0.7813
  136MOL    H7843548   7.094   4.635   3.419 -0.6859 -0.5361  2.0517
  136MOL    H7943549   7.395   4.761   3.692 -0.7185  0.6924 -1.1490
  136MOL    H8043550   7.447   4.741   3.540  0.5777  1.5643  2.3446
  136MOL    H8143551   7.412   4.595   3.650 -0.1686 -0.4852  0.6006
  136MOL    C8243552   7.049   5.020   3.501 -0.2770  0.6145 -0.4486
  136MOL    C8343553   7.031   4.990   3.355  0.4291  0.5653  0.8145
  136MOL    O8443554   6.937   5.090   3.309 -0.0324 -1.0119 -0.0882
  136MOL    C8543555   6.815   5.048   3.246  0.0382  0.2132 -0.7130
  136MOL    C8643556   6.756   5.178   3.177 -0.2556 -0.2232 -0.2038
  136MOL    C8743557   6.721   4.985   3.343  0.2891 -0.2625  0.2345
  136MOL    H8843558   6.970   5.077   3.550  0.6680  0.7605  0.9275
  136MOL    H8943559   7.135   5.085   3.516 -0.6558  1.1139 -0.4181
  136MOL    H9043560   6.988   4.890   3.352 -0.7489  1.0275  1.6099
  136MOL    H9143561   6.830   4.983   3.160 -1.5105 -0.0879 -0.7742
  136MOL    H9243562   6.820   5.219   3.099  0.0057 -1.0565 -0.4390
  136MOL    H9343563   6.660   5.152   3.130 -1.4160 -0.5834  2.2897
  136MOL    H9443564   6.733   5.254   3.251 -1.3135 -2.4876  1.8497
  136MOL    H9543565   6.620   4.980   3.301  1.6408 -0.8435 -3.1672
  136MOL    H9643566   6.761   4.887   3.367  1.0459  0.0275  0.1731
  136MOL    H9743567   6.718   5.032   3.441  0.3090 -1.4895  0.8314
  136MOL    C9843568   7.166   5.007   3.274 -0.4430 -0.1488 -0.9820
  136MOL    C9943569   7.192   4.912   3.157 -0.8298  0.9144 -0.5343
  136MOL   O10043570   7.331   4.940   3.126 -0.4270 -0.2434  0.6524
  136MOL   C10143571   7.436   4.857   3.180 -0.3117 -0.3204 -0.0144
  136MOL   C10243572   7.564   4.948   3.171  0.6526  0.2727 -0.0849
  136MOL   C10343573   7.451   4.741   3.091  0.4932  0.5535  0.1653
  136MOL   H10443574   7.188   5.113   3.259 -3.0120  0.9305  2.2440
  136MOL   H10543575   7.246   4.961   3.330 -0.5485  0.7004 -0.1123
  136MOL   H10643576   7.177   4.805   3.171  0.8012  0.7613  0.2320
  136MOL   H10743577   7.414   4.839   3.285  0.4094  0.5535  0.3010
  136MOL   H10843578   7.643   4.906   3.234  0.2651  1.3913  1.1767
  136MOL   H10943579   7.547   5.045   3.217  0.9344 -0.3069  1.2732
  136MOL   H11043580   7.588   4.957   3.065  3.4112 -1.9069  0.3025
  136MOL   H11143581   7.441   4.781   2.990 -3.8414  2.3298  1.1742
  136MOL   H11243582   7.371   4.666   3.100 -0.2025  1.5435  2.6583
  136MOL   H11343583   7.549   4.695   3.090 -0.1146 -0.8232  1.4833
  136MOL   C11443584   7.106   4.956   3.033  0.7742  0.5937  0.5625
  136MOL   C11543585   7.071   4.840   2.930  0.9141  0.3201 -0.3648
  136MOL   O11643586   6.981   4.747   2.993 -0.0286  1.0292  0.1138
  136MOL   C11743587   6.985   4.613   2.929  0.1931  0.6885 -0.0780
  136MOL   C11843588   6.889   4.536   3.024 -0.2798  0.3510  0.0116
  136MOL   C11943589   7.122   4.541   2.917 -0.3069  0.5666  0.7361
  136MOL   H12043590   7.151   5.043   2.986 -0.5367  2.2395  2.2457
  136MOL   H12143591   7.013   5.002   3.069  0.5070  1.7426 -1.5582
  136MOL   H12243592   7.168   4.793   2.917  0.9063  0.2182 -0.0384
  136MOL   H12343593   6.933   4.614   2.833 -0.9507  0.4593  0.5220
  136MOL   H12443594   6.787   4.575   3.019 -1.5315 -2.5674  1.7424
  136MOL   H12543595   6.925   4.548   3.127 -1.3825 -3.2845  0.8890
  136MOL   H12643596   6.875   4.429   3.008 -1.3993  0.5905 -0.6638
  136MOL   H12743597   7.198   4.596   2.862  0.7596 -1.2725  0.3424
  136MOL   H12843598   7.112   4.445   2.865  2.4587  0.4999  0.2596
  136MOL   H12943599   7.152   4.515   3.019  0.7050  1.3059  0.6302
  136MOL   C13043600   7.008   4.889   2.798 -0.4915  0.0091  0.1589
  136MOL   C13143601   7.107   4.914   2.680  0.6258  0.1234  0.0363
  136MOL   O13243602   7.036   4.989   2.584 -0.7324 -0.2067 -0.2412
  136MOL   C13343603   7.060   5.124   2.581 -0.8758  0.1653 -0.3923
  136MOL   C13443604   7.193   5.159   2.512  0.6117 -0.3360  0.7166
  136MOL   C13543605   6.948   5.181   2.493  0.1808 -0.2134  0.0666
  136MOL   H13643606   6.954   4.981   2.819 -1.7970 -0.8664  0.6676
  136MOL   H13743607   6.921   4.832   2.768  0.1838  0.2350 -2.3702
  136MOL   H13843608   7.189   4.976   2.716 -0.0323 -0.4146  2.5390
  136MOL   H13943609   7.060   5.161   2.683 -0.7378  0.6661 -0.5715
  136MOL   H14043610   7.202   5.105   2.418  1.8348 -0.7677  1.0750
  136MOL   H14143611   7.282   5.127   2.567  1.0640 -0.3116 -0.0001
  136MOL   H14243612   7.200   5.267   2.500  2.3956 -0.5096  0.1185
  136MOL   H14343613   6.929   5.284   2.521  0.0311 -0.1864 -0.1337
  136MOL   H14443614   6.968   5.169   2.386  0.8179  1.3250 -0.0033
  136MOL   H14543615   6.849   5.138   2.509  0.8871 -1.9813 -0.1151
  136MOL   C14643616   7.143   4.777   2.617  0.0096  0.5746 -0.0196
  136MOL   C14743617   7.248   4.776   2.509 -0.0823 -0.3198  0.7450
  136MOL   O14843618   7.366   4.707   2.541 -0.1119  0.3253 -0.2358
  136MOL   C14943619   7.451   4.780   2.641 -0.0374  0.3625 -0.0307
  136MOL   C15043620   7.544   4.880   2.560  0.4787  0.2816 -0.0489
  136MOL   C15143621   7.536   4.670   2.712  0.3557 -0.3777  0.4784
  136MOL   H15243622   7.052   4.735   2.575 -0.1437  0.0527  0.8197
  136MOL   H15343623   7.183   4.702   2.685  1.2933  0.2408 -1.1240
  136MOL   H15443624   7.278   4.878   2.487 -2.3461  0.2875  0.3317
  136MOL   H15543625   7.385   4.834   2.708  1.0573 -0.3245  1.6218
  136MOL   H15643626   7.617   4.828   2.498 -2.3300  0.4990 -3.7337
  136MOL   H15743627   7.612   4.938   2.623  0.4827 -0.5351  0.6977
  136MOL   H15843628   7.485   4.949   2.499 -0.3167  0.7187  1.1995
  136MOL   H15943629   7.616   4.695   2.781  0.6208 -1.7246  0.6675
  136MOL   H16043630   7.571   4.602   2.634 -1.8448 -0.8128 -0.1736
  136MOL   H16143631   7.467   4.615   2.776 -0.8824  0.1158 -0.4101
  136MOL   C16243632   7.193   4.707   2.384  0.1048  0.1561  0.0934
  136MOL   C16343633   7.279   4.717   2.255  0.3484  0.1734 -0.7519
  136MOL   O16443634   7.218   4.640   2.146  0.1146 -0.0462 -0.2475
  136MOL   C16543635   7.258   4.505   2.121 -1.1197 -0.0709 -0.2636
  136MOL   C16643636   7.352   4.513   2.006  1.0415 -0.0786  0.0770
  136MOL   C16743637   7.140   4.412   2.094 -0.2852 -0.5421  0.0769
  136MOL   H16843638   7.181   4.600   2.398 -1.0593  0.1505 -0.8491
  136MOL   H16943639   7.094   4.741   2.354  0.7196 -0.1679 -2.4245
  136MOL   H17043640   7.375   4.669   2.271 -1.2387 -1.6679  4.2718
  136MOL   H17143641   7.308   4.476   2.213 -0.1789  0.1641 -0.6967
  136MOL   H17243642   7.307   4.566   1.921  0.4319 -2.1736 -0.9458
  136MOL   H17343643   7.386   4.414   1.977 -2.6916 -1.2130 -0.6863
  136MOL   H17443644   7.445   4.565   2.029  1.1203 -1.0202  1.9241
  136MOL   H17543645   7.113   4.423   1.989 -1.2746 -2.7066  0.0826
  136MOL   H17643646   7.049   4.432   2.150  0.5075 -0.9128  1.5254
  136MOL   H17743647   7.176   4.310   2.110 -0.4649 -0.6742 -0.3365
  136MOL   C17843648   7.285   4.860   2.204  0.8473 -0.3379  0.5244
  136MOL   C17943649   7.385   4.893   2.092 -0.3558  0.2986  0.4475
  136MOL   O18043650   7.357   5.020   2.041 -0.9192  0.2586  0.0123
  136MOL   C18143651   7.327   5.015   1.903  0.2158  0.1244 -0.3196
  136MOL   C18243652   7.356   5.150   1.844 -0.6225 -0.2134  0.1228
  136MOL   C18343653   7.180   4.964   1.880 -0.7080 -0.8040  0.9172
  136MOL   H18443654   7.312   4.926   2.286  1.7988 -3.5903  2.9035
  136MOL   H18543655   7.186   4.892   2.171  0.2441 -0.7746  1.8630
  136MOL   H18643656   7.374   4.820   2.013 -1.6763  1.6055 -0.5919
  136MOL   H18743657   7.391   4.940   1.855  1.4637  1.1145 -0.2367
  136MOL   H18843658   7.449   5.194   1.883  1.1488 -1.8749 -2.1202
  136MOL   H18943659   7.271   5.214   1.870  0.5724  1.3824  0.2235
  136MOL   H19043660   7.370   5.139   1.737 -0.6567 -1.0451  0.2035
  136MOL   H19143661   7.151   4.872   1.931  0.6721 -1.6165  0.2519
  136MOL   H19243662   7.166   4.951   1.773  1.7482 -2.4199  0.7566
  136MOL   H19343663   7.104   5.038   1.908 -1.5278 -0.4405 -2.0826
  136MOL   C19443664   7.536   4.902   2.148  0.8821 -0.1829  0.5343
  136MOL   C19543665   7.641   4.882   2.041 -0.1293 -0.0997  0.4184
  136MOL   O19643666   7.651   4.742   2.012 -0.1131  0.0675 -0.6647
  136MOL   C19743667   7.706   4.715   1.883 -0.4890 -0.5215 -0.5128
  136MOL   C19843668   7.806   4.602   1.904  1.2925  0.1600  0.6982
  136MOL   C19943669   7.600   4.687   1.783 -0.3854  0.4565 -0.0867
  136MOL   H20043670   7.554   4.999   2.193  3.2114  0.6547 -2.0767
  136MOL   H20143671   7.539   4.827   2.226  1.6816 -0.6825  0.0341
  136MOL   H20243672   7.605   4.929   1.950 -1.2838 -3.3220 -0.8775
  136MOL   H20343673   7.757   4.799   1.836 -1.7231 -0.8530 -2.5189
  136MOL   H20443674   0.008   4.538   1.818 -0.2348  0.7105 -0.1159
  136MOL   H20543675   0.073   4.640   1.958 -0.3012  3.2298  1.2480
  136MOL   H20643676   7.772   4.538   1.985  2.1091  1.4619  2.1150
  136MOL   H20743677   7.563   4.586   1.798  2.6663 -1.2946 -3.5350
  136MOL   H20843678   7.510   4.748   1.791 -0.8749 -0.4620  1.6788
  136MOL   H20943679   7.637   4.692   1.681  1.8475  2.1546  0.7471
  136MOL   C21043680   7.772   4.941   2.084 -0.4026 -0.0766  0.2700
  136MOL   C21143681   7.791   5.095   2.075 -0.4951 -0.4147  0.1136
  136MOL   O21243682   0.075   5.117   2.167  0.0705 -0.1802 -0.1722
  136MOL   C21343683   0.050   5.205   2.272  0.3309  0.5128 -0.3668
  136MOL   C21443684   0.058   5.118   2.397 -0.3232 -0.3543  0.2720
  136MOL   C21543685   0.154   5.315   2.262  0.4041  0.2784  0.1377
  136MOL   H21643686   0.030   4.897   2.021 -2.9994 -0.0201 -3.1283
  136MOL   H21743687   7.781   4.899   2.184  0.2056  0.0936  0.2937
  136MOL   H21843688   7.694   5.136   2.103 -0.8838 -0.4361 -1.1913
  136MOL   H21943689   7.768   5.243   2.274 -0.1380 -0.8022  2.0581
  136MOL   H22043690   0.031   5.168   2.490 -1.0693 -0.1206 -0.0644
  136MOL   H22143691   0.156   5.072   2.403 -0.6936 -1.1921 -0.0768
  136MOL   H22243692   7.802   5.041   2.386 -0.1602 -0.1304 -2.9482
  136MOL   H22343693   0.126   5.387   2.339 -1.6753 -0.8134  0.4368
  136MOL   H22443694   0.130   5.369   2.171  0.2285  0.1641  0.1164
  136MOL   H22543695   0.259   5.290   2.281 -0.5049 -2.1375  2.4127
  136MOL   C22643696   0.008   5.133   1.932  0.6014  0.4198 -0.1062
  136MOL   C22743697   0.004   5.282   1.907 -0.3448 -0.3305  0.6638
  136MOL   O22843698   7.691   5.329   1.917  0.4122  0.2709 -0.0787
  136MOL   C22943699   7.646   5.435   2.014 -0.5901  0.3787 -0.0936
  136MOL   C23043700   7.497   5.452   2.019  1.0477 -0.0045  0.4524
  136MOL   C23143701   7.726   5.560   1.985 -0.6350  0.4060  0.3613
  136MOL   H23243702   7.754   5.086   1.868  1.6448  0.7668 -1.6124
  136MOL   H23343703   0.100   5.081   1.905 -0.2325 -0.3244 -1.5661
  136MOL   H23443704   0.069   5.328   1.981  1.3767 -1.3717 -0.1717
  136MOL   H23543705   7.683   5.396   2.109 -0.7366 -1.0806 -0.6198
  136MOL   H23643706   7.449   5.487   1.928  2.5076  1.3821  0.1883
  136MOL   H23743707   7.446   5.362   2.052  0.1084 -0.2867 -1.6879
  136MOL   H23843708   7.463   5.530   2.088  2.1810 -0.0805  1.1021
  136MOL   H23943709   7.709   5.614   1.892  1.3241  1.2341  0.4438
  136MOL   H24043710   0.013   5.542   1.987 -0.6361  0.2443 -0.8925
  136MOL   H24143711   7.706   5.623   2.072  0.9233 -1.9330  2.4857
  136MOL   C24243712   0.069   5.325   1.769  0.2365  0.3542 -0.6664
  136MOL   C24343713   0.224   5.353   1.771 -0.2452 -0.2080 -0.3109
  136MOL   O24443714   0.269   5.461   1.854  0.0293  0.4875  0.3042
  136MOL   C24543715   0.354   5.433   1.955 -0.0660 -0.7655 -0.4833
  136MOL   C24643716   0.497   5.402   1.900  0.3500  0.1764 -0.2962
  136MOL   C24743717   0.352   5.565   2.036 -0.1680  0.0948 -0.2589
  136MOL   H24843718   0.055   5.247   1.694 -2.0703  0.6875 -0.6180
  136MOL   H24943719   0.014   5.410   1.729  0.1816 -0.6440 -2.7545
  136MOL   H25043720   0.265   5.254   1.793 -2.1517 -0.2458  3.4153
  136MOL   H25143721   0.321   5.354   2.022 -1.7945  0.7007  0.4313
  136MOL   H25243722   0.558   5.388   1.990 -3.0056 -0.6125  1.9655
  136MOL   H25343723   0.495   5.303   1.855  2.6425 -0.2646  0.4842
  136MOL   H25443724   0.538   5.477   1.833 -0.8185  0.4791 -0.6849
  136MOL   H25543725   0.248   5.583   2.064 -0.7460 -0.2585 -2.1213
  136MOL   H25643726   0.405   5.559   2.131  0.0749  1.7800 -0.2723
  136MOL   H25743727   0.398   5.641   1.973 -1.4232  0.0050 -1.2995
  136MOL   C25843728   0.285   5.383   1.630  0.1967  0.1502  0.1293
  136MOL   C25943729   0.235   5.508   1.552 -0.5020 -0.5992  0.2451
  136MOL   O26043730   0.108   5.481   1.500  0.1001 -0.1953  0.3227
  136MOL   C26143731   0.035   5.593   1.458  0.2533  0.1158  0.6491
  136MOL   C26243732   7.788   5.544   1.331 -0.1396  0.6508 -0.3767
  136MOL   C26343733   7.759   5.648   1.567  0.1373  0.2322 -0.2236
  136MOL   H26443734   0.389   5.389   1.660  0.4608  1.5467 -1.0199
  136MOL   H26543735   0.265   5.295   1.568 -2.0569  2.0717 -1.9882
  136MOL   H26643736   0.241   5.590   1.622 -1.1148 -0.3268 -0.0170
  136MOL   H26743737   0.092   5.683   1.436 -2.2257  1.6004  0.0081
  136MOL   H26843738   7.727   5.457   1.355 -1.5124  1.6355 -0.2538
  136MOL   H26943739   0.042   5.519   1.255  0.0995  0.5741 -0.1185
  136MOL   H27043740   7.720   5.623   1.301 -1.0646 -0.6011 -1.6625
  136MOL   H27143741   7.679   5.581   1.599 -0.1099  0.5695 -0.1430
  136MOL   H27243742   7.807   5.687   1.656 -0.4314 -0.6480  0.4802
  136MOL   H27343743   7.713   5.741   1.535  1.5424  1.4678  1.3107
  136MOL   C27443744   0.345   5.512   1.439  0.3512 -0.1536 -0.5686
  136MOL   C27543745   0.343   5.639   1.352 -0.3313  0.5144  0.7618
  136MOL   O27643746   0.339   5.761   1.427  0.5741 -0.1890  0.2301
  136MOL   C27743747   0.262   5.864   1.365  0.0703  0.1743  0.3227
  136MOL   C27843748   0.353   5.945   1.268 -0.1141 -1.0166  0.5437
  136MOL   C27943749   0.210   5.950   1.478 -0.0678 -0.0353 -0.2022
  136MOL   H28043750   0.436   5.519   1.497  0.6110  1.1059 -1.1333
  136MOL   H28143751   0.341   5.417   1.384 -0.1493 -2.0386  2.5957
  136MOL   H28243752   0.269   5.620   1.275  1.3056 -1.6822 -0.3431
  136MOL   H28343753   0.173   5.834   1.310 -0.2864  4.2474 -1.4696
  136MOL   H28443754   0.293   6.030   1.236  1.1696  0.1942  1.3294
  136MOL   H28543755   0.436   6.004   1.307 -2.0962  1.7765  0.6571
  136MOL   H28643756   0.392   5.896   1.178  0.9063  1.9481 -0.6875
  136MOL   H28743757   0.176   6.047   1.441  2.9885  1.0766 -0.2199
  136MOL   H28843758   0.284   5.967   1.556 -0.2884 -0.1563  0.0342
  136MOL   H28943759   0.122   5.912   1.530 -1.0083  1.6082 -0.5524
  136MOL   C29043760   0.486   5.640   1.289 -1.2251  0.0415 -0.0197
  136MOL   C29143761   0.512   5.528   1.178 -0.6564  0.5184  0.1383
  136MOL   O29243762   0.410   5.550   1.078  0.4001  0.1709  0.3003
  136MOL   C29343763   0.370   5.429   1.011 -1.0461 -0.3215 -0.7109
  136MOL   C29443764   0.355   5.472   0.863  0.6715 -0.2920  0.8198
  136MOL   C29543765   0.251   5.353   1.066  0.3098 -0.1324  0.3945
  136MOL   H29643766   0.567   5.637   1.362  2.6657  2.2122 -4.0010
  136MOL   H29743767   0.503   5.732   1.234 -0.7054 -0.2099 -0.2866
  136MOL   H29843768   0.512   5.431   1.228  0.6356 -0.7804 -2.3058
  136MOL   H29943769   0.455   5.361   1.010 -0.0262  0.9158 -0.3189
  136MOL   H30043770   0.321   5.393   0.797  2.5189  0.0901 -0.6430
  136MOL   H30143771   0.284   5.555   0.863  0.3015 -0.5845 -0.6616
  136MOL   H30243772   0.446   5.503   0.811 -2.0119 -1.1865 -4.7241
  136MOL   H30343773   0.269   5.330   1.171  1.1504  2.5984  0.8721
  136MOL   H30443774   0.167   5.421   1.071  1.2032  1.0935 -0.9736
  136MOL   H30543775   0.214   5.275   0.999 -0.3792  1.5260 -1.1862
  136MOL   C30643776   0.646   5.547   1.102 -0.4209  0.1262  0.5636
  136MOL   C30743777   0.775   5.548   1.188  0.3835 -0.2942  0.1433
  136MOL   O30843778   0.802   5.408   1.193 -0.5972  0.3558 -0.1020
  136MOL   C30943779   0.943   5.386   1.222  0.6388 -0.5111 -0.3494
  136MOL   C31043780   0.984   5.437   1.355  0.4781 -0.3886 -0.2335
  136MOL   C31143781   0.976   5.238   1.197  0.1414  0.8335 -0.4455
  136MOL   H31243782   0.649   5.639   1.045 -1.4358  0.6055  1.2646
  136MOL   H31343783   0.650   5.464   1.031  1.5540 -0.1987  1.0333
  136MOL   H31443784   0.859   5.593   1.136 -0.1375  2.0689  1.2992
  136MOL   H31543785   1.007   5.438   1.150  0.2679 -0.1821 -0.4395
  136MOL   H31643786   0.958   5.541   1.370 -1.5224 -0.8371 -0.3460
  136MOL   H31743787   1.092   5.433   1.358  0.6425  1.9072 -1.9467
  136MOL   H31843788   0.927   5.383   1.431 -1.7121  1.7047 -0.3073
  136MOL   H31943789   0.946   5.213   1.095 -0.6973  0.6628 -0.1659
  136MOL   H32043790   0.917   5.179   1.268  0.5827  0.2511 -0.5602
  136MOL   H32143791   1.081   5.211   1.200 -0.0228  0.2075  0.0628
  136MOL   H32243792   0.760   5.595   1.285  0.0555  1.6900 -0.8635
  137MOL     C143793   7.654   3.633   4.879 -0.2214 -0.1911  0.0196
  137MOL     C243794   7.621   3.744   4.986 -0.3065  0.3631  0.2623
  137MOL     O343795   7.498   3.807   4.939  0.0457  0.1350  0.1164
  137MOL     C443796   7.507   3.948   4.932  0.3948  0.3137 -0.0205
  137MOL     C543797   7.362   3.999   4.922  0.6219 -0.2889 -0.7707
  137MOL     C643798   7.585   3.988   4.813 -0.4411 -0.6658 -0.0007
  137MOL     H743799   7.565   3.575   4.857 -1.2437  1.2223  0.3806
  137MOL     H843800   7.687   3.680   4.786  1.9255 -0.8203  0.4369
  137MOL     H943801   7.698   3.819   5.003  1.8696 -1.8961  0.5580
  137MOL    H1043802   7.551   3.987   5.024 -0.7678  1.6476 -0.0119
  137MOL    H1143803   7.308   3.975   4.830 -1.5236  1.0709  0.0966
  137MOL    H1243804   7.302   3.963   5.005  0.9315  0.0290 -0.4127
  137MOL    H1343805   7.355   4.108   4.930 -2.2958 -0.5321  0.8597
  137MOL    H1443806   7.690   4.005   4.834 -0.5492  0.0279  0.0012
  137MOL    H1543807   7.569   3.922   4.728  0.4945  0.0497 -0.7357
  137MOL    H1643808   7.547   4.080   4.768  0.4218 -1.1974 -1.8466
  137MOL    H1743809   7.742   3.577   4.911  0.9039  1.8737  0.6484
  137MOL    C1843810   7.600   3.682   5.127  0.5418  0.2665 -0.2176
  137MOL    C1943811   7.569   3.780   5.245  0.0447  0.6101  0.4494
  137MOL    O2043812   7.589   3.727   5.371 -0.3811 -0.1819  0.0741
  137MOL    C2143813   7.726   3.707   5.410 -0.1666 -0.0803 -0.0485
  137MOL    C2243814   7.731   3.681   5.563  0.3164 -0.8093 -0.1718
  137MOL    C2343815   0.011   3.813   5.381  0.3677  0.2002  0.2176
  137MOL    H2443816   7.526   3.603   5.119  1.8615 -1.0009 -0.0229
  137MOL    H2543817   7.697   3.637   5.146  0.2863 -0.2284 -0.0893
  137MOL    H2643818   7.634   3.867   5.230 -0.6422  0.8420 -1.2486
  137MOL    H2743819   7.752   3.616   5.355 -0.4702 -0.3389  0.2303
  137MOL    H2843820   7.700   3.769   5.620  0.4160 -2.2224  2.1107
  137MOL    H2943821   7.660   3.600   5.579 -0.8786  0.4858  1.3858
  137MOL    H3043822   0.010   3.653   5.596  0.1538 -0.2368  0.8322
  137MOL    H3143823   0.105   3.773   5.420  0.9687  0.1056 -1.2858
  137MOL    H3243824   7.800   3.912   5.415  1.6269 -0.2324  2.7327
  137MOL    H3343825   0.030   3.815   5.274 -2.2325 -2.3551 -0.3595
  137MOL    C3443826   7.429   3.833   5.246  0.0191  0.1152  0.0492
  137MOL    C3543827   7.398   3.971   5.310 -0.1240 -0.0303 -0.4480
  137MOL    O3643828   7.446   4.068   5.228 -0.0170  0.0699 -0.2892
  137MOL    C3743829   7.494   4.194   5.285 -0.2321  0.0097  0.0589
  137MOL    C3843830   7.644   4.171   5.332 -0.0656 -0.5720  0.2713
  137MOL    C3943831   7.493   4.290   5.169  0.2791 -0.1200 -0.3264
  137MOL    H4043832   7.381   3.754   5.305 -0.2370 -0.3073 -0.7164
  137MOL    H4143833   7.380   3.840   5.149 -1.5016 -1.9521  0.6144
  137MOL    H4243834   7.462   3.959   5.398 -0.2780  0.8888 -0.2059
  137MOL    H4343835   7.432   4.240   5.362 -0.9477 -0.8467  0.0053
  137MOL    H4443836   7.705   4.134   5.249  1.1993 -1.5129  1.5828
  137MOL    H4543837   7.649   4.093   5.408 -0.9562  0.9507  1.9221
  137MOL    H4643838   7.687   4.267   5.360 -1.9380  0.7323 -1.2181
  137MOL    H4743839   7.396   4.276   5.121 -0.6007  0.5757  1.2513
  137MOL    H4843840   7.502   4.394   5.200  0.2538  0.9800 -3.7415
  137MOL    H4943841   7.568   4.267   5.093  2.2874 -1.6543  2.0370
  137MOL    C5043842   7.249   3.994   5.352 -0.1364  0.0222  0.5680
  137MOL    C5143843   7.181   3.891   5.444  0.5962 -0.0825  0.2731
  137MOL    O5243844   7.040   3.918   5.463  0.6160 -0.2466  0.1378
  137MOL    C5343845   6.946   3.827   5.409 -0.4313 -0.2105 -0.4681
  137MOL    C5443846   6.917   3.853   5.263  0.3504  0.2815 -0.7325
  137MOL    C5543847   6.807   3.839   5.492 -1.0522 -0.4477  0.0649
  137MOL    H5643848   7.246   4.092   5.400  0.1435  0.6117 -0.5766
  137MOL    H5743849   7.203   4.001   5.253  0.2891 -2.4674  0.1707
  137MOL    H5843850   7.186   3.797   5.388 -1.3303 -0.3742  0.5591
  137MOL    H5943851   6.984   3.725   5.413  1.5054  0.4705 -0.9325
  137MOL    H6043852   7.008   3.853   5.203  0.2762  3.6086 -0.9525
  137MOL    H6143853   6.876   3.954   5.259 -3.5550 -1.0458  2.3837
  137MOL    H6243854   6.837   3.793   5.220 -0.0432  0.6881 -0.5762
  137MOL    H6343855   6.819   3.804   5.594  1.1512  1.2766  0.4468
  137MOL    H6443856   6.736   3.777   5.439  0.2448 -2.1260  0.2410
  137MOL    H6543857   6.772   3.942   5.498  2.0906  0.6681  0.3775
  137MOL    C6643858   7.245   3.869   5.580  0.7073  0.0937 -0.4166
  137MOL    C6743859   7.276   3.998   5.664 -1.0354 -0.6016  0.8499
  137MOL    O6843860   7.374   3.964   5.764 -0.9174 -0.3455 -0.3199
  137MOL    C6943861   7.515   3.975   5.725 -0.4009 -0.0665  0.2974
  137MOL    C7043862   7.556   4.124   5.735 -0.2398  0.7368  0.0622
  137MOL    C7143863   7.576   3.876   5.828  0.4876 -0.2369 -0.5223
  137MOL    H7243864   7.195   3.797   5.645  0.6380  1.6270  1.2753
  137MOL    H7343865   7.338   3.819   5.552  0.6588 -0.2588  0.0549
  137MOL    H7443866   7.303   4.082   5.599 -1.9478  0.7697  2.2135
  137MOL    H7543867   7.528   3.941   5.622 -2.2281  1.9125 -0.6397
  137MOL    H7643868   7.509   4.168   5.823  0.4972 -3.2238  2.5456
  137MOL    H7743869   7.664   4.133   5.750  0.4329 -2.5504 -2.1174
  137MOL    H7843870   7.539   4.182   5.644 -0.5950 -1.7301 -1.5088
  137MOL    H7943871   7.513   3.787   5.824 -0.3246  0.2535  0.9365
  137MOL    H8043872   7.571   3.907   5.933  0.4102 -2.2965  0.1156
  137MOL    H8143873   7.679   3.840   5.818  0.7595  0.9447 -1.9950
  137MOL    C8243874   7.153   4.035   5.750 -0.1833 -0.6294  0.6482
  137MOL    C8343875   7.160   4.179   5.811  0.4625  1.2843  0.4291
  137MOL    O8443876   7.044   4.260   5.782  0.0991  0.0217  0.0128
  137MOL    C8543877   7.007   4.285   5.646  0.1471  0.3884  0.4513
  137MOL    C8643878   7.090   4.393   5.580 -0.0322  0.1811  0.5322
  137MOL    C8743879   6.851   4.305   5.639  0.7561 -0.1456 -0.6426
  137MOL    H8843880   7.068   4.018   5.684  0.2254  0.2027 -0.0934
  137MOL    H8943881   7.125   3.967   5.831 -1.1985 -1.2430 -0.1984
  137MOL    H9043882   7.253   4.218   5.770  0.4826 -0.6352 -1.4309
  137MOL    H9143883   7.028   4.200   5.581  0.2787  0.2182  0.7178
  137MOL    H9243884   7.194   4.361   5.579 -0.2621 -0.7759  2.8571
  137MOL    H9343885   7.060   4.401   5.476 -0.9987 -2.2294  0.6023
  137MOL    H9443886   7.084   4.493   5.624 -1.8765  0.0945  0.5090
  137MOL    H9543887   6.817   4.336   5.541 -3.2991  1.5290  1.1867
  137MOL    H9643888   6.817   4.208   5.676 -0.4559  0.9761  1.2493
  137MOL    H9743889   6.804   4.377   5.705  0.8685 -1.5652  1.0316
  137MOL    C9843890   7.177   4.177   5.967  0.1749  1.3529  0.5918
  137MOL    C9943891   7.219   4.312   6.016  0.1257  0.7600 -0.6237
  137MOL   O10043892   7.359   4.329   5.992  0.7071 -0.0403 -1.0772
  137MOL   C10143893   7.404   4.460   5.977  0.0071 -0.1153 -0.1273
  137MOL   C10243894   7.359   4.516   5.836 -0.6286  0.0844 -0.1846
  137MOL   C10343895   7.555   4.452   5.983 -0.4324 -0.8871 -0.4634
  137MOL   H10443896   7.081   4.138   6.003  0.4279 -0.7052 -0.8730
  137MOL   H10543897   7.249   4.106   6.008 -0.8320  0.1273  0.2817
  137MOL   H10643898   7.165   4.385   5.956  1.1082  0.8999 -1.3493
  137MOL   H10743899   7.366   4.531   6.050 -0.2415 -0.4889  0.1076
  137MOL   H10843900   7.378   4.438   5.761  1.2620  0.3355 -0.0067
  137MOL   H10943901   7.416   4.603   5.805  1.1064 -0.2640  1.9122
  137MOL   H11043902   7.254   4.542   5.822 -1.0435 -0.2494  2.1929
  137MOL   H11143903   7.592   4.423   6.081 -0.5910 -1.0493 -0.4514
  137MOL   H11243904   7.598   4.552   5.970 -1.5936 -0.2838  0.1889
  137MOL   H11343905   7.582   4.377   5.909  0.8384 -1.3195  0.4185
  137MOL   C11443906   7.188   4.347   6.167  0.0882 -0.6574  0.8616
  137MOL   C11543907   7.039   4.384   6.183  1.2236  0.2798  0.2976
  137MOL   O11643908   6.996   4.366   6.319 -0.4599 -0.1770 -0.2505
  137MOL   C11743909   6.979   4.235   6.371  0.7084  0.6017  0.4335
  137MOL   C11843910   6.845   4.193   6.317 -0.2428  0.9703 -0.1337
  137MOL   C11943911   6.986   4.244   6.520 -0.1720 -1.1001  0.3023
  137MOL   H12043912   7.248   4.430   6.201  0.5195 -0.9376  0.7844
  137MOL   H12143913   7.218   4.258   6.222  2.1863  0.5107  1.6163
  137MOL   H12243914   6.985   4.323   6.111  0.2989  0.7415  0.5848
  137MOL   H12343915   7.061   4.169   6.341 -1.4513 -1.7749 -0.4211
  137MOL   H12443916   6.797   4.111   6.370 -0.0600  0.9904  0.0639
  137MOL   H12543917   6.857   4.172   6.211 -0.1576  0.9580 -0.1209
  137MOL   H12643918   6.773   4.274   6.330 -0.9896  0.2978 -0.0138
  137MOL   H12743919   6.973   4.147   6.568  1.2586 -1.8803 -0.8733
  137MOL   H12843920   6.916   4.314   6.566 -1.0498 -2.3232  0.8495
  137MOL   H12943921   7.080   4.291   6.548 -0.5015 -1.3880  1.9293
  137MOL   C13043922   7.009   4.535   6.154 -0.3606 -0.4543 -0.0484
  137MOL   C13143923   6.869   4.582   6.172  0.4131  0.0891 -0.1762
  137MOL   O13243924   6.846   4.692   6.083 -0.0659  0.5740  0.2945
  137MOL   C13343925   6.798   4.655   5.958  0.0444 -0.2792 -0.4908
  137MOL   C13443926   6.693   4.772   5.933 -0.0571  0.1055 -0.0359
  137MOL   C13543927   6.905   4.633   5.854  0.3528 -0.0576  0.3010
  137MOL   H13643928   7.045   4.543   6.052 -0.0437 -1.7186 -0.0474
  137MOL   H13743929   7.066   4.596   6.223  0.7305  0.5959 -1.8614
  137MOL   H13843930   6.813   4.495   6.139 -0.9007 -0.5626  3.4860
  137MOL   H13943931   6.737   4.565   5.958  0.0661 -0.2931  0.4146
  137MOL   H14043932   6.608   4.776   6.001  0.4971  2.4250  0.5510
  137MOL   H14143933   6.657   4.766   5.830 -1.6850  0.1398  0.5254
  137MOL   H14243934   6.740   4.869   5.947 -0.0178  0.1172 -0.2600
  137MOL   H14343935   6.994   4.689   5.880  1.7362 -1.2169 -1.8356
  137MOL   H14443936   6.937   4.534   5.822  1.5546  0.8900 -1.5031
  137MOL   H14543937   6.870   4.676   5.760  2.0089 -2.5699 -1.5510
  137MOL   C14643938   6.832   4.633   6.306 -0.2081  0.4740 -0.4593
  137MOL   C14743939   6.679   4.645   6.347  0.1611  0.2042  0.2760
  137MOL   O14843940   6.620   4.518   6.324 -0.0073  0.2921  0.2243
  137MOL   C14943941   6.529   4.509   6.220 -0.1538 -0.3771  0.5195
  137MOL   C15043942   6.390   4.554   6.267 -0.1468  0.3800 -0.3938
  137MOL   C15143943   6.535   4.362   6.182 -0.2172  0.0754 -0.0842
  137MOL   H15243944   6.885   4.726   6.324  1.4769 -0.4490 -0.6131
  137MOL   H15343945   6.888   4.573   6.377  0.5764  1.0494 -0.5891
  137MOL   H15443946   6.639   4.721   6.280 -0.5540 -1.0822 -0.8050
  137MOL   H15543947   6.564   4.563   6.133 -2.8458 -0.4545 -0.6783
  137MOL   H15643948   6.387   4.659   6.295  0.2366  0.4649 -0.6495
  137MOL   H15743949   6.370   4.496   6.357 -2.8881  0.3302 -0.9934
  137MOL   H15843950   6.311   4.535   6.195 -0.0815  2.5983 -1.0950
  137MOL   H15943951   6.636   4.321   6.184  1.1485  3.0240 -3.2726
  137MOL   H16043952   6.501   4.342   6.081  1.3296 -2.0059 -0.2219
  137MOL   H16143953   6.476   4.308   6.255  0.4247 -1.8090 -0.9325
  137MOL   C16243954   6.660   4.674   6.498 -0.9871  0.2981 -0.2623
  137MOL   C16343955   6.650   4.831   6.519 -0.4982 -0.3206 -0.6095
  137MOL   O16443956   6.536   4.877   6.448  0.6709 -0.0026  0.3122
  137MOL   C16543957   6.540   5.018   6.407  0.7341  0.6014 -0.5660
  137MOL   C16643958   6.398   5.049   6.430 -0.4508  0.7591 -0.0447
  137MOL   C16743959   6.583   5.028   6.262  0.4135 -0.6937 -0.4467
  137MOL   H16843960   6.566   4.632   6.534 -0.4902  0.9688  1.9184
  137MOL   H16943961   6.727   4.613   6.559  2.0390 -0.5074 -4.1813
  137MOL   H17043962   6.740   4.879   6.479 -0.8264 -0.8046 -1.9610
  137MOL   H17143963   6.603   5.078   6.472 -0.1587  1.2057 -0.2503
  137MOL   H17243964   6.384   5.146   6.383  0.5674  0.7174 -0.4461
  137MOL   H17343965   6.371   5.055   6.536  1.1164  0.8163  0.3658
  137MOL   H17443966   6.323   4.985   6.384  0.7035 -0.8789  0.2821
  137MOL   H17543967   6.692   5.025   6.253  0.3114  1.0433 -2.6878
  137MOL   H17643968   6.545   5.122   6.223  1.0763 -0.2647 -0.0558
  137MOL   H17743969   6.541   4.949   6.200 -1.1215 -0.2024 -0.0523
  137MOL   C17843970   6.642   4.870   6.672  0.1857 -1.2826 -0.2330
  137MOL   C17943971   6.771   4.862   6.763 -0.4198 -0.6571  0.3692
  137MOL   O18043972   6.826   4.737   6.768  0.3642  0.1699  0.3074
  137MOL   C18143973   6.757   4.640   6.851  0.0169 -0.3996 -0.5150
  137MOL   C18243974   6.789   4.655   6.995 -0.2069  0.3139 -0.1406
  137MOL   C18343975   6.814   4.510   6.809 -0.6110  0.3979 -0.3101
  137MOL   H18443976   6.555   4.825   6.721 -1.1866  1.1244 -0.3829
  137MOL   H18543977   6.621   4.976   6.670  0.4099 -1.0998  3.1677
  137MOL   H18643978   6.749   4.903   6.862 -0.6638  1.1867 -0.4250
  137MOL   H18743979   6.649   4.633   6.838 -0.1747 -0.7201  1.1012
  137MOL   H18843980   6.897   4.642   7.000 -0.0795 -0.0547 -2.9392
  137MOL   H18943981   6.741   4.578   7.055 -0.3926  0.9058  0.4729
  137MOL   H19043982   6.772   4.755   7.034  1.6839  0.5882  0.0469
  137MOL   H19143983   6.799   4.491   6.702 -1.6944  2.1597 -0.4894
  137MOL   H19243984   6.764   4.425   6.856 -1.2791  0.5265 -0.7758
  137MOL   H19343985   6.919   4.501   6.837 -0.5493  0.7374 -0.4269
  137MOL   C19443986   6.888   4.956   6.708  0.4807 -0.5982 -0.2528
  137MOL   C19543987   6.996   5.001   6.819  0.5202 -0.2705 -0.0371
  137MOL   O19643988   6.922   5.101   6.895 -0.6011  0.5522 -0.0465
  137MOL   C19743989   6.960   5.121   7.030 -0.4387  0.2296  0.3742
  137MOL   C19843990   6.933   5.264   7.077  0.0821 -0.4800  0.3570
  137MOL   C19943991   6.879   5.027   7.118  0.3847  0.2643 -0.6014
  137MOL   H20043992   6.940   4.922   6.618  0.0862 -0.3294 -0.5853
  137MOL   H20143993   6.848   5.044   6.656 -0.3241 -0.8978 -0.1556
  137MOL   H20243994   7.013   4.910   6.877  1.8058  0.4002  0.6639
  137MOL   H20343995   7.067   5.107   7.049 -0.1535  0.1778 -1.1804
  137MOL   H20443996   6.827   5.288   7.080 -0.0092 -0.7328 -0.7402
  137MOL   H20543997   6.983   5.272   7.173  0.0528  0.8556  0.2738
  137MOL   H20643998   6.977   5.339   7.011 -2.7606  0.3569 -0.6742
  137MOL   H20743999   6.929   5.008   7.213 -0.4745 -0.6317 -0.3226
  137MOL   H20844000   6.785   5.072   7.149  0.7211  0.9565 -0.5680
  137MOL   H20944001   6.875   4.925   7.080  3.2846 -0.9969  2.2490
  137MOL   C21044002   7.126   5.055   6.766  0.5773  0.3651 -0.5310
  137MOL   C21144003   7.230   4.954   6.708 -0.3893  0.1406 -0.1310
  137MOL   O21244004   7.188   4.921   6.573  0.6309  0.0622  0.1807
  137MOL   C21344005   7.191   4.778   6.550  0.2503  0.5406 -0.8274
  137MOL   C21444006   7.088   4.686   6.621 -0.4420 -0.5259  0.2710
  137MOL   C21544007   7.189   4.751   6.400  1.0256  0.7807 -0.0172
  137MOL   H21644008   7.175   5.110   6.847  2.6577 -0.1179 -1.4218
  137MOL   H21744009   7.108   5.124   6.684 -2.4026 -1.5898 -1.6073
  137MOL   H21844010   7.232   4.865   6.772  0.2789  0.4466  0.2846
  137MOL   H21944011   7.286   4.737   6.583 -0.6165 -1.7338 -1.0372
  137MOL   H22044012   6.990   4.715   6.581  0.1567  1.5262  0.2094
  137MOL   H22144013   7.097   4.701   6.729  2.2451 -1.8774  0.2713
  137MOL   H22244014   7.090   4.580   6.598 -0.4543 -0.4742  0.0225
  137MOL   H22344015   7.262   4.812   6.346  0.2453  0.7585 -1.1047
  137MOL   H22444016   7.092   4.767   6.353  0.4400 -1.6916  0.2825
  137MOL   H22544017   7.217   4.646   6.389  1.5481  0.9138  0.0010
  137MOL   C22644018   7.372   5.011   6.698 -0.6956 -0.4066  0.0537
  137MOL   C22744019   7.471   4.993   6.821  0.6926  0.2690 -0.1991
  137MOL   O22844020   7.443   5.097   6.906 -0.0297 -0.2181 -0.3761
  137MOL   C22944021   7.395   5.078   7.038 -0.2733 -0.3149  0.1745
  137MOL   C23044022   7.369   5.218   7.087 -0.1145  0.2709 -0.1872
  137MOL   C23144023   7.492   5.014   7.129 -0.1482  0.6464 -0.2207
  137MOL   H23244024   7.378   5.114   6.661 -2.9379 -0.3592 -0.2209
  137MOL   H23344025   7.424   4.949   6.624  0.6876  0.1232  0.5605
  137MOL   H23444026   7.438   4.904   6.875 -3.1525  0.1055 -2.6060
  137MOL   H23544027   7.303   5.023   7.017  0.4670 -0.7820 -2.0253
  137MOL   H23644028   7.341   5.212   7.192 -0.4737  0.2553 -0.2829
  137MOL   H23744029   7.455   5.277   7.057 -0.3899 -0.1636 -1.8940
  137MOL   H23844030   7.284   5.275   7.048  0.6323  1.9671  0.6244
  137MOL   H23944031   7.524   4.913   7.103  2.9550  1.2110  1.1148
  137MOL   H24044032   7.465   5.002   7.234  3.3502 -0.4591  0.6295
  137MOL   H24144033   7.567   5.086   7.161 -0.8690  2.1590 -1.9147
  137MOL   C24244034   7.619   5.003   6.785 -0.2086 -0.0466  0.1827
  137MOL   C24344035   7.729   4.953   6.886  0.2845  0.1756  0.8878
  137MOL   O24444036   0.034   5.021   6.861 -0.0174  0.2699 -0.3961
  137MOL   C24544037   0.039   5.154   6.914  0.0057 -0.2704  0.7286
  137MOL   C24644038   0.056   5.154   7.071 -0.1881 -0.0700 -0.5352
  137MOL   C24744039   0.162   5.223   6.855 -0.2940  0.2126  0.1781
  137MOL   H24844040   7.639   4.944   6.695 -1.2618  1.3041 -0.9557
  137MOL   H24944041   7.629   5.111   6.772 -3.3241  0.0733 -1.6003
  137MOL   H25044042   7.704   4.966   6.991  1.7613 -2.8525  1.6792
  137MOL   H25144043   7.773   5.214   6.889 -1.1182 -0.4851  3.8821
  137MOL   H25244044   0.141   5.089   7.089 -0.8863 -0.9273 -0.3273
  137MOL   H25344045   0.083   5.252   7.110  2.7722 -1.7849  1.9797
  137MOL   H25444046   7.789   5.111   7.120 -0.6992  0.5479 -0.8816
  137MOL   H25544047   0.158   5.324   6.896 -1.9938 -0.2209  1.1739
  137MOL   H25644048   0.246   5.166   6.893  0.4728  0.7291 -0.7380
  137MOL   H25744049   0.161   5.214   6.747 -0.6888  0.7591  0.1332
  137MOL   C25844050   7.773   4.808   6.864  0.1957 -0.0487 -0.4034
  137MOL   C25944051   7.657   4.705   6.896 -0.4068  0.3299 -1.1410
  137MOL   O26044052   7.722   4.594   6.963  0.4361  0.2695  0.4044
  137MOL   C26144053   7.710   4.580   7.104  0.0384  0.0128 -0.3502
  137MOL   C26244054   7.744   4.432   7.134  0.5219  0.0701  0.0540
  137MOL   C26344055   7.816   4.665   7.173  0.7121 -0.4987  0.5623
  137MOL   H26444056   7.802   4.784   6.762  1.3564  1.3949 -0.4374
  137MOL   H26544057   0.032   4.795   6.939  0.4780  2.3114 -0.2718
  137MOL   H26644058   7.577   4.747   6.957 -0.1780 -0.7621 -0.0657
  137MOL   H26744059   7.609   4.602   7.141 -0.7887 -0.0682 -2.4876
  137MOL   H26844060   0.020   4.399   7.096  0.5386 -0.4750  0.5468
  137MOL   H26944061   7.674   4.382   7.066 -1.0736  1.1554  0.8682
  137MOL   H27044062   7.731   4.392   7.235  1.4607 -1.6862 -0.4919
  137MOL   H27144063   0.013   4.640   7.277  0.5228  0.1030  0.7415
  137MOL   H27244064   0.094   4.654   7.127  0.7299 -0.4049  0.5772
  137MOL   H27344065   7.784   4.769   7.166 -1.3684 -1.1487  0.3310
  137MOL   C27444066   7.579   4.648   6.781 -0.0814 -0.3964 -0.7199
  137MOL   C27544067   7.460   4.555   6.811 -0.2220 -0.0971  0.3138
  137MOL   O27644068   7.357   4.641   6.860 -0.1448  0.3030 -0.8536
  137MOL   C27744069   7.314   4.599   6.997 -0.2250  0.2298 -0.4151
  137MOL   C27844070   7.217   4.475   6.988  0.4583  0.5522 -0.4081
  137MOL   C27944071   7.223   4.715   7.051  1.0791 -0.1706 -0.4276
  137MOL   H28044072   7.547   4.718   6.704 -1.2847 -0.0683  0.0601
  137MOL   H28144073   7.665   4.599   6.734 -0.3746 -0.4931 -1.1613
  137MOL   H28244074   7.491   4.480   6.884 -0.2796 -0.2699  0.1607
  137MOL   H28344075   7.405   4.588   7.056  0.6280  3.6082 -1.0186
  137MOL   H28444076   7.268   4.380   6.975 -2.7283 -1.5070  1.5437
  137MOL   H28544077   7.167   4.464   7.085 -0.1403 -0.7176 -0.8497
  137MOL   H28644078   7.143   4.476   6.909 -0.5324 -0.4506  0.4921
  137MOL   H28744079   7.291   4.800   7.061 -2.5455  3.0545 -1.7223
  137MOL   H28844080   7.185   4.697   7.151  1.1051  3.0266  0.2171
  137MOL   H28944081   7.142   4.737   6.982  2.1972  1.9117 -1.1359
  137MOL   C29044082   7.406   4.488   6.680  0.5032  0.1247  0.2668
  137MOL   C29144083   7.489   4.370   6.613  0.3169 -0.3950  0.2279
  137MOL   O29244084   7.522   4.270   6.701 -0.1749 -0.4450 -0.0731
  137MOL   C29344085   7.655   4.270   6.756  0.0595 -0.4454  0.2532
  137MOL   C29444086   7.753   4.214   6.652  0.5477  0.1308  0.2836
  137MOL   C29544087   7.642   4.172   6.873  0.2468 -0.0617 -0.1591
  137MOL   H29644088   7.388   4.564   6.604  0.5754 -0.4472 -0.3262
  137MOL   H29744089   7.305   4.452   6.701  0.3861  0.2758 -0.0401
  137MOL   H29844090   7.588   4.402   6.581  0.2101 -1.8590 -1.6779
  137MOL   H29944091   7.689   4.364   6.799 -3.0758 -0.0049  1.9598
  137MOL   H30044092   0.022   4.166   6.692  0.9808  0.2411 -0.5396
  137MOL   H30144093   7.704   4.133   6.599  0.7389  0.8564 -1.0177
  137MOL   H30244094   7.779   4.290   6.578  1.6926 -0.1233  0.4163
  137MOL   H30344095   7.724   4.177   6.945  1.2626  1.8507 -1.4032
  137MOL   H30444096   7.553   4.195   6.931 -0.7858 -2.1061 -0.8750
  137MOL   H30544097   7.614   4.071   6.843  0.5112 -0.5798  1.2834
  137MOL   C30644098   7.410   4.318   6.489 -0.3526 -0.4494 -0.6009
  137MOL   C30744099   7.485   4.218   6.406 -0.8366  0.0279 -0.6145
  137MOL   O30844100   7.609   4.278   6.347  0.3938  0.2018 -0.0063
  137MOL   C30944101   7.693   4.187   6.273  0.1538  0.4385  0.7248
  137MOL   C31044102   7.625   4.120   6.151  0.4947 -0.1371  0.6326
  137MOL   C31144103   7.818   4.261   6.226 -0.0011 -0.3528  0.0361
  137MOL   H31244104   7.371   4.397   6.424  1.2664  1.3629  0.5571
  137MOL   H31344105   7.323   4.264   6.525 -0.6130 -1.1535 -2.2387
  137MOL   H31444106   7.511   4.128   6.461 -0.3698 -1.1905 -2.7784
  137MOL   H31544107   7.744   4.111   6.332 -0.3731  1.0186  1.9470
  137MOL   H31644108   7.684   4.041   6.105  0.7190 -0.0313  0.7395
  137MOL   H31744109   7.596   4.188   6.072  2.1399 -0.3109 -0.1311
  137MOL   H31844110   7.536   4.071   6.191 -0.1245 -2.1896 -3.0568
  137MOL   H31944111   0.069   4.210   6.161  0.9253  0.2646  0.5541
  137MOL   H32044112   0.053   4.297   6.313 -2.6901 -1.2572  2.1769
  137MOL   H32144113   7.773   4.346   6.175  1.0745  0.1733 -0.0542
  137MOL   H32244114   7.426   4.205   6.315 -0.6504 -0.2635 -0.6954
  138MOL     C144115   2.925   4.665   3.864  0.3323 -0.3276  0.0463
  138MOL     C244116   2.843   4.640   3.740 -0.9641 -0.2553  0.4085
  138MOL     O344117   2.933   4.643   3.628  0.4608  0.4041 -0.1083
  138MOL     C444118   2.989   4.765   3.592  0.3923  0.3443 -0.0984
  138MOL     C544119   2.925   4.823   3.465 -0.3346  0.3256 -0.4727
  138MOL     C644120   3.127   4.735   3.563 -0.1291  0.1352  0.1342
  138MOL     H744121   3.018   4.609   3.870  2.1957  2.6778 -0.2118
  138MOL     H844122   2.934   4.770   3.890  0.9532 -0.6110  0.9739
  138MOL     H944123   2.769   4.713   3.708 -0.2369  1.3051  2.2809
  138MOL    H1044124   2.989   4.835   3.676  2.0855  2.5189 -1.8714
  138MOL    H1144125   2.959   4.772   3.375 -1.1480  1.6872 -1.5652
  138MOL    H1244126   2.816   4.812   3.465 -0.2072 -1.0941  0.1379
  138MOL    H1344127   2.947   4.929   3.457  0.7896  0.3753  2.5407
  138MOL    H1444128   3.150   4.671   3.477  0.5023 -0.4080  0.7015
  138MOL    H1544129   3.181   4.829   3.548  0.2641  0.1085  1.3068
  138MOL    H1644130   3.179   4.684   3.644  0.6411  0.3095 -0.2451
  138MOL    H1744131   2.863   4.624   3.943  1.4806  2.7500  2.6442
  138MOL    C1844132   2.783   4.499   3.739 -0.5627 -0.5272  0.4538
  138MOL    C1944133   2.638   4.505   3.784 -0.0815  0.3649 -0.8272
  138MOL    O2044134   2.605   4.371   3.822  0.6089 -0.2380  0.1582
  138MOL    C2144135   2.637   4.342   3.955  0.8160 -0.3468  0.4452
  138MOL    C2244136   2.724   4.213   3.977 -0.6131 -0.2641  0.3173
  138MOL    C2344137   2.511   4.343   4.042  0.1087 -0.2449  0.1686
  138MOL    H2444138   2.804   4.454   3.642 -2.1237  0.7433 -0.5090
  138MOL    H2544139   2.831   4.429   3.807  0.6272  0.4423  0.6349
  138MOL    H2644140   2.641   4.577   3.866 -0.6996 -0.6678  0.1153
  138MOL    H2744141   2.703   4.416   4.001  1.3280 -0.3666 -0.2522
  138MOL    H2844142   2.685   4.136   3.912 -2.2313  1.2471 -0.5393
  138MOL    H2944143   2.827   4.227   3.947  0.0151 -0.4489  2.2785
  138MOL    H3044144   2.734   4.195   4.084  1.9730 -0.6281  0.0332
  138MOL    H3144145   2.447   4.259   4.015  1.0249 -1.4805  1.8148
  138MOL    H3244146   2.460   4.438   4.026  1.3584  0.6883  1.5015
  138MOL    H3344147   2.535   4.330   4.147 -0.8502 -0.0627  0.4081
  138MOL    C3444148   2.536   4.552   3.677 -0.0075 -0.4957 -0.0889
  138MOL    C3544149   2.389   4.579   3.723  0.0828 -0.4700 -0.6584
  138MOL    O3644150   2.328   4.683   3.645 -0.9309 -0.3942  0.4310
  138MOL    C3744151   2.372   4.814   3.675 -0.8263  0.3737  0.9127
  138MOL    C3844152   2.359   4.891   3.542  0.2948  1.0369 -0.1660
  138MOL    C3944153   2.304   4.869   3.804 -0.6495 -0.2741  0.0663
  138MOL    H4044154   2.538   4.493   3.585  0.9845  0.5661 -0.7677
  138MOL    H4144155   2.572   4.640   3.623  3.2137 -2.1578 -0.8093
  138MOL    H4244156   2.396   4.612   3.827  0.8159  0.9462 -1.1470
  138MOL    H4344157   2.476   4.823   3.707 -0.7433 -1.6242  1.2327
  138MOL    H4444158   2.444   4.885   3.474  0.1174 -0.5187 -0.2685
  138MOL    H4544159   2.364   4.997   3.569  1.3393  1.0471 -0.3644
  138MOL    H4644160   2.266   4.867   3.490 -1.4947 -0.9847  3.6967
  138MOL    H4744161   2.318   4.977   3.802  0.0751 -0.3643  0.0345
  138MOL    H4844162   2.197   4.851   3.800 -0.6023 -0.2722 -1.6531
  138MOL    H4944163   2.359   4.827   3.888 -2.2545  2.1431  2.3840
  138MOL    C5044164   2.305   4.449   3.725  0.2274  0.3848  0.3354
  138MOL    C5144165   2.157   4.462   3.767  0.0295  0.0239 -0.1688
  138MOL    O5244166   2.140   4.462   3.911  0.5098 -0.1073 -0.5663
  138MOL    C5344167   2.097   4.578   3.969  0.1740 -0.2953  0.0670
  138MOL    C5444168   2.197   4.617   4.080 -0.0096  0.4627  0.2275
  138MOL    C5544169   1.964   4.552   4.032 -0.0268 -0.1065  0.4789
  138MOL    H5644170   2.310   4.398   3.629 -2.1185  1.6090 -0.4664
  138MOL    H5744171   2.355   4.384   3.796  0.6822 -1.6143 -1.7662
  138MOL    H5844172   2.108   4.546   3.718 -0.2678  0.2878  0.5635
  138MOL    H5944173   2.104   4.666   3.905  2.7176 -0.6357 -0.1480
  138MOL    H6044174   2.238   4.533   4.136  1.5921  2.0527  1.4945
  138MOL    H6144175   2.143   4.685   4.147 -1.0049 -0.9143  0.8713
  138MOL    H6244176   2.284   4.673   4.046 -1.7457  2.3707 -1.1987
  138MOL    H6344177   1.966   4.469   4.103 -0.9491 -1.6009 -1.1969
  138MOL    H6444178   1.887   4.537   3.956 -1.3331 -0.5376  1.8449
  138MOL    H6544179   1.928   4.647   4.073  0.7462 -0.0863  1.1271
  138MOL    C6644180   2.073   4.343   3.713  1.0977  0.5933  0.3771
  138MOL    C6744181   2.027   4.348   3.565  0.1124  0.2864  0.3386
  138MOL    O6844182   1.913   4.427   3.576  0.1216  0.6135 -0.4444
  138MOL    C6944183   1.876   4.517   3.466  0.0447  0.5531  0.2468
  138MOL    C7044184   1.738   4.583   3.498 -0.3477  0.1901  0.0564
  138MOL    C7144185   1.987   4.618   3.430 -0.2792 -0.1472  0.6102
  138MOL    H7244186   2.120   4.246   3.731 -1.7423 -0.6044  1.6702
  138MOL    H7344187   1.987   4.341   3.780  1.5229 -0.0831  0.8999
  138MOL    H7444188   2.107   4.378   3.498  0.1071  0.8767  0.5950
  138MOL    H7544189   1.851   4.458   3.377 -0.0862  1.7614 -0.5338
  138MOL    H7644190   1.709   4.654   3.421 -2.4750 -0.0249  0.6496
  138MOL    H7744191   1.665   4.503   3.512 -0.3188  0.4186  1.6003
  138MOL    H7844192   1.757   4.641   3.588 -0.2560 -1.4648  1.1350
  138MOL    H7944193   2.083   4.567   3.420  1.5650  3.5541 -1.3723
  138MOL    H8044194   2.013   4.684   3.513  3.0851 -0.8669  0.2072
  138MOL    H8144195   1.974   4.678   3.340 -1.1722 -2.5345 -0.8982
  138MOL    C8244196   1.970   4.217   3.513 -0.4192  0.3701  0.6908
  138MOL    C8344197   2.074   4.102   3.496  0.3632  1.0325 -0.7835
  138MOL    O8444198   2.011   3.978   3.468  0.5345 -0.2791  0.4066
  138MOL    C8544199   1.943   3.904   3.568  0.3891  0.0712 -0.2845
  138MOL    C8644200   2.029   3.812   3.659  0.5763 -0.4969  0.7708
  138MOL    C8744201   1.808   3.844   3.518 -0.4503  0.5453 -0.4118
  138MOL    H8844202   1.894   4.191   3.587 -0.2363 -2.0573  0.0617
  138MOL    H8944203   1.913   4.229   3.421 -0.4294  0.0785  0.6563
  138MOL    H9044204   2.132   4.086   3.587  2.1250  0.3535 -1.9796
  138MOL    H9144205   1.912   3.988   3.631  0.4756  0.4377 -0.7281
  138MOL    H9244206   2.106   3.869   3.710 -1.4661 -0.5729  4.0969
  138MOL    H9344207   1.962   3.772   3.736 -3.2007  0.1732 -2.0103
  138MOL    H9444208   2.060   3.723   3.604  1.0995  0.0566  0.1688
  138MOL    H9544209   1.812   3.749   3.465 -1.9768 -0.6404  1.5172
  138MOL    H9644210   1.755   3.812   3.608  2.4737 -1.6303  0.6026
  138MOL    H9744211   1.745   3.913   3.462  1.1045  2.3902  0.0508
  138MOL    C9844212   2.157   4.130   3.366  0.2030 -0.9055  0.7675
  138MOL    C9944213   2.292   4.070   3.354  0.9256 -0.0082  0.1725
  138MOL   O10044214   2.371   4.153   3.435 -0.2210  0.1395  0.2022
  138MOL   C10144215   2.469   4.090   3.515  0.5232 -0.3198  0.3636
  138MOL   C10244216   2.403   4.047   3.644  0.8643 -0.4640 -0.2029
  138MOL   C10344217   2.579   4.188   3.539  0.3530  0.5832 -0.0046
  138MOL   H10444218   2.111   4.091   3.274 -1.2100  3.4768 -0.4813
  138MOL   H10544219   2.179   4.235   3.352  0.7748 -1.3293 -1.7464
  138MOL   H10644220   2.282   3.971   3.397  1.2204  0.5460  1.5441
  138MOL   H10744221   2.507   4.004   3.460 -2.2007 -1.6908  0.4975
  138MOL   H10844222   2.381   4.133   3.707 -1.0903 -1.2070  0.1580
  138MOL   H10944223   2.484   3.998   3.698  0.3769 -0.3416  0.6425
  138MOL   H11044224   2.310   3.993   3.629  0.4500 -0.0234  0.7772
  138MOL   H11144225   2.656   4.148   3.605 -1.2403 -1.0732  0.8968
  138MOL   H11244226   2.539   4.275   3.590 -0.2409  0.4354 -0.2218
  138MOL   H11344227   2.613   4.223   3.442  0.2318 -1.8067 -0.9516
  138MOL   C11444228   2.344   4.048   3.210 -0.8723  0.6274  0.4685
  138MOL   C11544229   2.401   4.172   3.132  0.4485 -0.4468 -0.1312
  138MOL   O11644230   2.474   4.123   3.023  0.6399  0.1293 -0.2706
  138MOL   C11744231   2.608   4.070   3.037  0.1128 -0.7011 -0.4666
  138MOL   C11844232   2.717   4.181   3.037 -0.4878 -0.6046 -0.0199
  138MOL   C11944233   2.634   3.958   2.932  0.6455 -0.4250  0.0627
  138MOL   H12044234   2.268   4.001   3.148 -1.3778  0.5792  1.1088
  138MOL   H12144235   2.418   3.969   3.223  0.2426  1.6502  0.3875
  138MOL   H12244236   2.455   4.241   3.196  1.2208  0.4221 -1.6760
  138MOL   H12344237   2.622   4.015   3.130  1.8584  2.2860  1.1255
  138MOL   H12444238   2.691   4.253   2.959  2.0718  0.8028  0.3954
  138MOL   H12544239   2.821   4.153   3.026 -0.0091  0.5621  1.3925
  138MOL   H12644240   2.717   4.247   3.123 -2.2497 -2.1493  1.2141
  138MOL   H12744241   2.725   3.908   2.966  0.8904 -0.0590 -0.0476
  138MOL   H12844242   2.651   3.989   2.829 -0.7350  0.7179  0.1594
  138MOL   H12944243   2.551   3.888   2.930 -0.5087  0.9488 -2.7163
  138MOL   C13044244   2.286   4.256   3.063 -0.2367  0.7722  0.6613
  138MOL   C13144245   2.330   4.398   3.020 -0.5189 -0.0919  0.0955
  138MOL   O13244246   2.318   4.487   3.134 -0.0684  0.7317 -0.3584
  138MOL   C13344247   2.416   4.592   3.146  0.2134 -0.2987 -0.5220
  138MOL   C13444248   2.366   4.679   3.255  0.0617 -0.7974 -1.0980
  138MOL   C13544249   2.549   4.532   3.187 -0.0056 -0.2233 -0.6849
  138MOL   H13644250   2.196   4.269   3.122  0.6615 -1.2750  2.5421
  138MOL   H13744251   2.255   4.195   2.978  1.9511 -0.9895  1.0929
  138MOL   H13844252   2.435   4.395   2.990  0.0838 -0.5540  2.1378
  138MOL   H13944253   2.417   4.644   3.051  1.6400 -1.2160 -1.0246
  138MOL   H14044254   2.260   4.701   3.244 -0.0156  0.1578  1.2689
  138MOL   H14144255   2.428   4.768   3.265 -1.6140  0.6505 -3.2852
  138MOL   H14244256   2.374   4.639   3.356  1.6312  1.8160 -0.1371
  138MOL   H14344257   2.528   4.452   3.258 -0.7556 -0.9970 -1.7397
  138MOL   H14444258   2.606   4.493   3.103  0.0749 -1.2050 -0.1813
  138MOL   H14544259   2.607   4.613   3.230  0.4188  0.7313 -2.9659
  138MOL   C14644260   2.266   4.469   2.899 -0.3637 -0.1384  0.3033
  138MOL   C14744261   2.287   4.398   2.760  0.1675 -0.4153  0.0234
  138MOL   O14844262   2.181   4.429   2.664  0.2479 -0.1788  0.0361
  138MOL   C14944263   2.054   4.385   2.696 -0.1237  0.2598 -0.3501
  138MOL   C15044264   2.002   4.288   2.590  0.0513 -0.6021 -0.5740
  138MOL   C15144265   1.967   4.515   2.713  0.4131  0.6900 -0.1107
  138MOL   H15244266   2.312   4.567   2.888 -1.0694  0.0525 -1.0013
  138MOL   H15344267   2.160   4.486   2.914 -0.4157  0.9426 -1.1802
  138MOL   H15444268   2.288   4.289   2.760 -1.0513 -0.4280 -1.4655
  138MOL   H15544269   2.053   4.329   2.790  1.9013  0.2613 -0.3067
  138MOL   H15644270   2.080   4.213   2.578  1.9390  1.4941 -1.9240
  138MOL   H15744271   1.990   4.329   2.489  2.0268  4.2633  1.0079
  138MOL   H15844272   1.913   4.239   2.628 -0.2695 -0.3023 -0.9350
  138MOL   H15944273   1.863   4.489   2.735  1.3791 -3.0337  0.3246
  138MOL   H16044274   1.968   4.566   2.616 -1.5988  1.3387  0.1796
  138MOL   H16144275   2.009   4.586   2.784  0.8429  0.9966 -0.6624
  138MOL   C16244276   2.425   4.433   2.692  0.4427  0.4500 -0.1908
  138MOL   C16344277   2.471   4.331   2.584  0.4262 -0.2294  0.1198
  138MOL   O16444278   2.583   4.376   2.496  0.2409  0.4079 -0.8963
  138MOL   C16544279   2.540   4.448   2.390 -0.1485  0.5889  0.1496
  138MOL   C16644280   2.536   4.350   2.269  0.3257  0.8982  0.1414
  138MOL   C16744281   2.631   4.566   2.363  0.6664 -0.5674  0.8873
  138MOL   H16844282   2.419   4.533   2.649  0.5812  0.5451  0.0074
  138MOL   H16944283   2.499   4.434   2.772  0.5696 -0.1492 -0.2951
  138MOL   H17044284   2.384   4.300   2.526 -0.1472  1.2436  0.1786
  138MOL   H17144285   2.441   4.489   2.405 -0.5128  1.0873 -3.2442
  138MOL   H17244286   2.498   4.250   2.287 -2.6714  1.9400 -0.0255
  138MOL   H17344287   2.634   4.342   2.223  0.2878 -1.3713  0.4410
  138MOL   H17444288   2.471   4.393   2.191 -1.1280 -1.3321  0.0859
  138MOL   H17544289   2.647   4.634   2.447  0.6824 -1.0608  1.2864
  138MOL   H17644290   2.584   4.628   2.287  0.4305 -1.0834  0.6061
  138MOL   H17744291   2.722   4.532   2.313 -0.1117  0.3514 -1.2024
  138MOL   C17844292   2.532   4.201   2.651 -0.2410  0.1864  0.3214
  138MOL   C17944293   2.550   4.080   2.552  0.3766  0.2631  0.1831
  138MOL   O18044294   2.683   4.020   2.562 -0.2588 -0.0169 -0.2514
  138MOL   C18144295   2.781   4.105   2.506  0.4163  0.3346 -0.0010
  138MOL   C18244296   2.820   4.032   2.372  0.1873 -0.4920  0.1055
  138MOL   C18344297   2.892   4.115   2.617 -0.1905  0.3951  0.3929
  138MOL   H18444298   2.473   4.182   2.740 -0.8668 -1.2907 -0.3987
  138MOL   H18544299   2.628   4.224   2.699  0.4918 -0.3190 -0.8719
  138MOL   H18644300   2.550   4.105   2.446 -1.3530 -3.1902 -0.6861
  138MOL   H18744301   2.749   4.206   2.480  1.6990  1.3856  2.3661
  138MOL   H18844302   2.909   4.083   2.336 -0.1539  0.1101  0.1051
  138MOL   H18944303   2.737   4.044   2.302  0.6356  0.8035 -0.2165
  138MOL   H19044304   2.844   3.927   2.390  1.0097 -0.2182  0.6417
  138MOL   H19144305   2.848   4.150   2.710 -0.4154  1.3086 -0.0412
  138MOL   H19244306   2.969   4.186   2.588 -0.4365 -0.2463 -1.9939
  138MOL   H19344307   2.936   4.016   2.615  1.7164  1.2424 -2.4146
  138MOL   C19444308   2.458   3.966   2.587  0.0414  0.5915  0.2513
  138MOL   C19544309   2.305   3.995   2.565  1.0881  0.2879 -0.7509
  138MOL   O19644310   2.234   3.874   2.602 -0.4168 -0.4602  0.3736
  138MOL   C19744311   2.115   3.902   2.682  0.4316 -0.7066 -0.9792
  138MOL   C19844312   2.025   3.781   2.692  0.4018 -0.3642 -0.5451
  138MOL   C19944313   2.160   3.929   2.830  0.0714 -0.7181 -0.2848
  138MOL   H20044314   2.488   3.881   2.525  1.3590 -0.4808  2.3112
  138MOL   H20144315   2.469   3.944   2.693 -1.2699  3.2311  0.9726
  138MOL   H20244316   2.280   4.074   2.636  2.3657 -1.3506  1.6109
  138MOL   H20344317   2.055   3.987   2.652 -1.0091 -0.7572  1.5725
  138MOL   H20444318   1.946   3.809   2.763 -0.6152  0.4906 -1.9858
  138MOL   H20544319   1.981   3.747   2.598 -1.4398 -2.6157  1.0644
  138MOL   H20644320   2.095   3.706   2.730 -0.7150 -0.7402  0.8233
  138MOL   H20744321   2.075   3.929   2.898  1.3332 -2.5269  1.3385
  138MOL   H20844322   2.230   3.853   2.863  3.0708  1.1518 -2.1206
  138MOL   H20944323   2.211   4.024   2.845  1.2989 -1.3002 -0.7416
  138MOL   C21044324   2.261   4.035   2.424 -0.3536  0.1008 -0.0309
  138MOL   C21144325   2.291   3.943   2.303  0.2129  0.0888 -0.5233
  138MOL   O21244326   2.175   3.910   2.230 -0.0600  0.1578 -0.2567
  138MOL   C21344327   2.107   3.802   2.291 -0.2290  0.4487  0.4499
  138MOL   C21444328   1.960   3.810   2.245  0.1873 -0.5446  0.0560
  138MOL   C21544329   2.170   3.671   2.239  0.7471  0.1225  0.5074
  138MOL   H21644330   2.307   4.133   2.411  0.8931 -0.6324 -1.2831
  138MOL   H21744331   2.158   4.069   2.414  0.1392  1.8830  0.7116
  138MOL   H21844332   2.343   3.851   2.329  2.8994  1.4332 -1.0334
  138MOL   H21944333   2.119   3.808   2.400  0.3592  1.1814  0.3512
  138MOL   H22044334   1.950   3.803   2.137  1.5128 -2.5994  0.0336
  138MOL   H22144335   1.913   3.902   2.279 -0.7874 -1.3585  0.9511
  138MOL   H22244336   1.893   3.739   2.293 -0.0256  1.4490  2.8791
  138MOL   H22344337   2.190   3.681   2.133 -1.7612  1.2975  0.1324
  138MOL   H22444338   2.111   3.582   2.263  1.2440 -0.2925  0.1992
  138MOL   H22544339   2.260   3.648   2.297  0.7761  2.9016  1.6618
  138MOL   C22644340   2.380   4.015   2.204  0.1633 -0.3418  0.4698
  138MOL   C22744341   2.442   3.918   2.094 -0.2713  0.2688  0.1660
  138MOL   O22844342   2.559   3.859   2.158  0.0955  0.1857 -0.4113
  138MOL   C22944343   2.571   3.723   2.169  0.6426  0.6595  0.0702
  138MOL   C23044344   2.642   3.678   2.308  0.0077 -0.3655  0.5052
  138MOL   C23144345   2.639   3.668   2.035 -0.1458  0.1859 -1.1357
  138MOL   H23244346   2.470   4.044   2.259 -0.5028  0.4307  1.1552
  138MOL   H23344347   2.319   4.099   2.170  0.9515  0.2739  0.5502
  138MOL   H23444348   2.371   3.842   2.059  0.5596  0.2039 -1.4248
  138MOL   H23544349   2.471   3.678   2.168  1.1513 -0.5511  1.6305
  138MOL   H23644350   2.626   3.570   2.318  0.8413 -0.4641  0.8357
  138MOL   H23744351   2.751   3.687   2.300 -0.0257 -0.8967 -0.6014
  138MOL   H23844352   2.618   3.725   2.403 -0.5953  0.9292 -0.2818
  138MOL   H23944353   2.726   3.729   2.012  0.7503 -1.2480 -1.6181
  138MOL   H24044354   2.580   3.676   1.944 -0.7524 -1.0475 -0.8759
  138MOL   H24144355   2.663   3.562   2.045 -0.4959  0.1997 -0.0925
  138MOL   C24244356   2.496   3.986   1.969 -0.1917  0.4570  0.0061
  138MOL   C24344357   2.382   4.030   1.873 -0.2868  0.6195  0.0979
  138MOL   O24444358   2.322   3.910   1.822 -0.3054 -0.4719  0.0803
  138MOL   C24544359   2.180   3.888   1.834  0.2511 -0.0483 -0.3125
  138MOL   C24644360   2.108   3.950   1.716 -0.3925  0.1298  0.9205
  138MOL   C24744361   2.161   3.729   1.828 -0.3471 -0.8890 -0.1036
  138MOL   H24844362   2.563   4.070   1.989  1.1876 -0.5800 -0.1973
  138MOL   H24944363   2.564   3.920   1.916 -1.3972 -0.0924 -0.8959
  138MOL   H25044364   2.310   4.079   1.939 -1.6695 -0.8106 -0.3207
  138MOL   H25144365   2.134   3.919   1.928  0.6694 -2.2069  0.6302
  138MOL   H25244366   2.003   3.923   1.713 -0.8611  1.9368  0.4785
  138MOL   H25344367   2.117   4.059   1.713  1.5961 -0.0575 -1.7253
  138MOL   H25444368   2.150   3.914   1.622 -0.2349  1.8901  0.2980
  138MOL   H25544369   2.196   3.706   1.727  1.1225 -0.4705  0.2998
  138MOL   H25644370   2.221   3.679   1.904 -0.3441 -0.0616  0.4488
  138MOL   H25744371   2.055   3.707   1.841 -0.7518  1.1557  0.3693
  138MOL   C25844372   2.438   4.105   1.753 -0.4993  0.4082  0.5776
  138MOL   C25944373   2.460   4.252   1.764  0.6257  0.1395 -0.0252
  138MOL   O26044374   2.578   4.289   1.838  0.5867  0.5310 -0.3411
  138MOL   C26144375   2.702   4.275   1.762 -0.0204  0.0780  0.7563
  138MOL   C26244376   2.781   4.410   1.773 -0.3364 -0.4804 -0.1386
  138MOL   C26344377   2.786   4.167   1.829 -0.3959 -0.2576  1.0225
  138MOL   H26444378   2.530   4.055   1.723 -1.2686 -1.7753  1.7416
  138MOL   H26544379   2.372   4.096   1.667  1.6932 -0.6961 -1.0308
  138MOL   H26644380   2.467   4.284   1.660  0.5564 -0.4914 -0.2321
  138MOL   H26744381   2.684   4.251   1.658 -0.0299  4.0106 -0.2302
  138MOL   H26844382   2.719   4.495   1.746  0.1226 -0.5286 -1.3435
  138MOL   H26944383   2.872   4.411   1.713 -0.4779 -0.9231 -0.3586
  138MOL   H27044384   2.806   4.420   1.879 -0.2898 -0.2563 -0.1697
  138MOL   H27144385   2.738   4.070   1.819 -2.6626  0.8713  0.7879
  138MOL   H27244386   2.881   4.138   1.783 -0.6697  1.1465 -0.4926
  138MOL   H27344387   2.821   4.185   1.930 -1.5772 -1.2055  1.6059
  138MOL   C27444388   2.342   4.328   1.841  0.2440  0.1109  0.0036
  138MOL   C27544389   2.332   4.479   1.805 -0.3296 -0.1382 -0.2395
  138MOL   O27644390   2.292   4.492   1.660 -0.3039  0.8006 -0.0807
  138MOL   C27744391   2.338   4.608   1.591 -1.0637 -0.5115  0.3993
  138MOL   C27844392   2.226   4.641   1.495  0.4612 -0.4077 -0.0660
  138MOL   C27944393   2.473   4.569   1.517 -0.1967 -0.2043 -0.3358
  138MOL   H28044394   2.247   4.286   1.810  0.6629 -2.0226  1.4708
  138MOL   H28144395   2.360   4.308   1.947 -0.7873  0.3212  0.2206
  138MOL   H28244396   2.435   4.509   1.823  0.1434 -0.9056 -1.5287
  138MOL   H28344397   2.363   4.681   1.668  1.0784 -1.2083  0.3884
  138MOL   H28444398   2.130   4.640   1.546  1.8115  2.9556  2.7320
  138MOL   H28544399   2.232   4.739   1.447 -4.9451 -0.3341 -0.8722
  138MOL   H28644400   2.214   4.562   1.421 -0.6987 -0.2307 -0.0732
  138MOL   H28744401   2.464   4.506   1.428 -0.8725  0.6249 -0.8528
  138MOL   H28844402   2.540   4.522   1.590 -3.1929 -0.3847  2.3960
  138MOL   H28944403   2.539   4.652   1.492  0.8512 -1.2480 -1.0875
  138MOL   C29044404   2.230   4.562   1.883  0.0932 -0.3820  0.1293
  138MOL   C29144405   2.270   4.579   2.024 -0.2983  0.3134  0.3062
  138MOL   O29244406   2.242   4.455   2.096 -0.4413  0.1220  0.1851
  138MOL   C29344407   2.116   4.452   2.174 -1.1264 -0.4191 -0.2676
  138MOL   C29444408   2.135   4.504   2.312 -0.2839 -0.2712 -0.4986
  138MOL   C29544409   2.080   4.301   2.169  0.7074  0.0761  0.4735
  138MOL   H29644410   2.134   4.510   1.879  1.0250 -2.4455  2.7810
  138MOL   H29744411   2.224   4.661   1.837  1.5174  0.6849  2.1502
  138MOL   H29844412   2.208   4.660   2.063 -3.3634 -1.8049  0.0189
  138MOL   H29944413   2.039   4.506   2.118  1.6403  2.0505 -1.7842
  138MOL   H30044414   2.179   4.603   2.318 -0.2403 -0.2086 -1.6998
  138MOL   H30144415   2.029   4.500   2.339 -0.8216 -1.3172 -2.5797
  138MOL   H30244416   2.190   4.434   2.374 -0.5810 -1.1104 -1.1620
  138MOL   H30344417   2.161   4.234   2.197  2.5859  1.3325 -1.7418
  138MOL   H30444418   1.986   4.270   2.214 -0.9633 -1.9313 -4.0516
  138MOL   H30544419   2.063   4.283   2.062  0.6003 -1.9403  0.8055
  138MOL   C30644420   2.406   4.630   2.056  0.1160 -0.2333 -0.4879
  138MOL   C30744421   2.428   4.776   2.004 -0.2983  0.6088  0.6997
  138MOL   O30844422   2.559   4.820   2.025 -0.1092 -0.2955 -0.2722
  138MOL   C30944423   2.616   4.896   1.923 -0.2347 -0.7722 -0.7742
  138MOL   C31044424   2.552   5.031   1.908  0.1018 -0.0321 -0.1938
  138MOL   C31144425   2.770   4.909   1.949 -0.3837 -0.1333 -0.6539
  138MOL   H31244426   2.489   4.567   2.026  0.6511  0.0377  0.3925
  138MOL   H31344427   2.413   4.649   2.163 -2.9148  2.0589 -0.6010
  138MOL   H31444428   2.408   4.789   1.897 -1.2721 -1.4274  0.6044
  138MOL   H31544429   2.610   4.843   1.828  1.1945 -1.2361 -0.6195
  138MOL   H31644430   2.566   5.085   2.001  0.3359 -2.6601  1.3428
  138MOL   H31744431   2.446   5.013   1.887  0.2032  1.3936 -2.0480
  138MOL   H31844432   2.584   5.096   1.826 -1.1601  2.7202  1.4220
  138MOL   H31944433   2.784   4.914   2.057 -0.3320 -1.4288 -0.5892
  138MOL   H32044434   2.806   4.997   1.896 -0.8679  0.2392 -0.3610
  138MOL   H32144435   2.826   4.826   1.905  1.5994  0.8199  0.0030
  138MOL   H32244436   2.373   4.854   2.057 -1.9565 -1.6021  2.3324
  139MOL     C144437   3.964   2.361   7.703 -0.2278 -0.7721 -0.4134
  139MOL     C244438   3.994   2.402   7.561  0.0699  0.2006  0.4635
  139MOL     O344439   4.068   2.288   7.514 -0.2267  0.1153  0.0591
  139MOL     C444440   4.206   2.313   7.475  1.2058 -0.0658 -0.3513
  139MOL     C544441   4.235   2.231   7.353 -0.4288 -0.1373 -0.8475
  139MOL     C644442   4.296   2.287   7.600  0.4020  0.2775 -0.0966
  139MOL     H744443   3.916   2.263   7.698  0.6969 -1.4208  2.3811
  139MOL     H844444   4.058   2.354   7.759 -0.7218 -1.6758  0.3155
  139MOL     H944445   4.058   2.490   7.569  2.0028 -1.1242  0.1098
  139MOL    H1044446   4.222   2.418   7.451  0.4254  0.0552 -0.3808
  139MOL    H1144447   4.216   2.126   7.375  0.5662 -1.2506 -4.9878
  139MOL    H1244448   4.176   2.250   7.263 -2.2196 -1.1128  0.0804
  139MOL    H1344449   4.342   2.234   7.334 -0.2211  2.9341  0.3875
  139MOL    H1444450   4.264   2.355   7.680 -1.5620 -0.2225 -0.4596
  139MOL    H1544451   4.292   2.182   7.629  2.9415 -0.7263 -3.0373
  139MOL    H1644452   4.397   2.321   7.577  1.7356 -2.4921  1.4598
  139MOL    H1744453   3.915   2.438   7.762 -1.4266 -0.3506 -1.9162
  139MOL    C1844454   3.877   2.415   7.460  0.0492  0.3390  0.6589
  139MOL    C1944455   3.838   2.556   7.411  0.6555 -0.2030  0.1888
  139MOL    O2044456   3.935   2.598   7.318  0.5182  0.2952  0.1770
  139MOL    C2144457   3.951   2.542   7.184  0.2317  0.7263  0.1126
  139MOL    C2244458   4.096   2.561   7.156 -0.7704  0.4730 -0.2488
  139MOL    C2344459   3.857   2.601   7.078  0.7201 -0.6784  1.1451
  139MOL    H2444460   3.891   2.349   7.375  0.4176  1.6226 -0.2999
  139MOL    H2544461   3.787   2.375   7.506  0.2956 -1.3927 -0.3308
  139MOL    H2644462   3.742   2.547   7.358  0.4181 -0.5542  0.6734
  139MOL    H2744463   3.929   2.436   7.191 -1.3911  1.0986  0.8556
  139MOL    H2844464   4.121   2.549   7.050 -2.9892  2.4517 -1.0393
  139MOL    H2944465   4.116   2.666   7.177  0.0128  0.4255 -0.7108
  139MOL    H3044466   4.166   2.510   7.222 -1.5098  0.8694  0.8539
  139MOL    H3144467   3.869   2.708   7.067  1.0835 -0.9545 -1.4023
  139MOL    H3244468   3.753   2.583   7.105  0.8680 -1.4002  1.2563
  139MOL    H3344469   3.874   2.554   6.981  0.3709  0.0849  0.7162
  139MOL    C3444470   3.806   2.665   7.519 -0.6662 -0.6645  0.0688
  139MOL    C3544471   3.677   2.646   7.589  0.2633 -0.4645 -0.1147
  139MOL    O3644472   3.681   2.730   7.703 -0.4209 -0.0954  0.0860
  139MOL    C3744473   3.617   2.686   0.002 -0.7718  0.1101 -0.4641
  139MOL    C3844474   3.718   2.602   0.077  0.8071  0.1865 -0.0853
  139MOL    C3944475   3.572   2.816   0.095 -0.0546  0.2734 -0.3482
  139MOL    H4044476   3.813   2.771   7.492 -1.8354 -0.3162  1.0877
  139MOL    H4144477   3.887   2.642   7.588 -2.4338 -0.9362  2.0682
  139MOL    H4244478   3.663   2.541   7.618 -0.3661 -0.0749  1.0329
  139MOL    H4344479   3.534   2.618   7.803 -0.0168 -1.2571  1.0422
  139MOL    H4444480   3.718   2.504   0.029  1.9620  0.7273 -1.2191
  139MOL    H4544481   3.711   2.589   0.185 -0.1725  0.2896 -0.1356
  139MOL    H4644482   3.819   2.641   0.071  0.7552  0.4774  0.8845
  139MOL    H4744483   3.546   2.779   0.194 -1.7412 -0.3515 -0.9964
  139MOL    H4844484   3.655   2.883   0.115 -0.1890  0.4754 -0.4599
  139MOL    H4944485   3.485   2.865   0.051 -0.4768 -0.8482 -0.7775
  139MOL    C5044486   3.556   2.697   7.505 -0.2584  0.4039 -0.0871
  139MOL    C5144487   3.418   2.698   7.573 -0.0848  0.2382  0.1683
  139MOL    O5244488   3.398   2.559   7.601  0.0964  0.2041  0.6740
  139MOL    C5344489   3.279   2.518   7.657  0.6755 -0.3774  0.0255
  139MOL    C5444490   3.264   2.558   7.803 -0.3479  0.0546 -0.6020
  139MOL    C5544491   3.263   2.366   7.634 -0.1967  0.9968 -0.6195
  139MOL    H5644492   3.587   2.794   7.464  1.3118  0.4649  1.2085
  139MOL    H5744493   3.535   2.636   7.417 -4.2189 -2.2614  2.5947
  139MOL    H5844494   3.432   2.754   7.665  2.4076 -0.8774  0.5077
  139MOL    H5944495   3.198   2.563   7.600  0.9411  0.9609  0.7102
  139MOL    H6044496   3.278   2.666   7.807  1.4499 -0.1688 -0.1158
  139MOL    H6144497   3.330   2.510   0.055  0.2184 -0.1469 -1.2384
  139MOL    H6244498   3.165   2.533   0.019  0.1003 -1.0702 -0.1100
  139MOL    H6344499   3.187   2.316   7.693  2.4654  0.6474  2.7003
  139MOL    H6444500   3.348   2.314   7.679 -1.2005 -1.7492 -1.7964
  139MOL    H6544501   3.254   2.343   7.528  0.1563 -0.4907 -0.3396
  139MOL    C6644502   3.308   2.765   7.482 -0.7458  0.3665 -0.1587
  139MOL    C6744503   3.197   2.838   7.545  0.4291 -0.2794  1.0832
  139MOL    O6844504   3.102   2.847   7.441  0.1184  0.3786  0.0878
  139MOL    C6944505   3.011   2.734   7.423  0.6344  0.2360  0.6607
  139MOL    C7044506   2.927   2.707   7.549 -0.3836 -0.1611  0.3604
  139MOL    C7144507   2.909   2.792   7.322 -0.6917  0.3190 -0.2143
  139MOL    H7244508   3.359   2.845   7.428 -1.2000  0.4584 -0.4571
  139MOL    H7344509   3.277   2.687   7.412 -1.5223  2.7571 -2.5696
  139MOL    H7444510   3.157   2.783   7.630 -1.7547 -0.4992 -0.0630
  139MOL    H7544511   3.064   2.648   7.382  0.0536 -0.6607  1.7670
  139MOL    H7644512   2.828   2.671   7.520  0.8431 -2.2126 -1.5211
  139MOL    H7744513   2.954   2.616   7.602  0.6115 -0.1300 -0.0824
  139MOL    H7844514   2.910   2.803   7.597  1.6884 -0.4262  1.6629
  139MOL    H7944515   2.962   2.833   7.236  0.6348 -1.7471 -0.4377
  139MOL    H8044516   2.847   2.873   7.359 -0.0254  1.1614 -0.9030
  139MOL    H8144517   2.849   2.709   7.285 -0.0128 -0.6144  0.7565
  139MOL    C8244518   3.235   2.981   7.593 -0.4101 -0.2974 -0.1211
  139MOL    C8344519   3.135   3.066   7.676 -0.2802  1.2061 -0.5826
  139MOL    O8444520   3.098   2.995   7.796  0.1111 -0.3600  0.0545
  139MOL    C8544521   2.968   3.024   0.027 -0.3222  0.0666 -0.6827
  139MOL    C8644522   2.978   3.137   0.127 -0.5221  0.2310 -0.4903
  139MOL    C8744523   2.909   2.900   0.095 -0.6880 -0.3287  0.4524
  139MOL    H8844524   3.322   2.967   7.657 -0.4293 -3.1654 -0.6895
  139MOL    H8944525   3.266   3.049   7.514 -1.0080 -0.8422 -0.8291
  139MOL    H9044526   3.053   3.077   7.605 -1.3345 -1.1712  0.1933
  139MOL    H9144527   2.901   3.073   7.777 -0.7029 -1.5068 -1.4256
  139MOL    H9244528   2.996   3.230   0.074 -0.0394  0.2868 -0.2247
  139MOL    H9344529   2.881   3.161   0.172  0.0766 -1.1059  1.6009
  139MOL    H9444530   3.036   3.129   0.219  1.1954 -0.8103 -1.6407
  139MOL    H9544531   2.981   2.860   0.165 -0.9108 -1.0180  0.2914
  139MOL    H9644532   2.819   2.938   0.145 -0.8917 -1.1388  0.7073
  139MOL    H9744533   2.872   2.827   0.023  1.4376 -1.8051  0.8305
  139MOL    C9844534   3.194   3.204   7.701 -0.0524 -0.0590 -0.9505
  139MOL    C9944535   3.100   3.321   7.669  0.5216  0.0581  0.1724
  139MOL   O10044536   3.121   3.339   7.531  0.5438 -0.1083 -0.3820
  139MOL   C10144537   3.009   3.358   7.448  0.6260 -0.9122  0.1645
  139MOL   C10244538   2.977   3.227   7.372 -0.0320 -0.1219  0.1592
  139MOL   C10344539   3.030   3.486   7.356 -0.8073 -0.1170 -0.1484
  139MOL   H10444540   3.212   3.212   7.808 -0.5442  0.8409 -0.9262
  139MOL   H10544541   3.289   3.218   7.649  1.0157 -1.7158  0.5054
  139MOL   H10644542   2.996   3.298   7.692  0.5561  1.1699  1.4861
  139MOL   H10744543   2.920   3.392   7.501  0.2639 -0.6262 -0.6186
  139MOL   H10844544   2.875   3.207   7.339 -0.1099 -0.0861  0.3763
  139MOL   H10944545   3.020   3.142   7.424  1.8261  0.6036 -0.1410
  139MOL   H11044546   3.040   3.220   7.283  0.4126 -1.4821  0.5660
  139MOL   H11144547   3.113   3.479   7.285 -0.3993 -0.2326  0.3345
  139MOL   H11244548   3.054   3.580   7.407  1.3242 -1.8766  2.2278
  139MOL   H11344549   2.942   3.505   7.296 -0.2162  1.1544 -0.6301
  139MOL   C11444550   3.140   3.454   7.742  0.2657 -0.4109  0.4045
  139MOL   C11544551   3.060   3.582   7.712 -0.3771 -0.1933 -0.5324
  139MOL   O11644552   2.939   3.580   7.787 -0.0651  0.6575 -0.2515
  139MOL   C11744553   2.827   3.660   7.745  0.4840  0.0730 -0.0966
  139MOL   C11844554   2.749   3.729   0.034 -0.3060  0.2240  0.2956
  139MOL   C11944555   2.740   3.564   7.664  0.6905  0.7498 -0.2706
  139MOL   H12044556   3.246   3.477   7.732  0.6165 -1.4025  1.6651
  139MOL   H12144557   3.124   3.438   0.028  0.7827  0.4548  0.6185
  139MOL   H12244558   3.027   3.576   7.608  1.4272  0.7129 -1.1706
  139MOL   H12344559   2.860   3.743   7.683 -3.5764  2.8553  1.2552
  139MOL   H12444560   2.722   3.643   0.096 -0.4449 -1.7655 -2.4431
  139MOL   H12544561   2.658   3.775   7.816 -0.1813 -0.7653 -1.2004
  139MOL   H12644562   2.803   3.812   0.080 -0.8677  0.7904 -0.0734
  139MOL   H12744563   2.710   3.476   7.720  3.3059 -0.2399 -0.3278
  139MOL   H12844564   2.798   3.527   7.579 -0.7110  1.9765 -1.7838
  139MOL   H12944565   2.656   3.620   7.623 -0.8213 -0.2958  1.3125
  139MOL   C13044566   3.146   3.715   7.730  0.4580  0.5143 -0.2835
  139MOL   C13144567   3.200   3.740   0.054 -0.0282 -1.0031  0.4599
  139MOL   O13244568   3.309   3.659   0.091  0.8285  0.2629 -0.3019
  139MOL   C13344569   3.429   3.687   0.035  0.1683 -0.6567  0.2713
  139MOL   C13444570   3.497   3.787   0.127 -0.1711  0.2930  0.5986
  139MOL   C13544571   3.528   3.569   0.019 -0.1832  0.4082 -0.9458
  139MOL   H13644572   3.073   3.793   7.709 -1.1789 -1.0141 -0.4523
  139MOL   H13744573   3.217   3.719   7.647 -0.0865 -0.8220 -0.8295
  139MOL   H13844574   3.240   3.842   0.060 -3.5594  0.3357  2.4068
  139MOL   H13944575   3.428   3.733   7.756 -0.5668 -3.3537 -1.0311
  139MOL   H14044576   3.601   3.810   0.104 -0.3949 -1.1967 -2.0393
  139MOL   H14144577   3.496   3.736   0.223 -3.5693 -0.6598  0.1159
  139MOL   H14244578   3.436   3.877   0.123  0.4490  0.7725  1.5106
  139MOL   H14344579   3.500   3.488   7.773  1.5029  0.8602 -2.2581
  139MOL   H14444580   3.610   3.605   7.777  0.4802  1.1638  0.3270
  139MOL   H14544581   3.566   3.528   0.113  0.2392 -0.7624 -1.6132
  139MOL   C14644582   3.093   3.732   0.162 -0.4911  0.5749 -0.0627
  139MOL   C14744583   3.115   3.803   0.295  0.6799  0.3656 -0.0258
  139MOL   O14844584   3.119   3.945   0.275  0.3031  0.4313 -0.3318
  139MOL   C14944585   3.239   4.012   0.324  0.4796 -0.5874 -0.3643
  139MOL   C15044586   3.225   4.043   0.474 -0.3244  0.2453 -0.6496
  139MOL   C15144587   3.241   4.140   0.234  0.5434  0.0749  0.0080
  139MOL   H15244588   3.054   3.630   0.172 -2.0248  1.2061  0.5548
  139MOL   H15344589   3.009   3.782   0.115  0.3051  1.0482 -1.0089
  139MOL   H15444590   3.207   3.761   0.336  0.6139 -1.4410 -1.6502
  139MOL   H15544591   3.329   3.956   0.300 -0.5096 -1.7557 -1.4813
  139MOL   H15644592   3.139   4.106   0.495 -0.3874  0.1903 -0.7430
  139MOL   H15744593   3.313   4.095   0.512 -0.3525  0.6917 -1.1902
  139MOL   H15844594   3.208   3.947   0.523  1.5570  0.4288  0.4332
  139MOL   H15944595   3.222   4.230   0.293  0.7201  0.9723 -1.2689
  139MOL   H16044596   3.157   4.139   0.164 -0.2847  1.4786  0.9437
  139MOL   H16144597   3.334   4.157   0.179  0.1332 -0.2663 -0.7962
  139MOL   C16244598   2.996   3.787   0.394 -0.1930 -0.4338 -0.2074
  139MOL   C16344599   2.972   3.656   0.453  0.3979  0.2713 -0.2287
  139MOL   O16444600   3.087   3.620   0.535  0.2814 -0.3979  0.0569
  139MOL   C16544601   3.158   3.503   0.509 -0.0650 -0.1313 -0.1588
  139MOL   C16644602   3.072   3.380   0.554  0.3854  0.0556 -0.0791
  139MOL   C16744603   3.294   3.520   0.586  0.2125 -0.5845  0.7322
  139MOL   H16844604   3.002   3.861   0.473 -3.6723  1.0752 -1.2482
  139MOL   H16944605   2.913   3.822   0.333 -0.5978 -2.0327 -0.5973
  139MOL   H17044606   2.948   3.588   0.371 -0.6704  0.4925 -0.0987
  139MOL   H17144607   3.175   3.494   0.402  1.3488  0.7856 -0.0297
  139MOL   H17244608   3.121   3.283   0.550 -1.0313 -0.6285 -1.3042
  139MOL   H17344609   2.977   3.362   0.503  0.6023 -0.1714 -0.4018
  139MOL   H17444610   3.044   3.397   0.658  2.0796  0.3581  0.3333
  139MOL   H17544611   3.290   3.547   0.692  1.0326  2.9129 -0.0674
  139MOL   H17644612   3.357   3.586   0.527 -1.7244  1.3681  0.8045
  139MOL   H17744613   3.331   3.417   0.585 -3.2033 -1.8833  1.5197
  139MOL   C17844614   2.846   3.648   0.537 -0.1692 -0.6684  0.2383
  139MOL   C17944615   2.709   3.628   0.463  0.2956 -0.2856 -0.3120
  139MOL   O18044616   2.673   3.744   0.384  0.6745  0.4244 -0.1000
  139MOL   C18144617   2.638   3.871   0.454 -0.0100  0.2800 -0.2132
  139MOL   C18244618   2.498   3.869   0.505  0.5069 -0.4466 -0.0316
  139MOL   C18344619   2.662   3.985   0.355 -0.0581 -0.2346 -0.1795
  139MOL   H18444620   2.852   3.727   0.611 -0.9122 -0.7913  0.4345
  139MOL   H18544621   2.859   3.560   0.600 -0.4755 -0.3545  0.7392
  139MOL   H18644622   2.635   3.628   0.543  0.3500  2.1408 -0.2185
  139MOL   H18744623   2.711   3.881   0.534 -0.1735  1.0359 -0.1596
  139MOL   H18844624   2.472   3.966   0.548  0.1107 -1.2580  1.5858
  139MOL   H18944625   2.472   3.803   0.587  1.7788 -0.2703  0.5219
  139MOL   H19044626   2.423   3.854   0.427 -1.0559 -1.5880  1.6514
  139MOL   H19144627   2.590   3.981   0.274 -1.9728  2.0003  1.3145
  139MOL   H19244628   2.765   3.975   0.320  0.3493 -3.9644  1.7867
  139MOL   H19344629   2.668   4.073   0.420 -1.4806 -1.0637  1.1092
  139MOL   C19444630   2.700   3.501   0.363  0.4746 -0.1745  0.0709
  139MOL   C19544631   2.561   3.478   0.309  0.2787 -0.1864 -0.0708
  139MOL   O19644632   2.479   3.402   0.399  0.4846  0.1562 -0.2545
  139MOL   C19744633   2.369   3.468   0.468  0.2181  0.5767  0.7289
  139MOL   C19844634   2.247   3.386   0.433  0.0454  0.2586 -0.4361
  139MOL   C19944635   2.393   3.477   0.616  0.2435 -0.1484 -0.9983
  139MOL   H20044636   2.773   3.515   0.283  1.5601  0.6217  1.1621
  139MOL   H20144637   2.733   3.416   0.423 -1.6581  0.9993  3.0366
  139MOL   H20244638   2.526   3.573   0.267  1.4147 -0.5066 -1.7907
  139MOL   H20344639   2.350   3.569   0.433 -1.2470  0.1904  0.3609
  139MOL   H20444640   2.154   3.408   0.486  0.0106 -1.5269  0.3051
  139MOL   H20544641   2.219   3.396   0.328 -0.4343 -0.3924 -0.3797
  139MOL   H20644642   2.259   3.280   0.456 -3.7167 -0.0245  0.5800
  139MOL   H20744643   2.376   3.380   0.663  1.0283 -0.3382 -1.0959
  139MOL   H20844644   2.494   3.499   0.649 -1.0584  2.3458  1.5519
  139MOL   H20944645   2.321   3.547   0.659  1.0936  0.5196 -0.6629
  139MOL   C21044646   2.564   3.401   0.174  0.2229 -0.5861  0.3253
  139MOL   C21144647   2.450   3.434   0.076  0.1710 -0.5439 -0.2351
  139MOL   O21244648   2.465   3.566   0.014 -0.3948  0.6449 -0.2491
  139MOL   C21344649   2.338   3.641   0.007  0.0577 -0.1684  0.8835
  139MOL   C21444650   2.319   3.720   0.141  0.2572  0.4244 -0.1181
  139MOL   C21544651   2.335   3.738   7.709  0.5868  0.4538  0.2811
  139MOL   H21644652   2.574   3.295   0.196 -0.7800 -0.5326  1.0737
  139MOL   H21744653   2.663   3.417   0.132  0.0455 -1.2935 -0.3641
  139MOL   H21844654   2.364   3.423   0.142 -0.7876  0.8157 -1.2182
  139MOL   H21944655   2.255   3.579   7.793 -0.1201  0.1513  0.7319
  139MOL   H22044656   2.228   3.780   0.146  0.0655  0.0661  0.8399
  139MOL   H22144657   2.402   3.788   0.159  0.0562  0.8544 -0.8430
  139MOL   H22244658   2.306   3.652   0.226 -0.1942 -2.2206 -2.2134
  139MOL   H22344659   2.383   3.832   7.738  2.6733 -0.3518 -0.4801
  139MOL   H22444660   2.237   3.751   7.663 -0.4129 -1.0788  1.8985
  139MOL   H22544661   2.398   3.709   7.625  0.2741  1.8589 -0.4524
  139MOL   C22644662   2.439   3.332   7.785  0.0643 -0.7043  0.1016
  139MOL   C22744663   2.395   3.194   0.008  0.3515 -0.4006  0.4421
  139MOL   O22844664   2.418   3.103   7.715 -0.5270 -0.8050 -0.3256
  139MOL   C22944665   2.557   3.064   7.679 -0.3756 -0.1960  0.8227
  139MOL   C23044666   2.613   3.119   7.546 -0.4241 -0.3725 -0.2282
  139MOL   C23144667   2.557   2.911   7.682  0.2467  0.0398 -0.2686
  139MOL   H23244668   2.535   3.323   7.734  0.5809  1.2019  0.6963
  139MOL   H23344669   2.363   3.374   7.719  0.1433 -0.3586  0.2333
  139MOL   H23444670   2.454   3.153   0.090 -1.5556  0.9796  2.5441
  139MOL   H23544671   2.618   3.102   7.761 -0.7375  0.3891  0.8267
  139MOL   H23644672   2.710   3.075   7.525  0.5921  1.2724  0.8457
  139MOL   H23744673   2.554   3.105   7.456 -2.0205  0.2818  0.6785
  139MOL   H23844674   2.627   3.226   7.563 -2.0124 -0.1991  0.0403
  139MOL   H23944675   2.660   2.880   7.667  0.2784 -0.5667  1.1414
  139MOL   H24044676   2.499   2.848   7.614  0.2686 -0.4819  0.1934
  139MOL   H24144677   2.528   2.863   7.775  2.4009 -2.3001 -0.7645
  139MOL   C24244678   2.247   3.181   0.044 -0.7431  0.0057 -0.6529
  139MOL   C24344679   2.222   3.044   0.116 -0.6835  0.4128  0.4948
  139MOL   O24444680   2.090   2.998   0.107  0.5566 -0.2431 -0.1242
  139MOL   C24544681   2.061   2.885   0.024 -0.3920  0.2122  0.0834
  139MOL   C24644682   1.936   2.819   0.084 -0.2144 -0.4513 -0.2451
  139MOL   C24744683   2.029   2.939   7.701 -0.1829 -0.1599 -0.5370
  139MOL   H24844684   2.220   3.274   0.092 -0.2558  0.0512 -0.4670
  139MOL   H24944685   2.184   3.182   7.775 -0.7902 -0.6490 -0.6309
  139MOL   H25044686   2.293   2.974   0.072 -1.7841  0.2349 -1.0132
  139MOL   H25144687   2.142   2.811   0.022  0.9872  1.6812  0.8072
  139MOL   H25244688   1.907   2.722   0.043  3.5077 -0.3946 -3.2645
  139MOL   H25344689   1.960   2.802   0.189  0.4632  1.1016 -0.1329
  139MOL   H25444690   1.849   2.884   0.091  1.0321  1.3509 -0.9742
  139MOL   H25544691   1.937   2.997   7.702 -0.4429 -0.4409 -3.4960
  139MOL   H25644692   2.109   2.994   7.651  0.5844 -1.0309 -0.2942
  139MOL   H25744693   2.013   2.849   7.643 -0.5157 -0.2257 -0.3443
  139MOL   C25844694   2.250   3.050   0.270  0.1322 -0.2401  0.2753
  139MOL   C25944695   2.236   2.914   0.349  0.6471 -0.5230 -0.1520
  139MOL   O26044696   2.271   2.921   0.485  0.3424 -0.2176 -0.3417
  139MOL   C26144697   2.169   2.971   0.570  0.0271  0.3271 -0.5850
  139MOL   C26244698   2.100   2.853   0.633 -0.3414  0.2633  0.4226
  139MOL   C26344699   2.243   3.065   0.673  0.0762 -0.1600 -0.8810
  139MOL   H26444700   2.346   3.095   0.299  1.1401 -0.4896 -2.5054
  139MOL   H26544701   2.176   3.124   0.300  0.4912  1.1418 -2.1657
  139MOL   H26644702   2.131   2.884   0.346 -0.7042  3.9477 -0.1502
  139MOL   H26744703   2.098   3.036   0.519  0.3215  1.3517  0.3112
  139MOL   H26844704   2.006   2.881   0.680 -0.7402 -0.6276  0.1718
  139MOL   H26944705   2.151   2.809   0.719 -1.4310 -2.8013 -0.4320
  139MOL   H27044706   2.073   2.780   0.557  1.0019  1.3898 -1.1763
  139MOL   H27144707   2.311   3.010   0.738 -0.1430 -0.6915 -1.1043
  139MOL   H27244708   2.301   3.147   0.632 -0.3982  2.2414  2.9613
  139MOL   H27344709   2.186   3.116   0.751  1.5082  0.2263 -0.0724
  139MOL   C27444710   2.345   2.808   0.300  0.9972  0.3421 -0.6601
  139MOL   C27544711   2.332   2.660   0.344 -0.1454  0.4048  0.4815
  139MOL   O27644712   2.267   2.598   0.237  0.0900  0.2454  0.0050
  139MOL   C27744713   2.198   2.475   0.261 -0.3069 -0.0451  0.2854
  139MOL   C27844714   2.175   2.412   0.126 -0.0924  0.0030  0.0440
  139MOL   C27944715   2.059   2.511   0.322  0.3056 -0.3651 -0.3507
  139MOL   H28044716   2.358   2.817   0.193 -0.6744  1.7553 -0.7613
  139MOL   H28144717   2.438   2.850   0.339  0.8725  0.1621 -0.1569
  139MOL   H28244718   2.269   2.664   0.432 -0.5425 -0.5555  0.2547
  139MOL   H28344719   2.259   2.410   0.322  2.3683  4.0597  2.2050
  139MOL   H28444720   2.265   2.365   0.089  0.4790  1.3167 -0.2496
  139MOL   H28544721   2.094   2.339   0.134  1.0925 -1.2561  0.8629
  139MOL   H28644722   2.148   2.486   0.051 -2.7189 -0.4792  0.4613
  139MOL   H28744723   2.070   2.538   0.427  2.1619  1.6541 -1.0003
  139MOL   H28844724   1.989   2.428   0.321  2.0832 -1.9101 -0.4516
  139MOL   H28944725   2.017   2.598   0.271  0.2368 -1.0575 -1.4950
  139MOL   C29044726   2.468   2.598   0.371  0.2786  0.1176 -0.3660
  139MOL   C29144727   2.539   2.653   0.504 -0.4810  0.4860 -1.3620
  139MOL   O29244728   2.505   2.566   0.613  0.1417  0.0025 -0.1367
  139MOL   C29344729   2.390   2.604   0.684  0.0323 -0.8965 -0.2319
  139MOL   C29444730   2.452   2.682   0.804  0.4182  0.2766  0.2245
  139MOL   C29544731   2.293   2.491   0.723  0.0524  0.7921 -0.5922
  139MOL   H29644732   2.538   2.618   0.290 -1.5766  1.8315 -1.6000
  139MOL   H29744733   2.461   2.489   0.375  0.3527  0.1487  0.6588
  139MOL   H29844734   2.502   2.752   0.530  0.3257 -0.1682  2.5566
  139MOL   H29944735   2.318   2.663   0.627 -1.6309 -1.7259  0.9484
  139MOL   H30044736   2.510   2.613   0.866  2.5954  1.3609 -0.5495
  139MOL   H30144737   2.525   2.757   0.775  0.9472 -0.4265 -0.2701
  139MOL   H30244738   2.371   2.725   0.863 -1.1285 -1.8264 -0.3168
  139MOL   H30344739   2.213   2.531   0.785 -0.9602  0.2259 -1.5083
  139MOL   H30444740   2.250   2.439   0.637  1.7015  0.0754 -0.9921
  139MOL   H30544741   2.344   2.419   0.787  1.0518  2.4518  0.4987
  139MOL   C30644742   2.693   2.655   0.493  0.7819 -0.1430  0.2388
  139MOL   C30744743   2.762   2.769   0.570  0.7113 -0.3483 -0.0366
  139MOL   O30844744   2.728   2.886   0.496  0.1851 -0.4386 -0.1936
  139MOL   C30944745   2.714   3.012   0.557 -0.1011  0.3407  0.1723
  139MOL   C31044746   2.845   3.081   0.553 -0.1358 -0.8044  0.1416
  139MOL   C31144747   2.620   3.094   0.471  0.2114 -0.2071  0.3355
  139MOL   H31244748   2.721   2.669   0.389  2.6755  0.6465  0.8270
  139MOL   H31344749   2.726   2.557   0.526  0.5237 -0.4459 -0.3875
  139MOL   H31444750   2.728   2.777   0.674  0.7699 -0.5579 -0.0007
  139MOL   H31544751   2.670   3.007   0.657 -1.5897  0.7578 -0.4405
  139MOL   H31644752   2.928   3.043   0.613  1.0396  4.0153  1.8427
  139MOL   H31744753   2.843   3.189   0.567  2.3565 -0.3917 -2.3941
  139MOL   H31844754   2.895   3.081   0.457  0.3333 -0.8167  0.3861
  139MOL   H31944755   2.671   3.149   0.392 -1.8112  0.3885 -0.6006
  139MOL   H32044756   2.557   3.172   0.515  1.4852  1.8708 -1.4100
  139MOL   H32144757   2.551   3.026   0.420  1.2316 -0.4624 -0.7360
  139MOL   H32244758   2.869   2.755   0.583  0.4825 -0.9753  1.2911
  140MOL     C144759   2.740   3.705   4.955  0.7503 -0.0219 -0.5260
  140MOL     C244760   2.787   3.558   4.929  0.1449 -0.4274  0.6469
  140MOL     O344761   2.909   3.569   4.853  1.0592  0.2356  0.3165
  140MOL     C444762   2.911   3.500   4.732 -0.4613 -0.0774  0.0891
  140MOL     C544763   3.055   3.512   4.686  0.8204  0.5221 -0.8995
  140MOL     C644764   2.823   3.573   4.628 -0.1091 -0.1212  0.1568
  140MOL     H744765   2.657   3.713   5.026  1.3209  2.6131 -0.0886
  140MOL     H844766   2.830   3.758   4.986 -0.2931  0.0910  2.4491
  140MOL     H944767   2.707   3.503   4.879 -1.2107 -1.1529  3.5407
  140MOL    H1044768   2.890   3.394   4.741  2.4879 -0.6893  0.0376
  140MOL    H1144769   3.082   3.457   4.595  0.6828  2.8574 -2.4104
  140MOL    H1244770   3.082   3.617   4.689  0.4334  0.5825  2.4441
  140MOL    H1344771   3.119   3.473   4.765 -2.7532  0.8238  2.2871
  140MOL    H1444772   2.826   3.527   4.529  0.4103 -0.8046  0.4905
  140MOL    H1544773   2.719   3.574   4.661 -0.5837 -0.7341 -1.2957
  140MOL    H1644774   2.856   3.676   4.615 -0.0511  0.2521  3.0221
  140MOL    H1744775   2.701   3.758   4.868 -0.9167  0.2905  0.3826
  140MOL    C1844776   2.813   3.476   5.057  0.2465  0.4144 -0.1419
  140MOL    C1944777   2.687   3.418   5.127 -0.8174 -0.2361  0.0392
  140MOL    O2044778   2.605   3.534   5.159  0.4401 -0.1618 -0.0727
  140MOL    C2144779   2.466   3.506   5.178 -0.0255  0.5675 -0.0366
  140MOL    C2244780   2.390   3.538   5.053 -0.2780 -0.1618  0.0446
  140MOL    C2344781   2.415   3.600   5.284 -0.5939 -0.7962 -0.3209
  140MOL    H2444782   2.872   3.388   5.032 -1.4440 -0.8418  0.1614
  140MOL    H2544783   2.879   3.529   5.125 -0.6855 -0.2551  1.3213
  140MOL    H2644784   2.626   3.377   5.046 -1.3699  1.0036 -0.1897
  140MOL    H2744785   2.453   3.403   5.211  0.1613  0.7206  0.5151
  140MOL    H2844786   2.286   3.511   5.068 -0.4989  0.2810 -0.6389
  140MOL    H2944787   2.388   3.643   5.024  0.0657 -0.5107 -1.2806
  140MOL    H3044788   2.420   3.480   4.966  1.4328  0.5114  0.1596
  140MOL    H3144789   2.315   3.579   5.323 -0.9174  0.5231 -0.4117
  140MOL    H3244790   2.429   3.704   5.254  1.1646 -1.2373 -1.0345
  140MOL    H3344791   2.471   3.593   5.378 -1.0613 -1.7100 -0.0999
  140MOL    C3444792   2.713   3.333   5.253  0.1233  0.1327 -0.0716
  140MOL    C3544793   2.743   3.187   5.231  0.5347  0.8487  0.4230
  140MOL    O3644794   2.806   3.119   5.343 -0.0789  0.2498  0.6284
  140MOL    C3744795   2.949   3.129   5.351  0.5309  0.2270  0.3835
  140MOL    C3844796   2.976   3.105   5.497 -0.1166  0.6345  0.0410
  140MOL    C3944797   3.008   3.025   5.273  0.1270  0.9994 -0.1869
  140MOL    H4044798   2.630   3.331   5.323 -0.5280  2.0989 -0.7577
  140MOL    H4144799   2.790   3.364   5.323 -1.4610 -1.1511  2.3117
  140MOL    H4244800   2.812   3.172   5.148 -0.6028 -2.7809  0.0215
  140MOL    H4344801   2.983   3.230   5.327 -0.4974  0.7571  1.1416
  140MOL    H4444802   3.079   3.125   5.525 -0.3537  1.9420  0.0237
  140MOL    H4544803   2.974   2.999   5.520  1.2255  0.1292 -2.0065
  140MOL    H4644804   2.907   3.171   5.550 -2.8939 -0.7719 -1.7004
  140MOL    H4744805   3.117   3.027   5.276  0.1852 -0.7764 -0.8278
  140MOL    H4844806   2.962   2.928   5.291  0.2865  0.3482 -3.0125
  140MOL    H4944807   2.984   3.045   5.169 -1.5412 -0.0806 -0.0208
  140MOL    C5044808   2.617   3.102   5.210 -0.7252 -0.2054 -0.1117
  140MOL    C5144809   2.633   2.960   5.165  0.7585 -0.1007  0.4888
  140MOL    O5244810   2.619   2.954   5.027  0.5123  0.1677  0.3529
  140MOL    C5344811   2.735   2.942   4.954 -0.5362 -0.1331  0.1288
  140MOL    C5444812   2.743   3.072   4.869 -0.8169  0.1121 -0.5908
  140MOL    C5544813   2.724   2.807   4.881  0.3822 -0.6339  0.5999
  140MOL    H5644814   2.558   3.113   5.301  2.0025 -0.2219  1.6904
  140MOL    H5744815   2.561   3.144   5.126 -1.7130  0.7155  0.9949
  140MOL    H5844816   2.731   2.918   5.189  1.6124  1.5121 -0.0912
  140MOL    H5944817   2.822   2.927   5.018  0.3664 -0.5246 -1.1703
  140MOL    H6044818   2.804   3.060   4.779  2.0713  1.0239  1.1931
  140MOL    H6144819   2.791   3.163   4.905 -0.7168  0.0342 -0.5306
  140MOL    H6244820   2.641   3.098   4.840 -1.0513  0.6724  0.7149
  140MOL    H6344821   2.645   2.821   4.807 -1.7886  2.1254  3.2947
  140MOL    H6444822   2.718   2.720   4.947 -0.7910 -0.5376  0.6238
  140MOL    H6544823   2.811   2.788   4.819 -0.3364 -0.8838 -0.3290
  140MOL    C6644824   2.524   2.865   5.237  0.0563 -0.3192  0.0047
  140MOL    C6744825   2.565   2.811   5.383  0.1993  0.2745  0.2106
  140MOL    O6844826   2.658   2.709   5.356 -0.1738  0.0349  0.0194
  140MOL    C6944827   2.720   2.659   5.465  0.4042  0.3572 -0.1378
  140MOL    C7044828   2.740   2.512   5.430 -0.0525 -0.9975 -0.6163
  140MOL    C7144829   2.850   2.728   5.503  0.9725 -0.6230 -0.2782
  140MOL    H7244830   2.432   2.923   5.244  0.7479  0.7188  0.6006
  140MOL    H7344831   2.508   2.780   5.171  1.2882 -0.9894  0.5576
  140MOL    H7444832   2.606   2.893   5.442 -0.9105  2.0357 -1.4200
  140MOL    H7544833   2.655   2.650   5.552 -0.7918 -0.8658 -1.1198
  140MOL    H7644834   2.645   2.463   5.412 -1.1890  0.5402  1.1314
  140MOL    H7744835   2.807   2.511   5.343 -0.9092  0.7659 -1.3252
  140MOL    H7844836   2.784   2.453   5.510  1.1895  2.4685  1.3751
  140MOL    H7944837   2.825   2.834   5.499  1.2798 -0.5540 -0.3709
  140MOL    H8044838   2.937   2.711   5.440  1.5895 -0.3177  0.4845
  140MOL    H8144839   2.888   2.709   5.603 -0.1522 -2.2208 -0.1388
  140MOL    C8244840   2.438   2.758   5.450  0.6393 -0.5843  0.0886
  140MOL    C8344841   2.419   2.804   5.596  0.3502 -0.3884  1.0948
  140MOL    O8444842   2.384   2.946   5.596  0.3051  0.2941 -0.1065
  140MOL    C8544843   2.458   3.033   5.680  0.0454 -0.8324  0.8807
  140MOL    C8644844   2.356   3.117   5.758  0.5374  0.9831 -0.1696
  140MOL    C8744845   2.540   3.124   5.589  0.0519  0.4582 -1.1125
  140MOL    H8844846   2.349   2.782   5.394  1.5362  3.1288  0.1197
  140MOL    H8944847   2.427   2.650   5.453  0.9939 -0.6408 -0.6001
  140MOL    H9044848   2.515   2.786   5.643  0.7094  0.8662  0.8855
  140MOL    H9144849   2.518   2.972   5.747 -1.0570 -2.2015  0.6423
  140MOL    H9244850   2.397   3.198   5.819 -3.0244  3.3869 -0.8310
  140MOL    H9344851   2.287   3.168   5.692 -2.6440 -1.1340  1.4178
  140MOL    H9444852   2.311   3.047   5.828  2.1393  0.8556  0.7737
  140MOL    H9544853   2.620   3.074   5.535  1.3930  1.5776 -0.2039
  140MOL    H9644854   2.470   3.159   5.513 -2.1853  1.4675  1.3495
  140MOL    H9744855   2.574   3.209   5.648  1.3636  0.1365 -1.4036
  140MOL    C9844856   2.320   2.728   5.678 -0.7359 -0.2302  0.0044
  140MOL    C9944857   2.344   2.726   5.833  0.6400 -0.4648  0.0294
  140MOL   O10044858   2.441   2.629   5.857  0.4518 -0.6070 -0.0086
  140MOL   C10144859   2.554   2.675   5.931  0.0970  0.2592 -0.9343
  140MOL   C10244860   2.649   2.553   5.926  0.1598  0.1013 -0.0134
  140MOL   C10344861   2.520   2.715   6.073  0.0725  0.0447  0.2173
  140MOL   H10444862   2.219   2.762   5.659 -1.3581 -0.8375  2.1211
  140MOL   H10544863   2.324   2.622   5.652  0.4090  0.8054 -4.5230
  140MOL   H10644864   2.374   2.823   5.874 -0.9538 -1.1543  2.9555
  140MOL   H10744865   2.599   2.755   5.873  0.0241  1.0211  0.0583
  140MOL   H10844866   2.684   2.535   5.825 -0.4792  1.9061 -0.5796
  140MOL   H10944867   2.589   2.468   5.958  0.8407 -1.1982 -2.1499
  140MOL   H11044868   2.728   2.559   6.001  1.1445 -1.6569 -0.8887
  140MOL   H11144869   2.466   2.809   6.081 -0.9093 -0.5554  0.7669
  140MOL   H11244870   2.615   2.729   6.124  0.4421 -1.3136 -0.0696
  140MOL   H11344871   2.469   2.632   6.122 -0.0977 -0.3344 -0.5944
  140MOL   C11444872   2.219   2.660   5.901 -0.3096  0.2912 -0.1068
  140MOL   C11544873   2.095   2.752   5.924 -0.0228  0.5277  0.1426
  140MOL   O11644874   1.983   2.682   5.986  0.5990 -0.2611 -0.0546
  140MOL   C11744875   1.897   2.591   5.902 -0.5632  0.3546 -0.1216
  140MOL   C11844876   1.782   2.659   5.830 -0.2730 -0.0069  0.3933
  140MOL   C11944877   1.860   2.470   5.992 -0.1457 -0.2366  0.9472
  140MOL   H12044878   2.248   2.623   5.999 -0.0735 -0.5274 -0.4772
  140MOL   H12144879   2.188   2.569   5.849  1.4393 -0.3076 -0.1528
  140MOL   H12244880   2.050   2.791   5.833  2.1342  1.8895 -0.3838
  140MOL   H12344881   1.961   2.549   5.825 -3.0223 -3.3194 -0.3064
  140MOL   H12444882   1.732   2.590   5.762  2.7638  1.2789 -3.3148
  140MOL   H12544883   1.815   2.745   5.771  1.0006 -0.1833  0.8287
  140MOL   H12644884   1.712   2.699   5.903 -1.5655 -0.5657 -0.5354
  140MOL   H12744885   1.800   2.496   6.080 -0.8721  2.1169 -0.2047
  140MOL   H12844886   1.956   2.429   6.024 -0.0003 -0.8884 -0.2834
  140MOL   H12944887   1.802   2.388   5.950  0.6782  0.1839 -1.0590
  140MOL   C13044888   2.131   2.862   6.024 -0.2092 -0.7547 -0.2362
  140MOL   C13144889   2.009   2.955   6.055 -0.2595 -0.1811 -0.9889
  140MOL   O13244890   2.004   3.052   5.944  0.6742 -0.1519  0.0739
  140MOL   C13344891   1.887   3.041   5.851 -0.2854 -0.1104 -0.2177
  140MOL   C13444892   1.758   3.099   5.911  0.0275 -0.7847  0.5328
  140MOL   C13544893   1.911   3.088   5.709  0.1756 -0.0136  0.1495
  140MOL   H13644894   2.212   2.922   5.981  1.2086 -2.2620  0.2993
  140MOL   H13744895   2.178   2.815   6.110  0.4155  0.7042  0.2361
  140MOL   H13844896   1.912   2.905   6.056 -1.0219  1.2673  0.2547
  140MOL   H13944897   1.860   2.936   5.845  0.6468 -0.3061 -1.2415
  140MOL   H14044898   1.671   3.065   5.856 -0.1829  0.2021  0.2375
  140MOL   H14144899   1.768   3.208   5.917 -2.2760 -0.3487 -2.3594
  140MOL   H14244900   1.747   3.073   6.016 -0.1535 -3.4420 -0.1206
  140MOL   H14344901   1.977   3.175   5.702 -0.0406  0.1406  0.0164
  140MOL   H14444902   1.972   3.020   5.649 -2.4732 -1.0272 -1.4844
  140MOL   H14544903   1.822   3.101   5.648  0.8772  2.3500 -0.4300
  140MOL   C14644904   2.016   3.049   6.183 -0.6833  0.0378 -0.3301
  140MOL   C14744905   2.152   3.128   6.199  0.0174 -0.3898  0.2052
  140MOL   O14844906   2.133   3.249   6.272 -0.1881  0.1575 -0.0659
  140MOL   C14944907   2.097   3.366   6.201 -0.1760 -0.8222  0.8531
  140MOL   C15044908   2.215   3.452   6.172 -0.9101 -0.3517 -0.0167
  140MOL   C15144909   1.989   3.443   6.274  0.3882  0.7049 -0.4227
  140MOL   H15244910   2.017   2.989   6.275 -1.7205 -0.0734 -0.3862
  140MOL   H15344911   1.927   3.110   6.191 -0.2356  0.4542  1.9041
  140MOL   H15444912   2.184   3.151   6.097  0.0145 -3.9799 -0.6622
  140MOL   H15544913   2.062   3.343   6.101  1.1693  1.2940 -0.1307
  140MOL   H15644914   2.273   3.479   6.261 -1.0134 -0.4689  0.0855
  140MOL   H15744915   2.185   3.552   6.139 -1.4405  0.5858  3.1521
  140MOL   H15844916   2.266   3.404   6.088 -0.8614  0.4647 -0.4588
  140MOL   H15944917   1.948   3.521   6.210  0.2685  0.2500 -0.9108
  140MOL   H16044918   2.026   3.470   6.372  0.4068  1.6131 -0.6798
  140MOL   H16144919   1.908   3.371   6.286  0.4621  0.3275 -1.9921
  140MOL   C16244920   2.269   3.045   6.271  0.0150  0.1923 -0.0859
  140MOL   C16344921   2.401   3.120   6.289 -0.6385  0.3239 -0.0063
  140MOL   O16444922   2.482   3.038   6.372  0.0762 -1.3024 -0.0479
  140MOL   C16544923   2.469   3.076   6.511  0.5009 -1.2033 -0.3115
  140MOL   C16644924   2.590   3.161   6.568 -0.2026 -0.1433 -0.2061
  140MOL   C16744925   2.463   2.926   6.575 -0.0722 -0.7319  0.3719
  140MOL   H16844926   2.240   3.019   6.373 -0.2847  0.6658 -0.0455
  140MOL   H16944927   2.283   2.949   6.221 -1.7928 -0.7045  1.0739
  140MOL   H17044928   2.373   3.213   6.340 -4.3071  0.5406 -2.2248
  140MOL   H17144929   2.375   3.129   6.529  2.1859  1.6811  0.2767
  140MOL   H17244930   2.584   3.254   6.510  1.5024 -0.8454 -1.5424
  140MOL   H17344931   2.682   3.121   6.525  2.0502  5.0594 -0.5888
  140MOL   H17444932   2.597   3.177   6.675 -1.8128  1.2032 -0.2796
  140MOL   H17544933   2.379   2.870   6.534 -1.7883  1.3808  0.8753
  140MOL   H17644934   2.439   2.942   6.680  0.2095  3.4893 -0.1156
  140MOL   H17744935   2.553   2.865   6.574 -0.2253 -0.9648  0.8440
  140MOL   C17844936   2.466   3.147   6.149 -0.8104 -0.0965 -0.2909
  140MOL   C17944937   2.598   3.232   6.145  0.0168  0.3533  0.1059
  140MOL   O18044938   2.662   3.232   6.016  0.0870  0.3537  0.7118
  140MOL   C18144939   2.772   3.136   5.991  0.0483 -0.3300 -0.1083
  140MOL   C18244940   2.836   3.178   5.854 -0.0284 -0.0119  0.2216
  140MOL   C18344941   2.721   2.991   5.994 -0.0731  0.1218 -0.8188
  140MOL   H18444942   2.395   3.207   6.093 -0.2290 -0.1644 -1.1168
  140MOL   H18544943   2.475   3.054   6.092  1.6011  0.4310 -0.8222
  140MOL   H18644944   2.675   3.190   6.210 -0.9297 -0.6034  0.6072
  140MOL   H18744945   2.854   3.141   6.062 -0.8816 -0.7550  1.0105
  140MOL   H18844946   2.893   3.270   5.860 -0.6910  0.4980 -1.1544
  140MOL   H18944947   2.756   3.194   5.782  0.0165  0.7183  0.3334
  140MOL   H19044948   2.897   3.097   5.812  1.6543  0.9893  0.7056
  140MOL   H19144949   2.637   2.979   5.926  0.1158 -0.6129 -0.9228
  140MOL   H19244950   2.690   2.969   6.096  0.8968  0.8072 -0.3649
  140MOL   H19344951   2.802   2.924   5.965 -0.2770  0.5929 -2.5075
  140MOL   C19444952   2.571   3.373   6.182  0.1214 -0.2947 -0.3496
  140MOL   C19544953   2.697   3.455   6.193 -0.1377 -0.7588 -0.2920
  140MOL   O19644954   2.761   3.431   6.317  0.2396 -0.1601 -0.7868
  140MOL   C19744955   2.898   3.406   6.324 -0.7010 -0.3946 -0.2295
  140MOL   C19844956   2.984   3.533   6.296  0.0874  0.0077 -0.0646
  140MOL   C19944957   2.929   3.357   6.468  0.2046 -0.0388  0.4213
  140MOL   H20044958   2.504   3.417   6.108 -0.7175 -1.4835 -0.3166
  140MOL   H20144959   2.518   3.354   6.276 -1.5651 -1.0954 -1.4378
  140MOL   H20244960   2.768   3.450   6.111  1.3235 -2.0117  1.0190
  140MOL   H20344961   2.928   3.329   6.254  2.1760 -1.3172  1.9266
  140MOL   H20444962   2.969   3.620   6.360 -0.9581 -0.5517  0.4745
  140MOL   H20544963   3.087   3.506   6.316  0.2191  0.0866 -0.6203
  140MOL   H20644964   2.971   3.576   6.197 -0.2733  0.3477  0.1265
  140MOL   H20744965   2.862   3.272   6.482 -0.3483  0.4683  0.8444
  140MOL   H20844966   3.035   3.330   6.474  0.3347  0.7680  2.0531
  140MOL   H20944967   2.904   3.446   6.525 -0.8905 -0.3417  0.4128
  140MOL   C21044968   2.668   3.606   6.192 -0.2918 -0.2724  0.5436
  140MOL   C21144969   2.657   3.672   6.051 -0.4568 -0.1425  0.6812
  140MOL   O21244970   2.582   3.794   6.059 -0.1544 -0.5073  0.2708
  140MOL   C21344971   2.439   3.790   6.082  0.3325 -0.0589 -0.4975
  140MOL   C21444972   2.402   3.924   6.155  0.2695 -0.4566  0.2661
  140MOL   C21544973   2.363   3.773   5.949  0.9093 -0.1704 -0.3731
  140MOL   H21644974   2.732   3.657   6.264  0.6821 -1.2136  0.3571
  140MOL   H21744975   2.574   3.629   6.244 -0.6436  1.6176 -0.8415
  140MOL   H21844976   2.607   3.604   5.982  1.2732 -2.0334  1.2440
  140MOL   H21944977   2.412   3.705   6.144 -0.0421  1.3914  1.3686
  140MOL   H22044978   2.466   3.931   6.243  0.2060  1.3816  0.1810
  140MOL   H22144979   2.297   3.927   6.183  0.6064  0.4102  1.4601
  140MOL   H22244980   2.420   4.007   6.086  2.2494 -1.1501 -0.1000
  140MOL   H22344981   2.256   3.786   5.966  1.0559  0.6033 -0.0022
  140MOL   H22444982   2.371   3.673   5.908  1.0277 -0.6929  0.9040
  140MOL   H22544983   2.399   3.840   5.871  3.2148 -2.1747 -1.0543
  140MOL   C22644984   2.791   3.719   5.998 -0.3290  0.6118 -0.8572
  140MOL   C22744985   2.797   3.757   5.849  0.0011  0.0681 -0.2096
  140MOL   O22844986   2.735   3.649   5.778  0.4009  0.2246  0.0282
  140MOL   C22944987   2.697   3.677   5.643 -0.0523  0.1921 -0.0485
  140MOL   C23044988   2.559   3.740   5.632 -0.3892  0.4072 -0.0226
  140MOL   C23144989   2.698   3.542   5.569 -0.5752 -0.2986  0.5579
  140MOL   H23244990   2.841   3.623   6.002 -1.2921  0.1806  1.2718
  140MOL   H23344991   2.840   3.799   6.053  0.0824  1.0445 -1.8354
  140MOL   H23444992   2.735   3.845   5.832 -1.9229 -1.1451  0.3633
  140MOL   H23544993   2.770   3.732   5.584  0.4594 -0.7868 -0.3415
  140MOL   H23644994   2.513   3.734   5.533  1.4193 -0.7255 -0.8364
  140MOL   H23744995   2.493   3.693   5.704  0.4401  1.4185  1.4251
  140MOL   H23844996   2.573   3.847   5.646 -0.0221  0.7329 -2.6514
  140MOL   H23944997   2.686   3.547   5.461 -1.5323  2.7359  0.7484
  140MOL   H24044998   2.616   3.475   5.594 -0.9506 -0.5816 -1.3665
  140MOL   H24144999   2.794   3.492   5.587 -0.6545  0.8099  4.5139
  140MOL   C24245000   2.936   3.806   5.800 -0.1871 -0.2960  0.0968
  140MOL   C24345001   3.058   3.716   5.842  0.1644  1.3283  0.3318
  140MOL   O24445002   3.181   3.774   5.796 -0.1962  0.2584 -0.6121
  140MOL   C24545003   3.234   3.875   5.872 -0.0646  0.2097  0.8010
  140MOL   C24645004   3.309   3.835   5.995 -0.1053 -1.2526 -0.6974
  140MOL   C24745005   3.327   3.948   5.775  0.3257  0.3110 -0.1594
  140MOL   H24845006   2.939   3.818   5.691 -0.9629 -1.3550 -0.0460
  140MOL   H24945007   2.945   3.908   5.839 -0.6063  0.2900 -1.3039
  140MOL   H25045008   3.059   3.709   5.950 -2.4028 -0.8790  0.2624
  140MOL   H25145009   3.160   3.954   5.891  0.8826  1.6922 -1.4801
  140MOL   H25245010   3.394   3.768   5.981  0.9315 -0.7253  2.6073
  140MOL   H25345011   3.346   3.927   6.041 -3.4941 -0.4464  0.5583
  140MOL   H25445012   3.239   3.789   6.065 -2.9287  1.3925 -1.6889
  140MOL   H25545013   3.380   4.038   5.807  0.2315  0.2351  0.2132
  140MOL   H25645014   3.400   3.872   5.750  0.8759  1.2788 -1.5701
  140MOL   H25745015   3.269   3.973   5.686 -0.5319  0.4702  0.4384
  140MOL   C25845016   3.060   3.574   5.785 -0.3195  0.1381  0.2912
  140MOL   C25945017   3.180   3.499   5.831 -0.5918 -0.6320 -0.5531
  140MOL   O26045018   3.212   3.407   5.724  0.0874  0.1499  0.1268
  140MOL   C26145019   3.298   3.445   5.620 -1.0609 -0.3825 -0.0504
  140MOL   C26245020   3.446   3.468   5.671 -0.6277 -0.5193  0.1640
  140MOL   C26345021   3.277   3.343   5.512 -0.1625 -0.1560  0.3122
  140MOL   H26445022   2.973   3.523   5.826 -0.7537  1.7152  1.3656
  140MOL   H26545023   3.061   3.589   5.677 -0.3590  0.3789  0.3244
  140MOL   H26645024   3.269   3.562   5.839 -2.2843  1.8182 -0.4873
  140MOL   H26745025   3.269   3.542   5.581 -0.9382 -1.1649 -2.1433
  140MOL   H26845026   3.487   3.383   5.726  1.2663 -1.6137 -2.8366
  140MOL   H26945027   3.462   3.549   5.743  0.3108 -2.5791  2.3652
  140MOL   H27045028   3.504   3.480   5.580 -0.5405  1.1635  0.4355
  140MOL   H27145029   3.322   3.373   5.417 -0.8200 -0.1080  0.0099
  140MOL   H27245030   3.312   3.241   5.529  5.1605  1.6957  1.5953
  140MOL   H27345031   3.169   3.344   5.502 -0.2595  0.1895  1.3716
  140MOL   C27445032   3.153   3.405   5.945 -0.0219  0.1614  0.4902
  140MOL   C27545033   3.278   3.364   6.019  0.1559 -0.1777 -0.4053
  140MOL   O27645034   3.342   3.479   6.087 -0.0752  0.5807  0.2645
  140MOL   C27745035   3.480   3.475   6.118  0.6660  0.1695 -0.2942
  140MOL   C27845036   3.491   3.578   6.239  1.1259  0.6081 -0.4097
  140MOL   C27945037   3.577   3.514   6.007 -1.2427 -0.5008  0.0365
  140MOL   H28045038   3.095   3.464   6.017  1.0980  1.3215  0.4465
  140MOL   H28145039   3.091   3.324   5.908 -1.4512  1.1166  0.7627
  140MOL   H28245040   3.342   3.332   5.937 -0.5332 -0.7656 -0.7243
  140MOL   H28345041   3.509   3.377   6.156 -0.5499 -1.1198 -2.6038
  140MOL   H28445042   3.459   3.678   6.211 -1.7323 -0.2211 -0.2431
  140MOL   H28545043   3.429   3.548   6.323  0.1955 -0.4963 -1.4747
  140MOL   H28645044   3.593   3.593   6.275  0.0884  2.4512  1.8617
  140MOL   H28745045   3.677   3.517   6.049 -0.6335  0.0832 -1.3997
  140MOL   H28845046   3.546   3.610   5.965  2.8543  0.6135 -0.6240
  140MOL   H28945047   3.584   3.435   5.932 -3.7173 -0.3339 -0.3987
  140MOL   C29045048   3.240   3.259   6.128  0.3918 -0.5057  0.0060
  140MOL   C29145049   3.212   3.116   6.078 -0.3756  0.1486 -0.9684
  140MOL   O29245050   3.316   3.066   5.986  0.4020 -0.0373  0.1009
  140MOL   C29345051   3.282   3.057   5.850 -0.1752 -0.7605  0.2483
  140MOL   C29445052   3.225   2.915   5.850 -0.2543  0.3641  0.5091
  140MOL   C29545053   3.418   3.084   5.782  0.0906 -0.3212  0.4402
  140MOL   H29645054   3.148   3.306   6.163 -0.0497 -2.3906  1.4599
  140MOL   H29745055   3.301   3.251   6.218  0.1538 -0.3745  0.1799
  140MOL   H29845056   3.115   3.107   6.029 -1.3985 -0.1805  1.0582
  140MOL   H29945057   3.206   3.133   5.829  0.9961  0.8940  1.9068
  140MOL   H30045058   3.121   2.925   5.884 -1.1217 -0.1055 -1.9409
  140MOL   H30145059   3.210   2.873   5.751  0.3194 -0.1164  0.6277
  140MOL   H30245060   3.275   2.844   5.915 -1.5892 -2.2248 -1.2019
  140MOL   H30345061   3.476   2.992   5.783  0.1263 -0.3869 -2.8115
  140MOL   H30445062   3.400   3.115   5.679  1.3453  1.2003  0.6541
  140MOL   H30545063   3.480   3.162   5.826  0.4642 -0.2994 -0.1285
  140MOL   C30645064   3.204   3.021   6.205 -0.1477 -0.8360 -0.4786
  140MOL   C30745065   3.079   3.036   6.293  0.3060  0.1651  0.0534
  140MOL   O30845066   3.083   2.925   6.389  0.5835  0.0452  0.8943
  140MOL   C30945067   2.964   2.910   6.469 -0.0404 -0.2115 -0.0885
  140MOL   C31045068   2.865   2.835   6.382  0.7430 -0.5171 -0.1062
  140MOL   C31145069   2.991   2.828   6.593  1.0769 -0.5567 -0.2479
  140MOL   H31245070   3.291   3.019   6.270 -1.5874 -2.1188  1.4422
  140MOL   H31345071   3.208   2.921   6.162 -2.4615 -0.9292 -0.5426
  140MOL   H31445072   3.078   3.131   6.345  2.1678  0.8299 -1.0803
  140MOL   H31545073   2.928   3.007   6.503 -0.0646 -0.2595  0.0201
  140MOL   H31645074   2.844   2.884   6.287 -0.4337 -0.5110  0.1462
  140MOL   H31745075   2.765   2.825   6.426  1.6131 -1.5872  1.7274
  140MOL   H31845076   2.890   2.735   6.346 -2.3703 -0.9410 -1.2470
  140MOL   H31945077   2.898   2.801   6.644  0.8994  0.3558 -0.0849
  140MOL   H32045078   3.058   2.869   6.668 -0.7031 -1.9174  2.1356
  140MOL   H32145079   3.033   2.737   6.550  2.2361 -0.4666  0.6708
  140MOL   H32245080   2.988   3.039   6.234 -0.3496 -3.8085  0.7062
  141MOL     C145081   4.773   4.816   3.035 -0.3762  0.3200 -0.0305
  141MOL     C245082   4.832   4.678   3.063 -0.3858  0.1494 -0.3839
  141MOL     O345083   4.870   4.673   3.200  0.4972  0.2776  0.2491
  141MOL     C445084   4.993   4.736   3.236  0.6203 -0.3945  0.0216
  141MOL     C545085   5.082   4.632   3.309 -0.2628  0.2739  0.0041
  141MOL     C645086   4.966   4.855   3.318 -0.5017 -0.3420 -0.4078
  141MOL     H745087   4.705   4.811   2.950  0.2594 -1.5093 -0.4550
  141MOL     H845088   4.722   4.857   3.123 -1.9923  1.6210 -1.5549
  141MOL     H945089   4.913   4.655   2.995 -0.9813 -0.7035 -0.8221
  141MOL    H1045090   5.031   4.771   3.140 -2.7996 -1.6093 -1.8677
  141MOL    H1145091   5.121   4.553   3.246  1.4274  1.0479  0.0344
  141MOL    H1245092   5.179   4.674   3.339 -0.9920  2.7042 -0.8725
  141MOL    H1345093   5.022   4.588   3.389  0.9070 -1.7832 -0.2219
  141MOL    H1445094   4.897   4.932   3.284 -0.6300  0.9178  2.5454
  141MOL    H1545095   4.918   4.810   3.405  2.7802 -1.1907  1.0489
  141MOL    H1645096   5.067   4.884   3.348 -0.8649 -0.7608  1.2721
  141MOL    H1745097   4.835   4.898   3.001 -0.7404  0.4882 -0.2930
  141MOL    C1845098   4.732   4.557   3.044  0.3253 -0.2513  0.1263
  141MOL    C1945099   4.791   4.421   3.074 -0.0026 -0.4507  0.0658
  141MOL    O2045100   4.879   4.393   2.974  0.4548  0.0089  0.5129
  141MOL    C2145101   4.963   4.278   2.988 -0.7642  0.6510  0.0772
  141MOL    C2245102   5.107   4.318   2.944 -0.5575 -0.4346 -0.0550
  141MOL    C2345103   4.907   4.163   2.900 -0.0742  0.5742  0.0774
  141MOL    H2445104   4.642   4.571   3.104 -1.4915  1.4397 -2.8593
  141MOL    H2545105   4.702   4.554   2.940  1.1125  1.5392 -0.1771
  141MOL    H2645106   4.854   4.436   3.162  2.1082 -0.7665 -1.3504
  141MOL    H2745107   4.976   4.249   3.092  1.4031  0.2504 -0.2750
  141MOL    H2845108   5.122   4.297   2.838  1.0567  0.2337  0.0356
  141MOL    H2945109   5.133   4.420   2.970  1.0147 -1.1770  1.3539
  141MOL    H3045110   5.185   4.257   2.989 -0.2035  0.0306 -0.0345
  141MOL    H3145111   4.801   4.150   2.920 -0.2849 -0.5236 -1.5707
  141MOL    H3245112   4.951   4.065   2.918 -0.2858  0.3460 -0.5955
  141MOL    H3345113   4.915   4.171   2.791  0.4314 -0.8336  0.0035
  141MOL    C3445114   4.690   4.305   3.125  0.5842  0.4185  0.0961
  141MOL    C3545115   4.563   4.334   3.213 -0.3325 -0.7728 -0.4418
  141MOL    O3645116   4.505   4.211   3.264 -0.1471  0.5021  0.3797
  141MOL    C3745117   4.415   4.138   3.175 -0.0677 -0.6135  0.3952
  141MOL    C3845118   4.443   3.994   3.214  0.0010  0.3161  0.0962
  141MOL    C3945119   4.266   4.184   3.201 -0.8499  0.2221  0.2955
  141MOL    H4045120   4.750   4.232   3.180 -0.6527 -0.8824 -0.2637
  141MOL    H4145121   4.653   4.244   3.042  1.1718  0.6385 -0.3330
  141MOL    H4245122   4.485   4.386   3.158  0.2960 -0.7320 -1.3191
  141MOL    H4345123   4.437   4.157   3.070  1.7806 -0.0292  0.8516
  141MOL    H4445124   4.358   3.932   3.184  0.9293 -1.6512  1.4372
  141MOL    H4545125   4.457   3.990   3.322 -0.4710 -1.1930  0.1156
  141MOL    H4645126   4.534   3.967   3.161 -0.2491 -0.7110  0.1885
  141MOL    H4745127   4.244   4.283   3.161 -3.0579  0.0388  0.9601
  141MOL    H4845128   4.200   4.116   3.146  2.0281 -1.1018 -1.6164
  141MOL    H4945129   4.244   4.180   3.308  1.0042  1.3807  0.7251
  141MOL    C5045130   4.587   4.417   3.342 -0.0806  1.1014 -0.4704
  141MOL    C5145131   4.455   4.467   3.405  0.3087  0.2628 -0.6870
  141MOL    O5245132   4.480   4.589   3.473  0.4198  0.0365  0.2772
  141MOL    C5345133   4.474   4.710   3.396  0.2465 -0.4492  0.2692
  141MOL    C5445134   4.573   4.803   3.464  0.2832 -0.1221 -0.7517
  141MOL    C5545135   4.331   4.753   3.366  0.0872  0.0669 -0.0174
  141MOL    H5645136   4.647   4.360   3.412 -0.6388  0.6270 -0.3777
  141MOL    H5745137   4.642   4.509   3.319  0.9771  0.7483  0.6242
  141MOL    H5845138   4.381   4.473   3.325  0.2926  0.3477 -0.6664
  141MOL    H5945139   4.516   4.685   3.299 -1.0613  0.1523 -0.4590
  141MOL    H6045140   4.576   4.902   3.419  0.9369 -0.5536 -1.6726
  141MOL    H6145141   4.670   4.754   3.462 -1.2436 -3.5497  2.3516
  141MOL    H6245142   4.558   4.827   3.569 -0.3493 -0.4534 -0.7585
  141MOL    H6345143   4.281   4.763   3.462  0.3522 -1.0574  0.2440
  141MOL    H6445144   4.275   4.683   3.304 -0.2169 -0.4521  0.8339
  141MOL    H6545145   4.348   4.848   3.314 -0.9975  0.1639 -0.2050
  141MOL    C6645146   4.406   4.363   3.506  0.2485  0.0451 -0.2086
  141MOL    C6745147   4.270   4.390   3.584  0.4316 -0.5409 -0.3948
  141MOL    O6845148   4.231   4.277   3.664 -0.2036  0.1376 -0.2169
  141MOL    C6945149   4.231   4.286   3.800 -0.1561 -0.6792 -0.5548
  141MOL    C7045150   4.127   4.185   3.851 -0.5125  0.2650 -0.1613
  141MOL    C7145151   4.373   4.285   3.853  0.0819  0.4343 -0.3979
  141MOL    H7245152   4.396   4.265   3.460  1.5785 -0.7624  1.1486
  141MOL    H7345153   4.482   4.329   3.578  0.4451  1.4711  0.2734
  141MOL    H7445154   4.277   4.481   3.642  0.8473 -0.2024 -0.9675
  141MOL    H7545155   4.197   4.385   3.833  1.0915  0.2444 -1.9740
  141MOL    H7645156   4.167   4.091   3.814  1.1343  0.9073 -0.0616
  141MOL    H7745157   4.122   4.180   3.960 -1.3405 -1.3146 -0.2562
  141MOL    H7845158   4.032   4.207   3.802  0.0535 -0.4315 -1.5904
  141MOL    H7945159   4.367   4.278   3.962  1.3227  0.2078 -0.3423
  141MOL    H8045160   4.434   4.369   3.820  0.9204 -0.1687 -0.3796
  141MOL    H8145161   4.423   4.191   3.830  1.2554  1.2397 -1.1417
  141MOL    C8245162   4.158   4.424   3.483  0.1591  0.2441  0.8603
  141MOL    C8345163   4.014   4.418   3.546 -0.1064 -0.2936 -0.1514
  141MOL    O8445164   3.939   4.540   3.518  0.1663  0.3430  0.0897
  141MOL    C8545165   3.980   4.657   3.600  0.5435  0.1675 -0.3473
  141MOL    C8645166   3.971   4.636   3.753 -0.5811 -0.8339  0.2694
  141MOL    C8745167   3.899   4.783   3.560 -0.5010  0.5250 -0.5698
  141MOL    H8845168   4.177   4.527   3.452  0.9410 -0.3076 -0.5109
  141MOL    H8945169   4.160   4.359   3.396 -0.3179  0.7087  0.4992
  141MOL    H9045170   4.019   4.402   3.654  0.4445  1.7068  0.1307
  141MOL    H9145171   4.081   4.676   3.562  1.2910 -1.5968  0.6798
  141MOL    H9245172   4.007   4.726   3.803 -0.2911 -1.0066  0.3722
  141MOL    H9345173   3.867   4.618   3.780 -1.3233  2.4021 -0.2168
  141MOL    H9445174   4.042   4.568   3.801 -1.3624 -1.6853  0.2358
  141MOL    H9545175   3.797   4.790   3.596 -0.0335  2.9659  0.3423
  141MOL    H9645176   3.950   4.877   3.580  0.4112  0.0529 -0.6328
  141MOL    H9745177   3.891   4.803   3.453  1.0184 -0.0696 -0.8095
  141MOL    C9845178   3.935   4.302   3.478 -0.1977 -0.3897 -0.6233
  141MOL    C9945179   3.786   4.303   3.522  0.3138  0.3948 -0.4281
  141MOL   O10045180   3.790   4.270   3.659  0.0149  0.2898  0.1022
  141MOL   C10145181   3.718   4.360   3.738 -0.3109  0.8411  0.2015
  141MOL   C10245182   3.791   4.353   3.881 -0.7040  0.5025  0.1186
  141MOL   C10345183   3.572   4.305   3.758 -0.3318 -0.6324  0.0887
  141MOL   H10445184   3.944   4.294   3.370  0.7759  0.2482 -0.6070
  141MOL   H10545185   3.988   4.214   3.515 -1.7548 -1.4647 -0.9120
  141MOL   H10645186   3.727   4.390   3.494 -0.4036 -0.3313 -1.1746
  141MOL   H10745187   3.719   4.465   3.710  1.8623  1.0301  0.9294
  141MOL   H10845188   3.891   4.395   3.888  0.3159 -2.0030  1.0733
  141MOL   H10945189   3.796   4.248   3.908  0.4097 -0.3272 -3.0587
  141MOL   H11045190   3.731   4.400   3.959 -1.6540 -0.0817 -0.2535
  141MOL   H11145191   3.580   4.197   3.774 -0.8228 -0.6157  0.4704
  141MOL   H11245192   3.515   4.320   3.667  0.6121  2.1838 -0.0554
  141MOL   H11345193   3.513   4.347   3.839  0.9342 -0.1202  0.7463
  141MOL   C11445194   3.712   4.187   3.462 -0.0015 -0.1463 -0.1532
  141MOL   C11545195   3.672   4.195   3.313 -0.2616  0.6036  0.2585
  141MOL   O11645196   3.789   4.174   3.232  0.4790  0.2643 -0.0097
  141MOL   C11745197   3.817   4.243   3.112  0.1893  0.2464  0.3157
  141MOL   C11845198   3.695   4.280   3.020  0.8052  0.2920  0.7640
  141MOL   C11945199   3.904   4.137   3.048 -0.4452 -0.4797 -0.5667
  141MOL   H12045200   3.624   4.170   3.523  0.2752 -1.8057 -0.1947
  141MOL   H12145201   3.762   4.093   3.485 -2.6982 -1.1088  2.0658
  141MOL   H12245202   3.631   4.293   3.290 -1.1085  0.0301 -0.7288
  141MOL   H12345203   3.881   4.330   3.128 -2.7959  2.6101 -0.1228
  141MOL   H12445204   3.737   4.336   2.937  1.4112  0.1179  0.9515
  141MOL   H12545205   3.620   4.348   3.060 -0.6998 -2.0857  2.1311
  141MOL   H12645206   3.649   4.189   2.979 -0.9504  1.0055  1.1245
  141MOL   H12745207   3.973   4.180   2.975  0.3644 -0.2713  0.3153
  141MOL   H12845208   3.841   4.063   2.998  0.2482 -1.7959  0.4924
  141MOL   H12945209   3.976   4.091   3.116  0.0868 -0.2980 -1.0031
  141MOL   C13045210   3.584   4.074   3.267 -0.1717  0.2350 -0.0052
  141MOL   C13145211   3.429   4.087   3.294 -0.1013 -0.0496 -0.3848
  141MOL   O13245212   3.383   3.961   3.353 -0.3222 -0.3928  0.4277
  141MOL   C13345213   3.419   3.933   3.489  0.4269  0.5531  0.0727
  141MOL   C13445214   3.331   4.018   3.581 -0.0196 -0.2770 -0.0676
  141MOL   C13545215   3.410   3.784   3.502  0.0040 -0.7268 -0.4562
  141MOL   H13645216   3.633   3.989   3.316 -1.8350 -0.5721  0.3000
  141MOL   H13745217   3.588   4.055   3.159  0.2717  1.2118 -0.1638
  141MOL   H13845218   3.414   4.177   3.353 -1.7031  1.2781 -2.7557
  141MOL   H13945219   3.521   3.966   3.510 -0.4007  2.0138  1.9775
  141MOL   H14045220   3.228   3.984   3.574  0.4041 -1.7794  0.7812
  141MOL   H14145221   3.311   4.122   3.558 -3.2158 -0.8200  0.0231
  141MOL   H14245222   3.361   4.010   3.685  0.4469  0.4529 -0.1401
  141MOL   H14345223   3.484   3.738   3.437  1.4074 -0.4798  0.9279
  141MOL   H14445224   3.402   3.738   3.600  0.7349  1.3953  0.6331
  141MOL   H14545225   3.317   3.745   3.461 -1.6418  0.1538  2.3236
  141MOL   C14645226   3.350   4.112   3.166 -0.0041  0.1380  0.1324
  141MOL   C14745227   3.202   4.138   3.186 -0.2046 -0.0269  0.6177
  141MOL   O14845228   3.189   4.277   3.198  0.0322 -0.5532  0.3577
  141MOL   C14945229   3.066   4.321   3.255 -0.3934 -0.7401  0.1709
  141MOL   C15045230   3.016   4.437   3.177  0.2546 -0.3395  0.3328
  141MOL   C15145231   3.090   4.355   3.399 -0.6050 -0.5070 -0.4145
  141MOL   H15245232   3.352   4.024   3.101 -0.2394  2.2097 -2.7694
  141MOL   H15345233   3.383   4.196   3.106  0.0354  1.1904  1.5877
  141MOL   H15445234   3.165   4.088   3.275  0.3114  0.5110  1.1397
  141MOL   H15545235   2.990   4.243   3.253 -1.6523  0.4386  1.0979
  141MOL   H15645236   2.920   4.481   3.205  0.5474  1.9690 -2.0427
  141MOL   H15745237   3.018   4.417   3.070 -2.5555 -1.2473  0.4144
  141MOL   H15845238   3.084   4.521   3.184 -0.7474  0.6352 -1.2049
  141MOL   H15945239   3.114   4.266   3.456 -3.7519 -0.9107  0.3486
  141MOL   H16045240   3.003   4.403   3.444 -0.9992  0.3518 -2.0217
  141MOL   H16145241   3.176   4.422   3.403 -0.2580 -1.0685  1.8303
  141MOL   C16245242   3.125   4.088   3.063 -0.2966 -0.1740  0.7986
  141MOL   C16345243   3.080   3.941   3.068 -0.2681 -0.8828  0.0796
  141MOL   O16445244   2.967   3.932   3.151  0.3447  0.2699  0.1720
  141MOL   C16545245   2.960   3.818   3.243  0.1179  0.5435 -0.1322
  141MOL   C16645246   2.807   3.786   3.261 -0.5387 -0.0237  0.2599
  141MOL   C16745247   3.043   3.820   3.369  0.6149  0.1835  0.2042
  141MOL   H16845248   3.040   4.152   3.040  1.7515  1.5660 -2.4670
  141MOL   H16945249   3.191   4.112   2.979 -0.6188  2.1530  1.1622
  141MOL   H17045250   3.159   3.876   3.105  1.4182 -0.4003 -2.5595
  141MOL   H17145251   2.995   3.735   3.181 -0.9401 -0.1915  0.2559
  141MOL   H17245252   2.783   3.700   3.324  2.5246 -0.7571  0.5041
  141MOL   H17345253   2.759   3.767   3.165 -2.4833 -0.4015  1.2794
  141MOL   H17445254   2.744   3.866   3.300 -2.0473 -0.5882 -1.0244
  141MOL   H17545255   3.008   3.902   3.432 -1.4943 -0.7937  0.3318
  141MOL   H17645256   3.149   3.832   3.348  0.9856 -1.7788  0.8789
  141MOL   H17745257   3.050   3.731   3.432  0.6873  1.0616  1.4683
  141MOL   C17845258   3.046   3.887   2.926 -0.2260  0.5443 -0.2030
  141MOL   C17945259   3.150   3.800   2.856 -0.3914 -0.1608  0.1162
  141MOL   O18045260   3.281   3.861   2.876 -0.0753  0.7342  0.2006
  141MOL   C18145261   3.351   3.915   2.761  0.6392  0.1199  0.3192
  141MOL   C18245262   3.442   3.797   2.714  0.1900  0.1021 -0.2384
  141MOL   C18345263   3.424   4.035   2.805 -0.5712 -0.3763  0.6053
  141MOL   H18445264   3.009   3.969   2.863 -2.8647  0.7017  1.4621
  141MOL   H18545265   2.952   3.831   2.931  0.1624 -0.0757  0.2453
  141MOL   H18645266   3.122   3.810   2.751  0.4705  3.1717  0.1756
  141MOL   H18745267   3.280   3.955   2.688 -1.0046  0.0798  1.8689
  141MOL   H18845268   3.506   3.818   2.628 -0.3704 -0.5962 -0.8382
  141MOL   H18945269   3.393   3.705   2.683 -0.6451  1.1015 -1.9362
  141MOL   H19045270   3.498   3.770   2.803  0.0050 -0.6470 -0.3423
  141MOL   H19145271   3.476   4.069   2.715 -0.8451 -1.4711  0.0193
  141MOL   H19245272   3.497   4.014   2.883 -0.0988 -2.4369 -0.3379
  141MOL   H19345273   3.355   4.115   2.831 -0.1426 -0.1412  1.0067
  141MOL   C19445274   3.165   3.650   2.905  0.5630  0.1012  0.1683
  141MOL   C19545275   3.080   3.551   2.830  0.4963  1.1924 -0.5454
  141MOL   O19645276   2.941   3.588   2.822  0.7560 -0.2994 -0.2109
  141MOL   C19745277   2.875   3.574   2.698  0.0485  0.1862 -0.6116
  141MOL   C19845278   2.722   3.579   2.740 -0.6798  0.5449  0.1056
  141MOL   C19945279   2.906   3.693   2.608 -0.1481 -0.7582  0.2010
  141MOL   H20045280   3.268   3.618   2.885  0.3902 -0.3563  0.0034
  141MOL   H20145281   3.141   3.643   3.011  0.2264 -2.0500 -0.0275
  141MOL   H20245282   3.116   3.537   2.728 -0.3574  0.9727 -0.8169
  141MOL   H20345283   2.903   3.481   2.650 -2.2802  0.6140 -2.9240
  141MOL   H20445284   2.671   3.575   2.643 -0.0119 -1.0354 -0.1822
  141MOL   H20545285   2.698   3.498   2.808 -0.0251 -0.1457 -0.4761
  141MOL   H20645286   2.688   3.676   2.777 -0.6172  0.0540  1.4493
  141MOL   H20745287   2.859   3.673   2.512  0.2615  1.5957 -0.5143
  141MOL   H20845288   2.872   3.786   2.654 -1.3003 -0.9271 -0.3012
  141MOL   H20945289   3.010   3.708   2.578 -0.5611  0.4323 -0.6561
  141MOL   C21045290   3.078   3.410   2.903  0.5336  0.0724  0.2123
  141MOL   C21145291   3.191   3.310   2.861 -0.3991 -0.5724  0.4221
  141MOL   O21245292   3.297   3.335   2.953 -0.9263  0.1128  0.3175
  141MOL   C21345293   3.425   3.362   2.890  0.5721  0.2102 -0.8962
  141MOL   C21445294   3.517   3.381   3.007  0.6461  0.0039  0.1588
  141MOL   C21545295   3.477   3.251   2.803  0.4293 -0.6105 -0.3732
  141MOL   H21645296   2.987   3.367   2.863  0.3095  2.2408 -1.7225
  141MOL   H21745297   3.070   3.425   3.011  1.0470  1.7595  0.0380
  141MOL   H21845298   3.210   3.316   2.753 -0.9132 -0.3431  0.3442
  141MOL   H21945299   3.428   3.458   2.839 -1.0923 -0.0151 -1.4300
  141MOL   H22045300   3.619   3.403   2.973  0.9972  0.5230  1.5277
  141MOL   H22145301   3.522   3.293   3.071  3.8130 -0.9176 -1.2130
  141MOL   H22245302   3.483   3.474   3.053  0.0822  0.6929 -1.5996
  141MOL   H22345303   3.578   3.275   2.769  1.2854 -3.0763  0.3438
  141MOL   H22445304   3.407   3.231   2.723 -0.5640 -0.6977  0.5058
  141MOL   H22545305   3.485   3.153   2.851  0.9187 -1.1357 -1.5061
  141MOL   C22645306   3.143   3.168   2.893  0.0284  0.3961 -0.2990
  141MOL   C22745307   3.087   3.089   2.767  1.0100 -0.2386 -0.7730
  141MOL   O22845308   3.012   2.989   2.830  0.1228  0.0463  0.0408
  141MOL   C22945309   2.878   3.009   2.873 -0.2507  0.1425 -0.4782
  141MOL   C23045310   2.854   2.954   3.019  0.3770 -0.1712  0.3613
  141MOL   C23145311   2.788   2.950   2.764  0.5382  0.4470  0.7270
  141MOL   H23245312   3.081   3.165   2.982  1.6836 -0.4264  0.8705
  141MOL   H23345313   3.234   3.117   2.926 -0.9975  1.1675  3.9275
  141MOL   H23445314   3.030   3.151   2.698  0.3515 -1.6714 -1.5471
  141MOL   H23545315   2.866   3.114   2.898  0.4273 -0.3907  2.2546
  141MOL   H23645316   2.907   2.995   3.105 -2.4216  0.3469  1.9090
  141MOL   H23745317   2.748   2.956   3.046  0.3004 -1.8684  0.2759
  141MOL   H23845318   2.886   2.850   3.017  0.1955 -0.2362  0.8207
  141MOL   H23945319   2.800   3.010   2.674 -1.1225  0.5465  0.5626
  141MOL   H24045320   2.684   2.958   2.796  1.1956  0.1179  3.0383
  141MOL   H24145321   2.791   2.844   2.738  0.6715  0.6889 -0.2540
  141MOL   C24245322   3.195   3.031   2.677 -1.1346 -0.3932  0.8791
  141MOL   C24345323   3.151   2.933   2.565  0.4505 -0.1769  0.1734
  141MOL   O24445324   3.270   2.885   2.514 -0.0395 -0.1223  0.5429
  141MOL   C24545325   3.280   2.747   2.476  0.1108  0.4822  0.2662
  141MOL   C24645326   3.405   2.734   2.388 -0.0385 -0.1734  0.0508
  141MOL   C24745327   3.287   2.643   2.594  0.2841  0.5606 -0.8563
  141MOL   H24845328   3.247   3.109   2.622 -0.3758 -0.5830  1.3163
  141MOL   H24945329   3.278   2.986   2.732 -1.9229 -0.5873  1.9305
  141MOL   H25045330   3.106   2.852   2.622  1.8410 -0.5786  0.7088
  141MOL   H25145331   3.201   2.713   2.408  1.8889 -2.1330 -0.5750
  141MOL   H25245332   3.439   2.631   2.383  1.2779  0.2365  0.2691
  141MOL   H25345333   3.386   2.767   2.286 -0.6451 -1.2233 -0.1776
  141MOL   H25445334   3.488   2.789   2.433 -0.8251 -0.7304  2.2272
  141MOL   H25545335   3.365   2.675   2.663 -0.9097 -2.4913  2.0242
  141MOL   H25645336   3.194   2.650   2.651  2.2033 -0.3565  2.5358
  141MOL   H25745337   3.306   2.542   2.560 -0.3082  0.2439 -0.2637
  141MOL   C25845338   3.055   2.990   2.455 -0.5485  0.1112 -0.1005
  141MOL   C25945339   3.121   3.106   2.371  1.0089 -0.4787 -0.1876
  141MOL   O26045340   3.009   3.165   2.308  0.3060 -0.2811 -1.0166
  141MOL   C26145341   2.934   3.259   2.378  0.6136 -0.4704  0.8765
  141MOL   C26245342   2.965   3.399   2.324 -0.4562  0.7043  0.0070
  141MOL   C26345343   2.784   3.223   2.344 -0.2258 -0.5385  0.0397
  141MOL   H26445344   3.033   2.910   2.384 -0.5530  0.7279 -0.8074
  141MOL   H26545345   2.960   3.014   2.502 -0.6359 -0.2601 -0.0831
  141MOL   H26645346   3.172   3.171   2.441 -0.2815 -1.0648  1.3216
  141MOL   H26745347   2.960   3.254   2.484  1.5012 -0.2299  0.6724
  141MOL   H26845348   2.929   3.421   2.224  0.5756 -0.5000 -0.6499
  141MOL   H26945349   3.067   3.431   2.346 -0.1156 -1.3310  1.5899
  141MOL   H27045350   2.908   3.465   2.389 -0.8654  1.4930 -1.1377
  141MOL   H27145351   2.723   3.307   2.377  1.5621  0.4790  0.8395
  141MOL   H27245352   2.764   3.199   2.239  1.1081 -1.2509 -0.0655
  141MOL   H27345353   2.752   3.141   2.408 -2.9976 -0.2165 -0.8648
  141MOL   C27445354   3.216   3.062   2.258 -0.2026 -0.3243  0.4868
  141MOL   C27545355   3.290   3.182   2.205  0.6199 -0.4248  0.1902
  141MOL   O27645356   3.389   3.211   2.304  0.5528 -0.0291  0.3698
  141MOL   C27745357   3.419   3.348   2.306 -0.8241  0.3122  0.2449
  141MOL   C27845358   3.568   3.368   2.281 -0.2150  0.4476  0.1820
  141MOL   C27945359   3.376   3.407   2.437  0.1050 -0.0134 -0.2333
  141MOL   H28045360   3.272   2.976   2.296  1.1876 -0.3763 -1.5901
  141MOL   H28145361   3.152   3.024   2.178 -0.9000  2.1854 -0.1691
  141MOL   H28245362   3.215   3.258   2.183  1.6058  0.3575 -0.5943
  141MOL   H28345363   3.369   3.401   2.225  0.8964  0.9809 -0.4069
  141MOL   H28445364   3.593   3.299   2.200 -1.7385 -0.3220  0.3348
  141MOL   H28545365   3.579   3.474   2.260  0.5262  0.2399 -0.5034
  141MOL   H28645366   3.619   3.333   2.370 -1.0260 -0.9189  0.1257
  141MOL   H28745367   3.437   3.372   2.520  1.1795 -0.4381 -1.1963
  141MOL   H28845368   3.273   3.382   2.466 -0.2621  0.0218 -1.5003
  141MOL   H28945369   3.382   3.515   2.439  0.6725 -0.0035 -1.7784
  141MOL   C29045370   3.381   3.147   2.086 -0.2568 -0.3972 -0.1028
  141MOL   C29145371   3.325   3.080   1.963  0.1298 -0.3351  0.0117
  141MOL   O29245372   3.398   3.121   1.850 -0.3550  0.0260  0.5027
  141MOL   C29345373   3.349   3.226   1.765  0.2728 -0.5246  0.3382
  141MOL   C29445374   3.354   3.184   1.616 -0.0481 -0.2441 -0.2717
  141MOL   C29545375   3.454   3.334   1.790 -0.3168  0.6676  0.6121
  141MOL   H29645376   3.471   3.103   2.127 -0.0873  0.8362  0.8947
  141MOL   H29745377   3.413   3.245   2.049 -0.1922 -0.2402  0.3714
  141MOL   H29845378   3.222   3.113   1.947  0.0870 -1.0573 -1.3226
  141MOL   H29945379   3.246   3.257   1.784  0.2482  0.1552 -0.8770
  141MOL   H30045380   3.457   3.164   1.585 -0.4699 -2.8371 -0.1053
  141MOL   H30145381   3.293   3.096   1.596 -0.4924  0.0605 -0.2433
  141MOL   H30245382   3.320   3.264   1.551  1.2629 -0.4846 -1.2792
  141MOL   H30345383   3.448   3.366   1.894 -1.0136 -0.1137  0.8228
  141MOL   H30445384   3.558   3.306   1.774 -0.5583 -0.2855  0.6427
  141MOL   H30545385   3.439   3.416   1.720  1.7845  3.7625  3.6746
  141MOL   C30645386   3.335   2.930   1.977 -0.4945  0.5118  0.0951
  141MOL   C30745387   3.237   2.864   1.878  0.2265 -1.0021 -0.3984
  141MOL   O30845388   3.264   2.723   1.878  0.2527  0.0405  0.1831
  141MOL   C30945389   3.200   2.659   1.770 -0.8343 -0.1095 -0.0304
  141MOL   C31045390   3.279   2.532   1.740  0.1433  0.7088 -0.4010
  141MOL   C31145391   3.053   2.625   1.797 -0.2759 -0.2528  0.0254
  141MOL   H31245392   3.311   2.894   2.077 -2.0307  0.3123 -0.3259
  141MOL   H31345393   3.436   2.894   1.958  0.3776  2.1784  1.4153
  141MOL   H31445394   3.132   2.895   1.884  0.5043 -0.1250 -0.1174
  141MOL   H31545395   3.213   2.716   1.678 -0.1220 -0.3616 -0.0899
  141MOL   H31645396   3.230   2.464   1.669 -0.3356 -2.4222  2.8082
  141MOL   H31745397   3.288   2.461   1.821 -0.3930  0.9457 -0.1331
  141MOL   H31845398   3.383   2.554   1.714  0.8443 -1.4836  0.4639
  141MOL   H31945399   2.991   2.714   1.798 -0.0238 -0.0781  1.2189
  141MOL   H32045400   3.047   2.584   1.898  1.4506  0.7120  0.5233
  141MOL   H32145401   2.996   2.568   1.723 -0.8524 -0.9290  0.9682
  141MOL   H32245402   3.256   2.902   1.778  1.1802 -1.5894 -0.4398
  142MOL     C145403   4.914   5.033   2.282  0.5207  0.1182  0.2606
  142MOL     C245404   4.809   4.940   2.348  0.0080  0.8678 -0.1372
  142MOL     O345405   4.804   4.974   2.483  0.5214 -0.0113  0.5329
  142MOL     C445406   4.912   4.928   2.561  0.1185 -0.0520  0.3018
  142MOL     C545407   4.865   4.790   2.619 -0.7691 -0.0753  0.6258
  142MOL     C645408   4.949   5.033   2.660  0.4121  0.3616 -0.5421
  142MOL     H745409   5.018   5.028   2.316  0.9934 -2.2695 -1.4205
  142MOL     H845410   4.910   5.030   2.174  0.1451 -0.7231  0.2914
  142MOL     H945411   4.849   4.840   2.335 -1.1133  0.5245 -1.1106
  142MOL    H1045412   4.995   4.910   2.493  1.1067  2.0706  0.9051
  142MOL    H1145413   4.793   4.805   2.699  0.7386  0.9401  1.8371
  142MOL    H1245414   4.810   4.737   2.542 -0.1776  0.6611 -0.3259
  142MOL    H1345415   4.951   4.726   2.642  0.3317  0.8680 -0.7593
  142MOL    H1445416   4.959   5.128   2.607  0.1447  1.2922  1.0319
  142MOL    H1545417   4.869   5.041   2.734 -1.6413 -1.4350 -2.5019
  142MOL    H1645418   5.046   4.998   2.695 -0.3076 -0.1605  0.9752
  142MOL    H1745419   4.879   5.127   2.323 -1.3102 -0.9573  1.2540
  142MOL    C1845420   4.663   4.949   2.300 -0.3810  0.5131 -0.4504
  142MOL    C1945421   4.590   4.811   2.293  0.0013 -1.0375  0.1200
  142MOL    O2045422   4.640   4.753   2.179  0.5046 -0.8314 -0.2179
  142MOL    C2145423   4.623   4.612   2.175 -0.7019  0.7926 -0.8725
  142MOL    C2245424   4.764   4.558   2.199 -0.2835 -0.2345 -0.1824
  142MOL    C2345425   4.561   4.563   2.045 -0.0432 -0.5335 -0.7591
  142MOL    H2445426   4.613   5.023   2.361  0.1298  1.0968 -0.7376
  142MOL    H2545427   4.659   4.986   2.198 -0.1373  2.3050  0.1820
  142MOL    H2645428   4.616   4.751   2.380  0.9195 -1.6323 -0.5628
  142MOL    H2745429   4.558   4.578   2.256  1.5131 -0.1954  0.5367
  142MOL    H2845430   4.841   4.605   2.138 -0.3907  0.9416  0.5776
  142MOL    H2945431   4.796   4.574   2.302  1.3270 -0.5840 -0.6051
  142MOL    H3045432   4.754   4.450   2.192  0.1406 -0.1465 -2.3343
  142MOL    H3145433   4.498   4.640   2.001 -2.2281 -0.8401  1.7642
  142MOL    H3245434   4.513   4.466   2.055 -0.9536 -0.0759 -0.7125
  142MOL    H3345435   4.637   4.544   1.968  0.6012  2.1000 -0.8219
  142MOL    C3445436   4.438   4.824   2.282  0.0996  0.3795  0.0946
  142MOL    C3545437   4.364   4.846   2.415  0.3028  0.6349 -0.2002
  142MOL    O3645438   4.228   4.887   2.380  0.7081 -0.0954 -0.3442
  142MOL    C3745439   4.192   5.021   2.390  0.5422  0.1795 -0.7514
  142MOL    C3845440   4.250   5.119   2.291  0.4725 -0.2278 -0.0793
  142MOL    C3945441   4.036   5.028   2.401 -0.6567  0.3112  0.0003
  142MOL    H4045442   4.399   4.730   2.242  1.0730  0.5924 -1.3956
  142MOL    H4145443   4.419   4.904   2.211 -0.0492 -0.8059 -1.2279
  142MOL    H4245444   4.407   4.928   2.472  1.0052  0.0235  0.1416
  142MOL    H4345445   4.230   5.050   2.488 -0.1139 -0.0936 -0.4111
  142MOL    H4445446   4.205   5.117   2.192  0.4389  0.6483 -0.0833
  142MOL    H4545447   4.358   5.107   2.280  0.6258 -1.8503  2.6115
  142MOL    H4645448   4.245   5.222   2.326  0.6239  0.1335 -1.1242
  142MOL    H4745449   3.991   4.997   2.495  0.3150  1.7054  0.9527
  142MOL    H4845450   4.001   5.132   2.402 -0.1781  0.4854 -0.9494
  142MOL    H4945451   3.990   4.969   2.322 -1.0459 -0.2486  0.6481
  142MOL    C5045452   4.374   4.721   2.505 -0.2619 -0.5533 -0.1440
  142MOL    C5145453   4.275   4.705   2.624  0.4062  0.4963  0.0517
  142MOL    O5245454   4.341   4.616   2.711  0.5120  0.0529 -0.5704
  142MOL    C5345455   4.324   4.650   2.849 -0.0830 -0.5546 -0.0115
  142MOL    C5445456   4.419   4.767   2.875  0.1597  0.0162  0.0429
  142MOL    C5545457   4.363   4.529   2.930 -0.0450 -0.6449 -0.2725
  142MOL    H5645458   4.384   4.630   2.446 -0.9161 -0.0314 -1.0682
  142MOL    H5745459   4.471   4.729   2.555 -1.8140  1.3044  2.7379
  142MOL    H5845460   4.264   4.807   2.661  0.8647  1.3384 -2.0400
  142MOL    H5945461   4.221   4.675   2.873 -0.5660 -0.6910 -1.8240
  142MOL    H6045462   4.516   4.759   2.826  0.8147  0.5361  1.2415
  142MOL    H6145463   4.444   4.766   2.981 -3.2622  1.7594  0.9509
  142MOL    H6245464   4.373   4.864   2.854  1.1989  0.3109 -0.9533
  142MOL    H6345465   4.290   4.450   2.914  0.8055 -1.5950  0.5261
  142MOL    H6445466   4.380   4.556   3.034 -0.0751 -0.7299 -0.2458
  142MOL    H6545467   4.459   4.480   2.912  0.2011 -0.3011  0.1061
  142MOL    C6645468   4.150   4.637   2.576 -1.0523 -0.1748  0.3185
  142MOL    C6745469   4.037   4.624   2.684  0.5483  0.2707  0.0337
  142MOL    O6845470   3.932   4.546   2.628 -0.1267 -0.6861  0.1768
  142MOL    C6945471   3.906   4.418   2.689 -0.1755  0.1896  0.4161
  142MOL    C7045472   3.771   4.377   2.644 -0.5321  0.1533 -0.1765
  142MOL    C7145473   4.021   4.315   2.684  0.6586  0.0793 -0.4546
  142MOL    H7245474   4.110   4.702   2.498  1.8519 -0.0292 -1.1167
  142MOL    H7345475   4.177   4.541   2.533  0.2368 -0.4537  1.6952
  142MOL    H7445476   4.087   4.572   2.766 -0.6983  1.5050  1.5993
  142MOL    H7545477   3.895   4.430   2.797 -0.6199 -0.0661  0.4036
  142MOL    H7645478   3.732   4.284   2.685 -0.1841  0.5065  0.9771
  142MOL    H7745479   3.700   4.453   2.678 -0.5959  0.1749 -0.3566
  142MOL    H7845480   3.769   4.367   2.536  2.4333  1.1962 -0.3785
  142MOL    H7945481   4.087   4.330   2.770 -1.0544 -2.9339  1.5051
  142MOL    H8045482   4.086   4.325   2.598  0.4162 -0.9196 -0.7608
  142MOL    H8145483   3.982   4.213   2.689 -1.6443  0.9359  0.1233
  142MOL    C8245484   3.975   4.759   2.732  0.4012 -0.8790 -0.1208
  142MOL    C8345485   3.894   4.762   2.862  0.1478  0.1679 -0.3198
  142MOL    O8445486   3.992   4.732   2.964  0.5086 -0.4380  0.6543
  142MOL    C8545487   3.952   4.642   3.065 -0.0276  0.1483  0.0343
  142MOL    C8645488   3.871   4.708   3.176 -0.2541 -0.1101  0.1471
  142MOL    C8745489   4.087   4.592   3.121  0.0759  0.6351  0.1696
  142MOL    H8845490   4.056   4.832   2.737  0.4212 -0.7401 -2.0975
  142MOL    H8945491   3.920   4.800   2.648 -2.0376  1.2291  2.3720
  142MOL    H9045492   3.816   4.687   2.847  2.5606 -2.5596  0.2989
  142MOL    H9145493   3.891   4.563   3.020 -0.3303  1.2296 -1.5246
  142MOL    H9245494   3.934   4.784   3.222  0.7092 -0.4691 -0.5500
  142MOL    H9345495   3.773   4.748   3.148 -0.0218  0.0409 -0.4687
  142MOL    H9445496   3.851   4.633   3.252  1.0382 -0.7070 -0.0906
  142MOL    H9545497   4.143   4.537   3.046  0.1538  0.4082  0.3922
  142MOL    H9645498   4.148   4.682   3.127 -1.5668  1.7523  0.3414
  142MOL    H9745499   4.095   4.540   3.217 -2.4148  0.1477  0.1473
  142MOL    C9845500   3.829   4.898   2.887 -0.0953  0.5627  0.2752
  142MOL    C9945501   3.684   4.907   2.838  0.3074 -0.2897  0.0336
  142MOL   O10045502   3.632   5.041   2.845 -0.1528  0.1500  0.0036
  142MOL   C10145503   3.592   5.093   2.716 -0.2839  0.5467  0.3535
  142MOL   C10245504   3.724   5.123   2.644 -0.0288 -0.0877 -0.1998
  142MOL   C10345505   3.515   5.224   2.731  0.4947 -0.3001  0.3496
  142MOL   H10445506   3.827   4.925   2.992 -1.9676  1.5215  0.0046
  142MOL   H10545507   3.888   4.976   2.839 -0.0983  0.5445  0.2413
  142MOL   H10645508   3.683   4.868   2.736  0.0660 -0.3272  0.0503
  142MOL   H10745509   3.527   5.026   2.660  1.6913  0.0373 -1.4085
  142MOL   H10845510   3.794   5.182   2.704  1.6744 -0.0584 -2.1707
  142MOL   H10945511   3.720   5.178   2.550 -1.5025  0.0166 -0.0849
  142MOL   H11045512   3.786   5.036   2.624  2.6332  1.2125  2.0462
  142MOL   H11145513   3.552   5.272   2.821  0.9164 -0.6158  0.3457
  142MOL   H11245514   3.409   5.218   2.755  0.5988 -1.5086  0.5438
  142MOL   H11345515   3.539   5.308   2.665  0.0576 -1.0287 -0.7613
  142MOL   C11445516   3.585   4.822   2.916  0.7441  0.3188  0.0395
  142MOL   C11545517   3.446   4.799   2.838 -0.6173 -0.7073 -0.1400
  142MOL   O11645518   3.390   4.681   2.894 -0.5231  0.1522  0.1836
  142MOL   C11745519   3.439   4.549   2.857  0.0185  0.2670  0.1278
  142MOL   C11845520   3.437   4.522   2.704  0.2445  0.2627 -0.1772
  142MOL   C11945521   3.331   4.461   2.920  0.3320  0.8615 -0.4368
  142MOL   H12045522   3.575   4.858   3.018 -0.7968  0.3315 -0.1176
  142MOL   H12145523   3.624   4.720   2.925 -0.0132 -0.0902 -1.1445
  142MOL   H12245524   3.466   4.797   2.731  2.1913 -0.0727  0.3162
  142MOL   H12345525   3.529   4.510   2.905  1.7477  1.7409 -1.7830
  142MOL   H12445526   3.458   4.417   2.686 -0.2220  0.3371 -1.2068
  142MOL   H12545527   3.509   4.585   2.651 -1.1912  2.5711  0.5431
  142MOL   H12645528   3.341   4.544   2.657  0.3905  0.7764 -0.2481
  142MOL   H12745529   3.233   4.506   2.911 -0.4523 -0.2958  2.0167
  142MOL   H12845530   3.340   4.439   3.026  0.8698  0.0673 -0.6415
  142MOL   H12945531   3.326   4.356   2.889 -1.6883  0.2121  1.9132
  142MOL   C13045532   3.345   4.910   2.878  0.0563 -0.2756  0.0164
  142MOL   C13145533   3.218   4.925   2.796 -0.9917  0.4710  0.5418
  142MOL   O13245534   3.246   4.989   2.668 -0.8055  0.4579 -0.0352
  142MOL   C13345535   3.182   4.945   2.551  0.0174 -0.5328  0.0482
  142MOL   C13445536   3.189   5.060   2.451  0.4001  0.6606 -0.3169
  142MOL   C13545537   3.248   4.816   2.499  0.0742  0.2748  0.3274
  142MOL   H13645538   3.399   5.005   2.878 -0.1879 -0.1319  0.7647
  142MOL   H13745539   3.328   4.905   2.986  1.5021 -0.2460  0.2532
  142MOL   H13845540   3.178   4.825   2.779  1.2656 -0.1988 -1.0799
  142MOL   H13945541   3.077   4.926   2.574 -0.3455  1.5389  0.2773
  142MOL   H14045542   3.153   5.018   2.358  2.3697 -0.3101 -0.6751
  142MOL   H14145543   3.292   5.095   2.438  0.0719  1.7452 -0.0357
  142MOL   H14245544   3.120   5.141   2.474 -0.2373  0.4109 -1.3427
  142MOL   H14345545   3.242   4.732   2.568 -1.9364  0.0640 -0.0938
  142MOL   H14445546   3.195   4.786   2.408 -2.3020  0.7637  1.5259
  142MOL   H14545547   3.356   4.829   2.492  0.1081  0.6147  1.3844
  142MOL   C14645548   3.119   5.015   2.865 -0.1854  0.0734 -0.5179
  142MOL   C14745549   3.066   4.957   2.997  0.5433  0.3321 -0.2099
  142MOL   O14845550   2.976   5.049   3.054  0.7224 -0.0148  0.0555
  142MOL   C14945551   3.027   5.166   3.118  0.2267 -0.8319 -0.2814
  142MOL   C15045552   3.034   5.144   3.266  0.8322  0.2637 -0.2612
  142MOL   C15145553   2.929   5.281   3.074  0.2340  0.4383 -0.3634
  142MOL   H15245554   3.037   5.027   2.794  0.5887 -0.9251 -1.6018
  142MOL   H15345555   3.168   5.111   2.878  0.1463 -0.4476  2.3961
  142MOL   H15445556   3.152   4.951   3.063 -0.1581  0.1488  0.6874
  142MOL   H15545557   3.126   5.194   3.080 -0.6113  1.3388 -0.9792
  142MOL   H15645558   3.102   5.207   3.324 -0.8827  1.2733  0.6676
  142MOL   H15745559   3.073   5.043   3.279 -0.0169 -0.3331 -2.1915
  142MOL   H15845560   2.939   5.167   3.313  1.7649  3.4567  0.1460
  142MOL   H15945561   2.830   5.262   3.116  0.5053  0.9062  0.5112
  142MOL   H16045562   2.926   5.281   2.965  0.2489  1.3078 -0.3686
  142MOL   H16145563   2.955   5.382   3.107  0.1215  0.2130  0.4377
  142MOL   C16245564   2.993   4.821   2.983 -0.3463  0.3210  0.8136
  142MOL   C16345565   2.891   4.806   2.861  0.2162 -0.2969  0.1140
  142MOL   O16445566   2.886   4.663   2.849  0.3758  0.4360  0.6223
  142MOL   C16545567   2.818   4.604   2.737 -0.0857  0.4941  0.3386
  142MOL   C16645568   2.834   4.457   2.752 -0.2811  1.0291 -0.2937
  142MOL   C16745569   2.869   4.664   2.607 -0.0681  0.2240  0.2164
  142MOL   H16845570   3.069   4.743   2.974  2.6324  3.1984 -0.1159
  142MOL   H16945571   2.942   4.796   3.076  0.2693  1.1673  1.3808
  142MOL   H17045572   2.933   4.860   2.776  0.2285 -0.2538  0.1479
  142MOL   H17145573   2.712   4.629   2.744  0.6077  3.2091  1.7895
  142MOL   H17245574   2.937   4.424   2.761 -0.7459 -0.7954 -1.4486
  142MOL   H17345575   2.795   4.403   2.666  0.0996  1.3407 -0.6611
  142MOL   H17445576   2.784   4.417   2.841 -0.6386  0.1767 -0.8688
  142MOL   H17545577   2.865   4.589   2.528  0.1002  0.0195  0.3993
  142MOL   H17645578   2.974   4.690   2.612 -0.2385  0.8819  0.3635
  142MOL   H17745579   2.813   4.753   2.581  0.1339  0.1813 -0.3596
  142MOL   C17845580   2.745   4.870   2.900 -0.9363  0.1592 -0.0390
  142MOL   C17945581   2.683   4.950   2.788 -0.8950 -0.0327  0.4892
  142MOL   O18045582   2.546   4.952   2.817  0.1933  0.5947 -0.2403
  142MOL   C18145583   2.464   4.850   2.767  0.6662 -0.1701  0.1292
  142MOL   C18245584   2.452   4.858   2.615  0.0308  0.3740 -0.0963
  142MOL   C18345585   2.329   4.874   2.836  0.0546  0.5592  1.2663
  142MOL   H18445586   2.757   4.922   2.995 -0.6396 -0.2832  0.1709
  142MOL   H18545587   2.676   4.789   2.925  0.6053 -0.8965  0.9047
  142MOL   H18645588   2.703   4.908   2.689  1.9759  0.0813  0.9780
  142MOL   H18745589   2.503   4.753   2.797  0.2610 -0.3821 -0.0259
  142MOL   H18845590   2.431   4.960   2.583  0.1799  0.7749  1.0784
  142MOL   H18945591   2.376   4.796   2.568  1.4837 -1.2489 -0.3609
  142MOL   H19045592   2.543   4.825   2.564  0.4955  0.7152  0.5110
  142MOL   H19145593   2.300   4.977   2.813 -0.2587  0.6040  1.8478
  142MOL   H19245594   2.332   4.885   2.944  0.0635  2.2567  1.0998
  142MOL   H19345595   2.254   4.796   2.818 -0.3879  0.6880  2.5473
  142MOL   C19445596   2.734   5.093   2.795 -0.3990 -0.2723 -0.6080
  142MOL   C19545597   2.694   5.178   2.672  0.3639  0.2055  0.2164
  142MOL   O19645598   2.781   5.132   2.570 -0.0613  0.8461 -0.0444
  142MOL   C19745599   2.727   5.094   2.443  0.0400  0.5724  0.2654
  142MOL   C19845600   2.666   5.214   2.376 -0.1135 -0.0268 -0.1503
  142MOL   C19945601   2.823   5.024   2.347 -0.5620 -0.0413  0.2116
  142MOL   H20045602   2.694   5.138   2.885  0.9452  0.1009 -0.1896
  142MOL   H20145603   2.843   5.095   2.802 -0.4248  0.0350 -0.3217
  142MOL   H20245604   2.590   5.157   2.650 -0.3804  2.1937  1.7286
  142MOL   H20345605   2.650   5.018   2.458 -1.3582  2.4119  2.8545
  142MOL   H20445606   2.648   5.198   2.270  0.5224  0.4243 -0.3280
  142MOL   H20545607   2.563   5.230   2.408  0.5035  1.8867  0.9445
  142MOL   H20645608   2.731   5.298   2.401  0.6929 -1.3433  2.4405
  142MOL   H20745609   2.874   5.097   2.283  2.7705 -1.8245  0.7139
  142MOL   H20845610   2.898   4.968   2.404 -0.0492  1.0155  0.5961
  142MOL   H20945611   2.770   4.958   2.279  1.1373 -1.9703  0.7060
  142MOL   C21045612   2.707   5.333   2.679  0.2305  0.6290  0.1232
  142MOL   C21145613   2.664   5.394   2.814 -1.0615  0.0940 -0.1278
  142MOL   O21245614   2.690   5.535   2.800 -0.4183  0.1476  0.2667
  142MOL   C21345615   2.818   5.578   2.833 -0.4464 -0.5793  0.5036
  142MOL   C21445616   2.868   5.675   2.731  0.0099 -0.1376  0.2603
  142MOL   C21545617   2.805   5.636   2.968 -0.3378  0.5321  0.4350
  142MOL   H21645618   2.636   5.381   2.611 -0.9950  0.6671  1.4138
  142MOL   H21745619   2.806   5.374   2.660  0.0419 -0.0489 -2.5431
  142MOL   H21845620   2.726   5.352   2.892 -1.3339 -1.4790 -0.7462
  142MOL   H21945621   2.892   5.499   2.849  1.2360  0.6522 -1.0485
  142MOL   H22045622   2.951   5.734   2.770  0.5161 -0.8138  0.2303
  142MOL   H22145623   2.789   5.741   2.697  0.6983 -0.1297 -1.3749
  142MOL   H22245624   2.900   5.622   2.641 -0.0920  2.2344 -1.2044
  142MOL   H22345625   2.760   5.564   3.036  0.3963 -1.0187 -0.7026
  142MOL   H22445626   2.758   5.734   2.966  1.0775  1.1852 -2.1761
  142MOL   H22545627   2.909   5.652   2.995  0.0484  2.0736 -1.8448
  142MOL   C22645628   2.518   5.367   2.854  0.3340 -0.3954 -0.2267
  142MOL   C22745629   2.499   5.374   3.001  0.6140 -0.3045 -0.3022
  142MOL   O22845630   2.382   5.297   3.040 -0.4634  0.3623 -0.8259
  142MOL   C22945631   2.400   5.159   3.067 -0.8508  0.5126 -0.8386
  142MOL   C23045632   2.259   5.101   3.091  0.1288 -0.3899  0.2772
  142MOL   C23145633   2.499   5.135   3.187  0.1343  0.3424 -0.2073
  142MOL   H23245634   2.491   5.264   2.827  2.9954 -1.4181  0.8801
  142MOL   H23345635   2.455   5.433   2.795 -0.3697 -0.5767  0.3236
  142MOL   H23445636   2.584   5.348   3.064 -0.3120 -1.0331  0.6572
  142MOL   H23545637   2.449   5.115   2.980  0.9987 -1.6814  1.2321
  142MOL   H23645638   2.266   4.999   3.130 -0.1042 -0.7671 -0.6459
  142MOL   H23745639   2.213   5.155   3.174  0.2072 -0.4728  0.3742
  142MOL   H23845640   2.189   5.102   3.007 -0.0066 -1.5619  0.3589
  142MOL   H23945641   2.473   5.042   3.238  1.5144 -0.9365 -1.7656
  142MOL   H24045642   2.502   5.219   3.255  0.2790  0.4877 -0.3948
  142MOL   H24145643   2.597   5.112   3.144  0.2069  1.0248 -0.4091
  142MOL   C24245644   2.464   5.525   3.025  0.1786 -0.3697 -0.2582
  142MOL   C24345645   2.439   5.555   3.180  0.4443 -0.0721  1.1864
  142MOL   O24445646   2.381   5.687   3.201  0.2919  0.0274  0.1622
  142MOL   C24545647   2.241   5.695   3.238 -0.4908  0.7263  0.0667
  142MOL   C24645648   2.224   5.841   3.285 -0.6489 -0.3706  0.3210
  142MOL   C24745649   2.147   5.668   3.114 -0.6144 -0.7453  0.4970
  142MOL   H24845650   2.539   5.599   2.995 -2.0324  2.2339  0.3850
  142MOL   H24945651   2.374   5.553   2.969  0.2434  0.8103  0.2092
  142MOL   H25045652   2.376   5.474   3.218 -1.3894 -0.3147 -2.2313
  142MOL   H25145653   2.228   5.614   3.310  0.1186 -0.2113 -0.8613
  142MOL   H25245654   2.227   5.903   3.195  2.6506  0.5532  0.9909
  142MOL   H25345655   2.136   5.875   3.341 -0.6929 -0.2794  0.1974
  142MOL   H25445656   2.304   5.865   3.356  1.1450  1.0222 -2.0956
  142MOL   H25545657   2.167   5.575   3.061  1.0006 -0.4350  0.5520
  142MOL   H25645658   2.041   5.667   3.139 -0.7125  0.8142  0.1666
  142MOL   H25745659   2.170   5.738   3.034 -0.1745 -0.2283  1.0772
  142MOL   C25845660   2.566   5.549   3.257  0.7169  0.3316  0.0703
  142MOL   C25945661   2.537   5.569   3.411  0.4765 -0.4378  0.0645
  142MOL   O26045662   2.640   5.641   3.476 -0.4104  0.0551 -0.0193
  142MOL   C26145663   2.612   5.770   3.523  0.3075  0.1587 -0.0262
  142MOL   C26245664   2.700   5.801   3.637 -0.3479  0.4157  0.1256
  142MOL   C26345665   2.627   5.872   3.413  0.3601 -0.0643  0.1547
  142MOL   H26445666   2.621   5.457   3.238  0.1861 -0.3631  1.7923
  142MOL   H26545667   2.641   5.621   3.223  0.8376 -1.5643 -3.9072
  142MOL   H26645668   2.436   5.606   3.430  0.4182 -1.5904  2.1393
  142MOL   H26745669   2.513   5.776   3.568 -0.0011  0.4905 -0.7457
  142MOL   H26845670   2.702   5.905   3.673 -0.0853 -0.1870  1.9273
  142MOL   H26945671   2.803   5.788   3.605 -0.3109 -2.3328  1.2604
  142MOL   H27045672   2.683   5.734   3.721  2.8423 -1.6437 -0.7718
  142MOL   H27145673   2.722   5.894   3.363 -0.4930  0.8947 -1.0939
  142MOL   H27245674   2.552   5.856   3.335 -1.2368 -0.7825  1.7994
  142MOL   H27345675   2.596   5.968   3.454  0.4313  0.3125 -0.6564
  142MOL   C27445676   2.537   5.433   3.482 -0.0595 -0.3331  0.6895
  142MOL   C27545677   2.510   5.426   3.634 -0.7889  1.1196  0.3052
  142MOL   O27645678   2.378   5.473   3.654  0.3353 -0.1984  0.0519
  142MOL   C27745679   2.365   5.585   3.743  0.2179 -0.0314  0.1068
  142MOL   C27845680   2.339   5.521   3.878  0.3020  0.0888 -0.4119
  142MOL   C27945681   2.247   5.677   3.700  0.3963  0.4868 -0.3629
  142MOL   H28045682   2.476   5.364   3.424 -1.8956  1.4790  0.4546
  142MOL   H28145683   2.640   5.397   3.478  0.2755  0.4593  1.8557
  142MOL   H28245684   2.583   5.488   3.686  2.2578  0.5077 -3.0232
  142MOL   H28345685   2.452   5.649   3.758 -0.2701  0.5324  0.5459
  142MOL   H28445686   2.249   5.462   3.862  0.5695 -0.0350 -1.4920
  142MOL   H28545687   2.416   5.451   3.911  0.1142  0.1858  0.2518
  142MOL   H28645688   2.328   5.597   3.956  1.3390 -1.4453  1.2616
  142MOL   H28745689   2.267   5.728   3.606  1.8351 -0.5885 -0.6469
  142MOL   H28845690   2.234   5.758   3.773  1.6951  1.1104 -0.8012
  142MOL   H28945691   2.152   5.625   3.701 -0.4099  1.9298  0.4987
  142MOL   C29045692   2.503   5.281   3.681 -0.3435  0.1468 -0.6311
  142MOL   C29145693   2.631   5.239   3.766 -0.3299 -0.8596  0.1924
  142MOL   O29245694   2.589   5.116   3.821  0.1389  0.3954  0.2670
  142MOL   C29345695   2.658   5.059   3.924 -0.4193 -0.4457  0.1201
  142MOL   C29445696   2.701   4.916   3.899 -0.2575  0.0388 -0.0511
  142MOL   C29545697   2.577   5.073   4.054  0.1373 -0.0245  0.4413
  142MOL   H29645698   2.482   5.205   3.605  2.1782 -3.3654  2.0463
  142MOL   H29745699   2.421   5.278   3.752 -1.0986  1.1518 -1.4285
  142MOL   H29845700   2.658   5.307   3.847  0.4579 -1.8022  0.7328
  142MOL   H29945701   2.752   5.114   3.932 -1.8714  1.6763  3.8377
  142MOL   H30045702   2.752   4.879   3.988  0.0934  0.0105 -0.2645
  142MOL   H30145703   2.616   4.848   3.903 -0.9459  0.8568 -0.6461
  142MOL   H30245704   2.767   4.897   3.814 -0.7046 -2.0014  0.0372
  142MOL   H30345705   2.631   5.035   4.141  0.3781  0.0544  0.3273
  142MOL   H30445706   2.560   5.178   4.077 -0.9263  0.3284 -1.9048
  142MOL   H30545707   2.483   5.018   4.050  0.4226 -0.6077  1.4163
  142MOL   C30645708   2.757   5.220   3.674 -0.4572  0.1724  0.2747
  142MOL   C30745709   2.851   5.340   3.678  0.2604 -0.0305 -0.3217
  142MOL   O30845710   2.937   5.319   3.569 -0.8799 -0.2274  0.2200
  142MOL   C30945711   3.015   5.439   3.542 -0.1256  0.5103 -0.2227
  142MOL   C31045712   3.156   5.393   3.553  1.0206 -0.1613 -0.0001
  142MOL   C31145713   2.977   5.497   3.413 -0.8793 -0.8949 -0.1788
  142MOL   H31245714   2.732   5.207   3.569 -2.1082 -0.5140  0.7270
  142MOL   H31345715   2.810   5.129   3.701 -0.1144  0.6006  1.0650
  142MOL   H31445716   2.800   5.432   3.649  1.2734 -0.0754 -2.2804
  142MOL   H31545717   3.003   5.516   3.618  1.3983  0.8637 -0.3233
  142MOL   H31645718   3.181   5.291   3.524  0.2384  0.1864 -1.9803
  142MOL   H31745719   3.179   5.434   3.651  0.1536  0.4372 -0.0500
  142MOL   H31845720   3.222   5.446   3.484 -1.9083  3.0220 -0.4681
  142MOL   H31945721   2.882   5.549   3.412 -0.9612 -0.9505  2.3770
  142MOL   H32045722   2.986   5.417   3.339  1.8929 -1.8022  1.0881
  142MOL   H32145723   3.040   5.583   3.389 -1.8766  0.3533  1.6284
  142MOL   H32245724   2.907   5.359   3.770 -1.5684  1.5885  0.4877
  143MOL     C145725   7.586   5.381   5.270 -0.1431  0.3693 -0.0406
  143MOL     C245726   7.525   5.507   5.329 -0.8552  0.9298 -0.1550
  143MOL     O345727   7.437   5.579   5.243  0.0779  0.1208 -0.5838
  143MOL     C445728   7.313   5.514   5.208 -0.2810 -0.9237 -0.5563
  143MOL     C545729   7.340   5.484   5.059 -0.5530 -0.4249  0.0328
  143MOL     C645730   7.202   5.613   5.228 -0.0115 -0.1508  0.5135
  143MOL     H745731   7.651   5.332   5.342  1.9723  0.6298 -1.7070
  143MOL     H845732   7.512   5.305   5.246  2.2570 -2.2183  0.5541
  143MOL     H945733   7.613   5.572   5.331  0.5094 -0.8602 -0.9624
  143MOL    H1045734   7.301   5.412   5.245  2.1461 -0.8667  0.5284
  143MOL    H1145735   7.439   5.440   5.054 -0.2762  0.2741 -0.8785
  143MOL    H1245736   7.269   5.415   5.013 -0.9863  2.6109 -4.2409
  143MOL    H1345737   7.341   5.572   4.995 -0.1184 -0.6829 -0.3216
  143MOL    H1445738   7.212   5.700   5.163 -1.5520 -0.3326  0.0062
  143MOL    H1545739   7.104   5.566   5.221 -0.1799  0.2736 -0.1068
  143MOL    H1645740   7.197   5.649   5.330 -1.6911  0.6415  0.1666
  143MOL    H1745741   7.648   5.392   5.181 -0.7800 -1.9068 -0.7944
  143MOL    C1845742   7.466   5.489   5.471 -0.0243 -0.3304  0.2959
  143MOL    C1945743   7.432   5.619   5.551 -0.3253 -0.0318  0.6106
  143MOL    O2045744   7.564   5.666   5.572 -0.8034 -0.0818  0.7161
  143MOL    C2145745   7.589   5.808   5.558  0.2129 -0.3852  0.4245
  143MOL    C2245746   7.627   5.837   5.413 -0.4616 -0.6006 -0.2688
  143MOL    C2345747   7.687   5.852   5.668 -0.1733 -0.1912 -0.4365
  143MOL    H2445748   7.371   5.436   5.471  1.2237 -2.5998  0.0013
  143MOL    H2545749   7.512   5.411   5.532 -0.0623 -0.5780  0.0060
  143MOL    H2645750   7.376   5.685   5.486 -1.3022 -2.0519 -0.6422
  143MOL    H2745751   7.496   5.862   5.574 -0.3403 -1.1238 -0.2235
  143MOL    H2845752   7.548   5.835   5.338  0.4672  1.8097 -1.3980
  143MOL    H2945753   7.679   5.931   5.392 -0.1001 -1.1782 -2.0404
  143MOL    H3045754   7.699   5.765   5.377  1.5851  0.4912  1.5129
  143MOL    H3145755   7.783   5.800   5.659  0.9043  1.6148  0.2264
  143MOL    H3245756   7.661   5.843   5.773 -0.6465  2.8155 -0.2501
  143MOL    H3345757   7.717   5.957   5.658 -1.4785  0.1632 -0.6836
  143MOL    C3445758   7.356   5.597   5.674 -0.7738  0.0820  0.1083
  143MOL    C3545759   7.204   5.617   5.653  0.4739 -0.1182 -0.3969
  143MOL    O3645760   7.138   5.573   5.772 -0.6105  0.3838  0.1283
  143MOL    C3745761   7.103   5.432   5.768  0.6355 -0.2182  0.0214
  143MOL    C3845762   7.118   5.387   5.918 -0.3004  0.2498  0.4994
  143MOL    C3945763   6.968   5.391   5.704  0.1882 -0.1948  0.2894
  143MOL    H4045764   7.385   5.673   5.747 -0.4856  0.6543 -0.5938
  143MOL    H4145765   7.385   5.499   5.711  2.4411  1.3617  1.1255
  143MOL    H4245766   7.163   5.568   5.565 -2.4403  0.2529  0.6949
  143MOL    H4345767   7.177   5.378   5.710  2.6195  2.3256  0.0843
  143MOL    H4445768   7.110   5.278   5.923 -2.8297  0.2588 -1.9251
  143MOL    H4545769   7.044   5.429   5.986  0.7676 -0.6385  2.2653
  143MOL    H4645770   7.220   5.407   5.951 -0.2262  0.7701 -0.0513
  143MOL    H4745771   6.950   5.437   5.606  2.2724  0.2224  0.0803
  143MOL    H4845772   6.960   5.282   5.705  0.0075 -0.1744  1.2203
  143MOL    H4945773   6.894   5.420   5.779  0.1385 -0.8987  0.5146
  143MOL    C5045774   7.168   5.770   5.632  0.0573  0.6222 -0.1222
  143MOL    C5145775   7.014   5.783   5.599  0.0281 -0.5614 -0.2557
  143MOL    O5245776   7.014   5.781   5.463 -0.0972  0.7645  0.2601
  143MOL    C5345777   6.886   5.781   5.394  0.8371  0.2103 -0.3412
  143MOL    C5445778   6.818   5.642   5.405  0.4291  0.3886  0.4769
  143MOL    C5545779   6.914   5.831   5.249  0.4120 -0.1174 -0.1526
  143MOL    H5645780   7.181   5.820   5.728 -0.6370  2.5660 -1.0174
  143MOL    H5745781   7.230   5.822   5.560 -0.0315  0.7522 -0.1078
  143MOL    H5845782   6.961   5.701   5.648 -1.0242 -0.6862 -1.5924
  143MOL    H5945783   6.817   5.849   5.444  0.7765  0.6802 -1.0679
  143MOL    H6045784   6.816   5.609   5.509  0.0306 -1.9352 -0.2474
  143MOL    H6145785   6.867   5.565   5.345 -1.9119  0.3820 -1.4846
  143MOL    H6245786   6.714   5.654   5.377  0.5817  1.7019  0.4479
  143MOL    H6345787   6.834   5.893   5.208  0.8195  1.0996  0.8436
  143MOL    H6445788   6.930   5.744   5.185 -1.9231  0.4552 -1.5743
  143MOL    H6545789   7.009   5.884   5.254  1.5283 -2.1985  1.2087
  143MOL    C6645790   6.959   5.904   5.652  0.1658 -0.6729  0.9222
  143MOL    C6745791   6.997   6.042   5.585  0.0300 -0.0442 -0.2337
  143MOL    O6845792   7.138   6.067   5.610 -0.2325 -0.0264  0.6541
  143MOL    C6945793   7.211   6.144   5.518 -0.2712 -0.7962  0.7603
  143MOL    C7045794   7.323   6.211   5.584 -0.1714 -0.1078  0.1219
  143MOL    C7145795   7.258   6.063   5.394 -0.6794  0.2124 -0.1640
  143MOL    H7245796   6.851   5.889   5.651 -0.0815  1.0101 -1.3174
  143MOL    H7345797   6.976   5.915   5.759  1.9698  0.8035  0.5133
  143MOL    H7445798   6.987   6.037   5.477 -0.5215 -0.2359 -0.1727
  143MOL    H7545799   7.151   6.228   5.482  0.9184  0.3306  1.3917
  143MOL    H7645800   7.368   6.279   5.511 -0.5742  0.5026  0.4349
  143MOL    H7745801   7.285   6.271   5.666 -2.0305 -0.2665 -0.6080
  143MOL    H7845802   7.385   6.127   5.617  0.3160 -1.0589 -3.0175
  143MOL    H7945803   7.168   6.041   5.336 -1.6825 -0.8306  1.7543
  143MOL    H8045804   7.292   5.965   5.427  0.4633  0.9157  0.7762
  143MOL    H8145805   7.327   6.121   5.332  1.3805 -0.5743  1.3783
  143MOL    C8245806   6.919   6.166   5.642 -0.2884  0.2680  0.7565
  143MOL    C8345807   6.770   6.182   5.605  0.4166 -0.1125  0.1233
  143MOL    O8445808   6.708   6.295   5.672 -0.0244  1.0680  0.7267
  143MOL    C8545809   6.682   6.291   5.813  0.8623  0.3570 -0.6601
  143MOL    C8645810   6.578   6.179   5.856  0.3769  0.0003  0.1105
  143MOL    C8745811   6.642   6.434   5.843 -0.5546 -0.3170 -0.2507
  143MOL    H8845812   6.920   6.166   5.751  0.1585 -2.4161  0.7627
  143MOL    H8945813   6.969   6.261   5.623  0.1849 -0.2275 -0.5376
  143MOL    H9045814   6.715   6.090   5.626  0.5435 -0.4472 -0.9906
  143MOL    H9145815   6.779   6.279   5.863 -0.2993 -0.4280  1.4477
  143MOL    H9245816   6.593   6.085   5.803  1.7286  0.2430  0.0418
  143MOL    H9345817   6.586   6.164   5.963 -1.2303 -0.3324  0.1928
  143MOL    H9445818   6.480   6.225   5.842 -0.1381 -1.1506 -0.0732
  143MOL    H9545819   6.700   6.504   5.782  0.4421 -0.2613  0.7628
  143MOL    H9645820   6.545   6.459   5.800 -0.0175 -1.5025 -2.2128
  143MOL    H9745821   6.646   6.474   5.944  1.0007  0.0417 -0.4459
  143MOL    C9845822   6.759   6.205   5.449  0.1462 -0.1489  0.3735
  143MOL    C9945823   6.618   6.180   5.399 -0.7440 -0.3599  1.5625
  143MOL   O10045824   6.595   6.047   5.440  0.5464 -0.0475  0.1813
  143MOL   C10145825   6.458   6.009   5.444  0.0323  0.1974  0.4693
  143MOL   C10245826   6.418   5.987   5.590  0.1586 -0.1165  0.1664
  143MOL   C10345827   6.445   5.877   5.362  0.4211  0.1685  0.0557
  143MOL   H10445828   6.792   6.308   5.432 -0.8809  0.2161  0.5542
  143MOL   H10545829   6.824   6.131   5.402  1.4936  0.3576  1.4139
  143MOL   H10645830   6.553   6.258   5.441  0.6030  1.2875  0.6261
  143MOL   H10745831   6.391   6.087   5.408  0.7873  0.3852 -0.5543
  143MOL   H10845832   6.417   6.083   5.641 -1.8451  0.3067 -0.6056
  143MOL   H10945833   6.484   5.911   5.633  1.6454  0.9539 -0.1744
  143MOL   H11045834   6.321   5.943   5.612 -0.5846  1.7638  0.7046
  143MOL   H11145835   6.466   5.899   5.258 -1.9530  0.2816 -0.4450
  143MOL   H11245836   6.347   5.831   5.374  0.4972 -0.3040 -1.1097
  143MOL   H11345837   6.518   5.804   5.396  0.2987 -0.6052 -1.3214
  143MOL   C11445838   6.613   6.179   5.248 -0.0436  0.7863  0.2010
  143MOL   C11545839   6.568   6.315   5.188  0.3220  0.8185 -0.4169
  143MOL   O11645840   6.657   6.415   5.244 -0.7278  0.4428  0.0927
  143MOL   C11745841   6.608   6.551   5.237  0.0867  0.5600 -0.2454
  143MOL   C11845842   6.733   6.622   5.178  0.5677 -0.4045 -0.5090
  143MOL   C11945843   6.560   6.597   5.370  0.0834  0.5375 -0.6386
  143MOL   H12045844   6.541   6.109   5.205  0.0746  0.6331  0.2486
  143MOL   H12145845   6.711   6.147   5.212 -0.7454  0.8195 -1.8298
  143MOL   H12245846   6.471   6.346   5.226 -0.6369 -2.0033 -0.4307
  143MOL   H12345847   6.528   6.576   5.167 -0.8065  2.9929  1.5714
  143MOL   H12445848   6.725   6.731   5.176  1.4615 -0.3446 -1.2777
  143MOL   H12545849   6.756   6.593   5.075  0.3084 -0.1021 -0.6555
  143MOL   H12645850   6.830   6.619   5.228  1.4565  1.8670 -1.9686
  143MOL   H12745851   6.627   6.595   5.456 -1.8848  0.2950  0.9543
  143MOL   H12845852   6.477   6.534   5.406  0.6526  0.7451  1.0900
  143MOL   H12945853   6.525   6.700   5.372 -2.0261 -0.1526  0.2570
  143MOL   C13045854   6.583   6.312   5.035 -0.0836  0.2176  1.2902
  143MOL   C13145855   6.448   6.281   4.963  0.6516 -0.7214 -0.2948
  143MOL   O13245856   6.487   6.220   4.839 -0.3338  0.3468 -0.0203
  143MOL   C13345857   6.482   6.077   4.855  0.4172 -0.2574  0.6000
  143MOL   C13445858   6.344   6.019   4.864 -0.3853 -0.0722  0.2535
  143MOL   C13545859   6.551   6.021   4.733 -0.0409  0.2180 -0.1011
  143MOL   H13645860   6.656   6.235   5.011  0.5282  0.7950  1.2878
  143MOL   H13745861   6.630   6.406   5.003  0.9096 -0.6872  0.0204
  143MOL   H13845862   6.383   6.220   5.025  0.6604 -1.1471 -0.6998
  143MOL   H13945863   6.531   6.049   4.948  0.4951  0.8054  0.8898
  143MOL   H14045864   6.279   6.050   4.947 -0.5697 -0.5808  0.2977
  143MOL   H14145865   6.346   5.911   4.857 -1.8086 -0.1673  1.1330
  143MOL   H14245866   6.294   6.063   4.778  0.3418 -1.3495 -0.8295
  143MOL   H14345867   6.558   5.913   4.742 -1.4098  0.2456  1.4480
  143MOL   H14445868   6.492   6.044   4.644 -1.4219  1.0115  0.9931
  143MOL   H14545869   6.648   6.070   4.724  0.6569 -0.7746  1.6877
  143MOL   C14645870   6.380   6.412   4.911 -0.2036  0.0431  0.0524
  143MOL   C14745871   6.235   6.395   4.865 -0.5851 -0.7378 -0.1407
  143MOL   O14845872   6.158   6.385   4.986 -0.3344 -1.0734  0.2247
  143MOL   C14945873   6.063   6.282   4.985  0.0827  0.0931  0.2575
  143MOL   C15045874   5.915   6.326   4.966  0.2813 -0.2729 -0.4868
  143MOL   C15145875   6.078   6.188   5.106  0.4396  0.3258  0.0773
  143MOL   H15245876   6.437   6.449   4.826 -1.4756  2.6401  0.3067
  143MOL   H15345877   6.380   6.490   4.987 -0.8695 -1.6706  1.8639
  143MOL   H15445878   6.241   6.303   4.806 -0.1878 -0.7937 -0.0145
  143MOL   H15545879   6.079   6.222   4.895 -0.5639 -0.6020  0.6054
  143MOL   H15645880   5.849   6.239   4.961  0.8400 -0.9150  2.5606
  143MOL   H15745881   5.905   6.368   4.866 -0.0767  0.7841 -0.0192
  143MOL   H15845882   5.875   6.399   5.037 -0.9169  0.5763 -1.9973
  143MOL   H15945883   6.173   6.136   5.110  0.0994 -0.2051  1.6346
  143MOL   H16045884   6.000   6.113   5.099  1.1454 -0.2582 -1.8237
  143MOL   H16145885   6.052   6.252   5.191  1.9717 -1.1486  1.6985
  143MOL   C16245886   6.190   6.508   4.780  0.2079  0.0013 -0.2420
  143MOL   C16345887   6.249   6.526   4.636 -0.6395  0.5668 -0.2967
  143MOL   O16445888   6.220   6.424   4.544 -0.4622 -0.1980 -0.5157
  143MOL   C16545889   6.326   6.332   4.528 -0.3819  0.2620 -0.1229
  143MOL   C16645890   6.411   6.377   4.405  0.1923  0.3495  0.4483
  143MOL   C16745891   6.262   6.198   4.508  0.4277 -0.3173  0.0312
  143MOL   H16845892   6.084   6.490   4.760  0.4071 -0.9915 -0.4307
  143MOL   H16945893   6.197   6.603   4.833 -0.3542  0.1701 -0.4590
  143MOL   H17045894   6.356   6.543   4.638 -0.5867  0.1554  0.8041
  143MOL   H17145895   6.386   6.321   4.618 -0.6524 -1.8590 -0.1962
  143MOL   H17245896   6.484   6.302   4.376  3.8106  2.7902  2.8854
  143MOL   H17345897   6.468   6.466   4.432 -0.2260  0.9600 -0.6341
  143MOL   H17445898   6.343   6.406   4.325 -0.7792  2.1232  1.8575
  143MOL   H17545899   6.188   6.186   4.587  0.3448  0.1230  0.0237
  143MOL   H17645900   6.338   6.120   4.517 -0.5100 -1.1370  0.9425
  143MOL   H17745901   6.219   6.194   4.408 -0.9009 -2.9096  0.6722
  143MOL   C17845902   6.172   6.643   4.577  0.1325 -0.7542  0.2054
  143MOL   C17945903   6.239   6.709   4.457 -0.3931  0.4389 -0.3292
  143MOL   O18045904   6.144   6.786   4.391 -0.4546 -0.3832 -0.3209
  143MOL   C18145905   6.065   6.723   4.288 -0.2748  0.1341 -0.9121
  143MOL   C18245906   6.083   6.806   4.165  0.0822  0.8474 -0.0281
  143MOL   C18345907   5.915   6.705   4.327 -0.1640 -0.1249 -0.3019
  143MOL   H18445908   6.156   6.730   4.640 -0.9501 -0.6437 -0.2239
  143MOL   H18545909   6.075   6.602   4.549 -1.7793  2.4029  1.9365
  143MOL   H18645910   6.293   6.638   4.394 -0.8219 -0.2503  0.0719
  143MOL   H18745911   6.106   6.624   4.268 -1.7093 -0.8151  0.6810
  143MOL   H18845912   6.048   6.746   4.081  0.4035  1.6314 -0.7272
  143MOL   H18945913   6.184   6.838   4.138 -0.1843  2.7318  1.1372
  143MOL   H19045914   6.025   6.898   4.174 -1.8911 -0.5265  1.7786
  143MOL   H19145915   5.881   6.798   4.373 -1.7861  0.6794 -3.0628
  143MOL   H19245916   5.904   6.627   4.403  0.6083  0.3044  0.2631
  143MOL   H19345917   5.848   6.688   4.243  0.8125 -1.2501 -0.8694
  143MOL   C19445918   6.344   6.808   4.508 -0.0904 -0.1075  1.0762
  143MOL   C19545919   6.417   6.872   4.393  0.0332 -0.8499 -0.3167
  143MOL   O19645920   6.508   6.781   4.347  0.3440 -0.0819  0.1175
  143MOL   C19745921   6.493   6.746   4.206  0.5256 -0.4692  0.7646
  143MOL   C19845922   6.540   6.863   4.117  0.7194 -0.0219 -0.1413
  143MOL   C19945923   6.569   6.620   4.182  0.1218  0.1366 -0.6478
  143MOL   H20045924   6.285   6.885   4.557 -1.2245 -1.1524  1.3800
  143MOL   H20145925   6.408   6.771   4.587 -2.3535 -1.8485  2.1515
  143MOL   H20245926   6.345   6.908   4.319 -0.2407  3.5578  1.8888
  143MOL   H20345927   6.388   6.733   4.179  0.3990  3.5031 -1.1039
  143MOL   H20445928   6.629   6.903   4.166  0.3327  0.9624 -0.2233
  143MOL   H20545929   6.575   6.817   4.025  1.7322 -2.3080  1.3481
  143MOL   H20645930   6.466   6.941   4.102 -0.0084 -0.7823 -0.5475
  143MOL   H20745931   6.547   6.583   4.082 -1.8633 -1.8863  0.5002
  143MOL   H20845932   6.678   6.625   4.186  0.1150 -0.1335 -0.0383
  143MOL   H20945933   6.540   6.545   4.255  0.8844  1.6750  1.2499
  143MOL   C21045934   6.488   6.998   4.435 -0.1179  0.2411 -0.1957
  143MOL   C21145935   6.415   7.131   4.443 -0.8634  0.1619  0.3349
  143MOL   O21245936   6.348   7.138   4.573  0.1630 -0.2138 -0.2165
  143MOL   C21345937   6.230   7.214   4.559 -0.0589 -0.0728  0.5103
  143MOL   C21445938   6.112   7.116   4.561 -0.6588 -0.4483  0.2639
  143MOL   C21545939   6.223   7.317   4.671 -0.5785  0.2224  0.5518
  143MOL   H21645940   6.556   7.013   4.352  0.0113 -3.1922 -0.7906
  143MOL   H21745941   6.561   6.988   4.516 -0.2509  2.2413  0.2090
  143MOL   H21845942   6.342   7.141   4.363 -0.7637 -0.0737  0.2157
  143MOL   H21945943   6.221   7.271   4.467 -2.2761 -1.3114 -0.0899
  143MOL   H22045944   6.101   7.063   4.656 -1.2668 -0.0645  0.4122
  143MOL   H22145945   6.124   7.051   4.475  0.0145 -0.9254  0.7137
  143MOL   H22245946   6.016   7.164   4.542 -0.9482 -1.2165 -0.2352
  143MOL   H22345947   6.223   7.282   4.775 -1.1099  0.8432  0.7641
  143MOL   H22445948   6.131   7.374   4.663  0.7708  2.4926  0.5365
  143MOL   H22545949   6.299   7.395   4.661  1.8241 -1.5605  3.8526
  143MOL   C22645950   6.514   7.256   4.453  0.1993  0.0211  0.1824
  143MOL   C22745951   6.592   7.292   4.320 -0.3718 -0.3299  0.1368
  143MOL   O22845952   6.668   7.417   4.340 -0.0128 -0.5430 -0.5071
  143MOL   C22945953   6.798   7.402   4.383  0.0038 -0.5984 -0.9505
  143MOL   C23045954   6.800   7.459   4.529  0.5443  0.2568  0.5736
  143MOL   C23145955   6.889   7.460   4.273  0.1385 -0.1915  1.1588
  143MOL   H23245956   6.581   7.223   4.532  0.6277  1.1027  0.2884
  143MOL   H23345957   6.471   7.345   4.499  3.3883  1.1343  1.1732
  143MOL   H23445958   6.660   7.208   4.306 -0.1347 -0.2223  0.6209
  143MOL   H23545959   6.829   7.299   4.398 -2.3467 -1.2704 -0.5459
  143MOL   H23645960   6.893   7.422   4.572  0.9787  0.6618  0.0007
  143MOL   H23745961   6.812   7.567   4.527 -0.4187  0.3532 -0.4974
  143MOL   H23845962   6.711   7.423   4.580 -0.0391  0.3762 -0.3306
  143MOL   H23945963   6.836   7.532   4.210 -1.4444 -0.5749  2.0167
  143MOL   H24045964   6.899   7.372   4.209  2.6676  1.1872 -0.4145
  143MOL   H24145965   6.993   7.483   4.293  0.0805 -0.3282  1.6261
  143MOL   C24245966   6.488   7.318   4.209 -0.5893  1.1967  0.1576
  143MOL   C24345967   6.542   7.378   4.078  0.0305 -0.1555 -0.1885
  143MOL   O24445968   6.439   7.424   3.993  0.0658  0.5528  0.1053
  143MOL   C24545969   6.431   7.564   3.975 -0.3772  0.3110  0.4756
  143MOL   C24645970   6.364   7.599   3.848 -0.3836 -0.2253  0.5302
  143MOL   C24745971   6.348   7.622   4.102 -0.4031 -0.8775 -0.1389
  143MOL   H24845972   6.435   7.229   4.174  0.5966  0.9146 -0.9499
  143MOL   H24945973   6.412   7.387   4.245  0.2858  1.3777  1.6636
  143MOL   H25045974   6.606   7.462   4.107 -1.3748  0.6569  0.5808
  143MOL   H25145975   6.526   7.616   3.963 -1.2755  1.8354 -0.2438
  143MOL   H25245976   6.405   7.548   3.760 -2.1145 -2.1131  0.7835
  143MOL   H25345977   6.259   7.569   3.860 -0.9114  0.6848 -1.5259
  143MOL   H25445978   6.374   7.705   3.824 -1.1976 -0.1702  0.3906
  143MOL   H25545979   6.242   7.614   4.080 -0.7954  4.4643 -0.9130
  143MOL   H25645980   6.393   7.597   4.198 -0.5984 -2.4554 -0.4449
  143MOL   H25745981   6.372   7.728   4.112 -1.7105 -0.6179  0.2624
  143MOL   C25845982   6.637   7.284   4.002  0.3260 -0.8886  0.0052
  143MOL   C25945983   6.689   7.353   3.872  0.0885  0.0844 -0.5527
  143MOL   O26045984   6.720   7.259   3.769 -0.0758 -0.5442 -0.2312
  143MOL   C26145985   6.611   7.211   3.690 -0.9631 -0.3483  0.0401
  143MOL   C26245986   6.598   7.303   3.561 -0.4068 -0.2600 -0.0843
  143MOL   C26345987   6.632   7.070   3.634 -0.7825 -0.0489 -1.2663
  143MOL   H26445988   6.719   7.236   4.056 -0.4401  0.0724  2.0544
  143MOL   H26545989   6.577   7.201   3.966 -2.1408 -0.0254  2.0489
  143MOL   H26645990   6.619   7.430   3.841 -0.8867 -0.2240  0.7721
  143MOL   H26745991   6.520   7.218   3.749 -2.0288  1.8697 -1.7617
  143MOL   H26845992   6.545   7.390   3.599 -1.0530 -0.2614 -0.9803
  143MOL   H26945993   6.533   7.254   3.488 -1.6495 -0.3923  1.0907
  143MOL   H27045994   6.695   7.334   3.522 -0.7374  0.3593 -0.4097
  143MOL   H27145995   6.553   7.031   3.571  0.0927  0.0396 -2.4423
  143MOL   H27245996   6.726   7.064   3.578 -0.5035  0.6823 -0.8863
  143MOL   H27345997   6.658   6.996   3.709 -0.2711  2.1668  0.8385
  143MOL   C27445998   6.823   7.431   3.909  0.2283  0.0367  0.6366
  143MOL   C27545999   6.886   7.508   3.786 -0.3479 -0.3610 -0.6960
  143MOL   O27646000   6.878   7.647   3.807 -0.1321 -0.0089 -0.0452
  143MOL   C27746001   6.769   7.717   3.752 -0.4078  0.3070 -0.3442
  143MOL   C27846002   6.789   7.744   3.599 -0.1102  0.6554 -0.4868
  143MOL   C27946003   6.728   0.016   3.835  0.3261  0.3540 -0.2007
  143MOL   H28046004   6.818   7.501   3.992  2.0829 -0.6937  1.4195
  143MOL   H28146005   6.884   7.354   3.957 -1.4115 -1.8555 -0.2325
  143MOL   H28246006   6.836   7.484   3.693  1.1946 -0.9219 -1.3964
  143MOL   H28346007   6.686   7.646   3.754  0.3016 -0.5544 -0.8153
  143MOL   H28446008   6.792   7.650   3.543 -0.5746 -0.5047  1.3952
  143MOL   H28546009   6.714   7.804   3.547 -1.2279  1.3561  1.8642
  143MOL   H28646010   6.885   7.793   3.588  0.0908  0.2868 -0.3919
  143MOL   H28746011   6.687   7.816   3.934 -0.5703  0.6019 -0.5141
  143MOL   H28846012   6.651   0.059   3.772 -0.2781 -2.5383 -1.5572
  143MOL   H28946013   6.809   0.086   3.856 -1.6793  3.0954 -1.4271
  143MOL   C29046014   7.034   7.489   3.771 -0.1181  0.2378  1.1894
  143MOL   C29146015   7.067   7.339   3.732 -0.3596  0.5471  0.4375
  143MOL   O29246016   7.104   7.334   3.594  0.3391  0.1549 -0.7556
  143MOL   C29346017   7.005   7.333   3.494  0.4023 -0.0034 -0.5212
  143MOL   C29446018   7.003   7.203   3.417  0.7389  0.0497  0.0422
  143MOL   C29546019   7.014   7.453   3.410 -0.1176  0.6079 -0.6254
  143MOL   H29646020   7.093   7.516   3.859 -1.7789  2.6784  1.6045
  143MOL   H29746021   7.079   7.558   3.700 -1.6955  0.9729  0.8883
  143MOL   H29846022   6.985   7.273   3.761 -1.2588  0.6938 -1.6792
  143MOL   H29946023   6.903   7.340   3.534  1.9268 -0.7451  3.7633
  143MOL   H30046024   6.917   7.191   3.350 -0.4666 -0.3161  1.6281
  143MOL   H30146025   7.096   7.179   3.366 -0.6482  0.0341 -2.5779
  143MOL   H30246026   6.989   7.118   3.484 -0.6413 -0.9916 -1.5060
  143MOL   H30346027   6.946   7.440   3.326 -0.5106 -2.6588  0.1531
  143MOL   H30446028   6.996   7.533   3.482  0.3878 -1.1707  1.5491
  143MOL   H30546029   7.116   7.478   3.381 -0.0913  2.2401  0.7615
  143MOL   C30646030   7.187   7.280   3.813  0.1618 -0.1109  0.5435
  143MOL   C30746031   7.205   7.136   3.777 -0.0788 -0.2566  1.0375
  143MOL   O30846032   7.111   7.055   3.850  0.0646 -0.4910 -0.3445
  143MOL   C30946033   7.122   6.920   3.811 -0.3595 -0.4077 -0.3524
  143MOL   C31046034   7.232   6.852   3.882 -0.1777  0.4298  0.3914
  143MOL   C31146035   6.995   6.839   3.852  0.2874  0.4922  0.2183
  143MOL   H31246036   7.160   7.288   3.918  3.3146 -1.1196  1.4770
  143MOL   H31346037   7.279   7.335   3.795  0.5851 -0.4874  1.5122
  143MOL   H31446038   7.191   7.124   3.670  1.9118  1.7745  0.5145
  143MOL   H31546039   7.127   6.904   3.703  0.3125 -1.6655 -0.1426
  143MOL   H31646040   7.330   6.871   3.837 -1.0335  0.2510 -1.5743
  143MOL   H31746041   7.226   6.745   3.865 -1.8587  0.3437  1.4438
  143MOL   H31846042   7.229   6.866   3.990  0.0324  2.4187  0.1632
  143MOL   H31946043   6.976   6.835   3.959  1.8761  0.2659  0.4965
  143MOL   H32046044   6.989   6.739   3.809  0.8698  0.4750  0.1795
  143MOL   H32146045   6.911   6.888   3.803  1.9113  1.8292 -1.2852
  143MOL   H32246046   7.309   7.110   3.794  0.3929  0.5630 -0.5050
  144MOL     C146047   2.834   3.138   6.816  0.0144 -0.2936 -0.0377
  144MOL     C246048   2.952   3.246   6.814 -0.7742  0.2325 -0.2373
  144MOL     O346049   2.925   3.321   6.930  0.3807  0.7101 -0.0164
  144MOL     C446050   2.809   3.408   6.927  0.1888  0.1927  0.1572
  144MOL     C546051   2.877   3.546   6.907  0.0342 -0.2460 -0.2685
  144MOL     C646052   2.744   3.404   7.066 -0.3794 -0.8232 -0.4462
  144MOL     H746053   2.735   3.181   6.833 -0.5594 -1.0436 -1.3819
  144MOL     H846054   2.836   3.090   6.719 -1.2820 -0.0913 -0.1713
  144MOL     H946055   2.931   3.314   6.732 -1.0944 -0.8910 -1.0962
  144MOL    H1046056   2.740   3.382   6.847  0.1483  1.4344 -0.2249
  144MOL    H1146057   2.806   3.625   6.882  1.0554  0.8510  0.2128
  144MOL    H1246058   2.932   3.582   6.994 -0.3416  2.4178 -1.0571
  144MOL    H1346059   2.954   3.544   6.830  1.2380 -0.2828  0.9140
  144MOL    H1446060   2.654   3.465   7.067  0.9297  1.1791  2.5156
  144MOL    H1546061   2.706   3.306   7.094 -0.4493 -1.0715 -1.3942
  144MOL    H1646062   2.815   3.435   7.143 -0.5255  0.6308 -0.8885
  144MOL    H1746063   2.849   3.072   6.902  0.0259  1.8592  1.6524
  144MOL    C1846064   3.094   3.195   6.810  0.0270  0.1326 -0.0896
  144MOL    C1946065   3.211   3.301   6.797 -0.5809 -0.2540 -0.3552
  144MOL    O2046066   3.330   3.229   6.759  0.0914 -0.4265  0.4086
  144MOL    C2146067   3.336   3.201   6.621 -0.0058 -0.2467  0.4917
  144MOL    C2246068   3.362   3.052   6.625  0.0574  0.0238  0.0567
  144MOL    C2346069   3.438   3.283   6.543  0.1281 -0.0851  0.4849
  144MOL    H2446070   3.122   3.135   6.897  0.5641 -1.5700 -1.4128
  144MOL    H2546071   3.105   3.128   6.725 -0.3593  1.2067 -0.9864
  144MOL    H2646072   3.183   3.374   6.720  2.6171 -0.8587 -2.1551
  144MOL    H2746073   3.241   3.203   6.568 -0.0199 -0.2231  0.5175
  144MOL    H2846074   3.376   3.011   6.525  1.0044  1.2645 -0.3384
  144MOL    H2946075   3.446   3.026   6.688  1.2837 -0.1715 -1.6104
  144MOL    H3046076   3.276   3.001   6.668 -0.4933 -0.0671 -1.1109
  144MOL    H3146077   3.411   3.388   6.543 -1.5568 -0.5057 -1.2349
  144MOL    H3246078   3.456   3.256   6.439  0.1865  1.4067  0.1063
  144MOL    H3346079   3.532   3.273   6.598 -0.3794  0.5201  1.4732
  144MOL    C3446080   3.238   3.380   6.924  0.3179 -0.3334 -0.2101
  144MOL    C3546081   3.325   3.507   6.895  0.0225 -0.3413 -0.7625
  144MOL    O3646082   3.246   3.605   6.821 -0.2631 -0.5594  0.0038
  144MOL    C3746083   3.295   3.640   6.689  0.4518  0.0695  0.9533
  144MOL    C3846084   3.180   3.651   6.594 -0.0092  0.1725  0.6297
  144MOL    C3946085   3.365   3.776   6.708  0.5342 -0.2181  0.7477
  144MOL    H4046086   3.288   3.325   7.004  0.5640  1.4800  0.9307
  144MOL    H4146087   3.147   3.430   6.957  1.4465  0.1516  2.2993
  144MOL    H4246088   3.405   3.465   6.834  0.9153  1.7754 -1.1078
  144MOL    H4346089   3.366   3.570   6.645  0.1892  0.1808  0.3360
  144MOL    H4446090   3.221   3.677   6.497 -0.9360  2.5459  0.8603
  144MOL    H4546091   3.108   3.730   6.612 -1.3162 -0.7158 -0.6078
  144MOL    H4646092   3.126   3.556   6.600  0.3603 -0.0604  0.3290
  144MOL    H4746093   3.423   3.811   6.623 -0.9700 -0.0784 -0.2486
  144MOL    H4846094   3.290   3.852   6.730 -0.0882 -0.4134 -0.6236
  144MOL    H4946095   3.435   3.776   6.791  2.9662  2.6644 -1.2283
  144MOL    C5046096   3.391   3.573   7.014  0.8419 -0.1105  0.0224
  144MOL    C5146097   3.499   3.489   7.081  0.5690  0.1589  0.7272
  144MOL    O5246098   3.520   3.535   7.214 -0.2934  1.3438 -0.3577
  144MOL    C5346099   3.443   3.464   7.310  0.8581  0.5195 -0.4349
  144MOL    C5446100   3.457   3.546   7.437 -0.0009  0.0905  0.8434
  144MOL    C5546101   3.472   3.317   7.332  0.1125  0.2744 -0.7702
  144MOL    H5646102   3.427   3.672   6.990 -2.6075  1.0522 -0.7061
  144MOL    H5746103   3.319   3.602   7.090  2.7784  1.0195  1.4339
  144MOL    H5846104   3.466   3.385   7.071  0.1471  0.3590 -0.0188
  144MOL    H5946105   3.338   3.470   7.279  1.3412 -1.8843 -2.7505
  144MOL    H6046106   3.421   3.490   7.523  0.0136  1.6860  1.9086
  144MOL    H6146107   3.391   3.633   7.441  1.6409  1.3522  1.3625
  144MOL    H6246108   3.551   3.591   7.468 -0.2418  0.2904  1.3023
  144MOL    H6346109   3.388   3.269   7.383  1.4494 -0.0233  1.1986
  144MOL    H6446110   3.554   3.296   7.401 -1.1970 -2.3921  0.0726
  144MOL    H6546111   3.481   3.257   7.242 -1.1160 -3.0527  1.2189
  144MOL    C6646112   3.631   3.507   7.006  0.6766  0.5287  0.5821
  144MOL    C6746113   3.713   3.373   7.019 -1.2835  0.9964  0.5646
  144MOL    O6846114   3.851   3.415   7.013  0.0383  0.2535  0.0270
  144MOL    C6946115   3.911   3.445   7.140  0.3434 -0.2827  0.3033
  144MOL    C7046116   3.970   3.317   7.212 -0.0588  0.6384 -0.5601
  144MOL    C7146117   4.017   3.557   7.114  0.5207  0.6306  0.3278
  144MOL    H7246118   3.619   3.541   6.903  2.2443  1.5590  0.7234
  144MOL    H7346119   3.693   3.588   7.045 -1.5485  1.6079  1.9341
  144MOL    H7446120   3.701   3.328   7.117 -0.1072 -1.6142 -0.4560
  144MOL    H7546121   3.840   3.490   7.210  0.2419 -0.9229  0.6158
  144MOL    H7646122   4.020   3.325   7.309  2.0608  3.8407 -1.8567
  144MOL    H7746123   3.884   3.254   7.238 -1.4681  2.5673 -0.4781
  144MOL    H7846124   4.047   3.265   7.154 -0.9890 -0.6078 -0.7154
  144MOL    H7946125   4.016   3.634   7.192  2.2104  1.3150 -0.3029
  144MOL    H8046126   3.981   3.602   7.021  0.4114  0.0129  0.0717
  144MOL    H8146127   4.117   3.521   7.091  1.5754  3.2869  0.5692
  144MOL    C8246128   3.697   3.274   6.908 -0.6593 -0.0373 -0.0325
  144MOL    C8346129   3.727   3.130   6.946  0.3007 -0.4540  0.0896
  144MOL    O8446130   3.621   3.098   7.033 -0.3362  0.3054 -0.4042
  144MOL    C8546131   3.634   2.986   7.117 -0.4401  0.0020 -0.1498
  144MOL    C8646132   3.493   2.934   7.112 -0.4417  0.1143  0.3844
  144MOL    C8746133   3.698   3.030   7.251 -0.4099 -0.3914 -0.9086
  144MOL    H8846134   3.600   3.277   6.858 -0.5389 -1.7852 -0.3966
  144MOL    H8946135   3.768   3.307   6.831 -1.2843 -0.8631 -0.9772
  144MOL    H9046136   3.820   3.139   7.004 -0.0538  0.3653  0.5471
  144MOL    H9146137   3.701   2.910   7.076 -0.5359 -0.6254  0.8293
  144MOL    H9246138   3.417   2.992   7.165 -0.3362  0.1364  0.5110
  144MOL    H9346139   3.463   2.910   7.010  0.1571 -0.7491  0.3983
  144MOL    H9446140   3.491   2.834   7.157 -1.0878  0.6434  1.5440
  144MOL    H9546141   3.806   3.015   7.251 -0.6536 -2.4868  1.1220
  144MOL    H9646142   3.667   3.131   7.278 -0.0309 -1.0814  2.3704
  144MOL    H9746143   3.659   2.955   7.319 -0.3823 -1.7533 -2.3703
  144MOL    C9846144   3.747   3.038   6.826 -0.0814  0.1074  0.0761
  144MOL    C9946145   3.892   3.030   6.764 -0.4599  0.4555  0.5532
  144MOL   O10046146   3.882   2.948   6.648 -0.0175  0.1172 -0.3303
  144MOL   C10146147   3.811   2.989   6.532 -0.2660 -0.5525 -0.4210
  144MOL   C10246148   3.704   2.895   6.488  0.7195  0.0655  0.3481
  144MOL   C10346149   3.925   3.018   6.428  0.1250  0.2001 -0.5959
  144MOL   H10446150   3.701   2.946   6.862 -2.2264  0.8644 -0.6299
  144MOL   H10546151   3.670   3.078   6.759  0.0211  1.7171  0.9047
  144MOL   H10646152   3.928   3.131   6.743 -1.0985  0.6629  0.4472
  144MOL   H10746153   3.755   3.081   6.544 -0.7631 -0.7530 -1.1645
  144MOL   H10846154   3.634   2.918   6.568  0.9848  1.0629  0.3051
  144MOL   H10946155   3.728   2.789   6.477  0.9619  0.2031 -0.4586
  144MOL   H11046156   3.660   2.932   6.396 -2.0371 -2.9793  0.3706
  144MOL   H11146157   3.987   2.930   6.414 -0.5079 -0.5955  1.3532
  144MOL   H11246158   3.984   3.097   6.474  0.2872  0.3491 -1.0536
  144MOL   H11346159   3.878   3.068   6.344  1.0196  1.6175 -0.2687
  144MOL   C11446160   3.980   2.958   6.864  0.1201  0.1167 -0.0319
  144MOL   C11546161   4.131   2.927   6.828 -0.1425 -0.2155 -0.2170
  144MOL   O11646162   4.211   3.038   6.864 -0.0289  0.0448  0.1178
  144MOL   C11746163   4.204   3.153   6.789  0.1118 -0.4404 -0.8495
  144MOL   C11846164   4.347   3.186   6.745  0.5078 -0.4218 -1.2387
  144MOL   C11946165   4.151   3.274   6.870 -0.0467  0.0842 -0.4589
  144MOL   H12046166   3.922   2.868   6.883 -0.7249  0.9790  1.5244
  144MOL   H12146167   3.981   3.012   6.959 -1.0254  0.4705 -0.2209
  144MOL   H12246168   4.139   2.908   6.721  2.1337  2.7939 -0.6529
  144MOL   H12346169   4.145   3.137   6.699 -1.2882 -3.5831  0.5469
  144MOL   H12446170   4.355   3.286   6.702 -0.7417  1.0247  1.7668
  144MOL   H12546171   4.402   3.114   6.683 -1.6410 -2.8104 -0.4355
  144MOL   H12646172   4.415   3.178   6.830 -1.7764 -0.5294  0.6282
  144MOL   H12746173   4.209   3.300   6.959  1.3916 -0.4160 -1.2286
  144MOL   H12846174   4.059   3.239   6.916  0.3641  0.6587  0.8379
  144MOL   H12946175   4.137   3.359   6.804 -0.0368 -1.6237 -2.6974
  144MOL   C13046176   4.178   2.795   6.897  0.7182  0.0177 -0.2050
  144MOL   C13146177   4.325   2.756   6.867  0.2598  0.1172 -0.0603
  144MOL   O13246178   4.346   2.618   6.871 -0.1858 -0.2754 -0.0637
  144MOL   C13346179   4.291   2.551   6.761  0.0610 -0.2701 -0.2679
  144MOL   C13446180   4.395   2.534   6.652 -0.7520  0.1522  0.1140
  144MOL   C13546181   4.218   2.421   6.797 -0.3009  0.0508  0.0483
  144MOL   H13646182   4.118   2.706   6.882  0.9074 -0.1382 -0.0498
  144MOL   H13746183   4.162   2.809   7.004 -0.7749  2.6160 -0.7210
  144MOL   H13846184   4.367   2.784   6.770 -1.1610 -0.7963 -0.9605
  144MOL   H13946185   4.221   2.613   6.704  1.2587 -0.7089 -2.2832
  144MOL   H14046186   4.491   2.491   6.681 -0.3485  0.9253 -0.0642
  144MOL   H14146187   4.416   2.632   6.608  0.2992  1.1388  2.7568
  144MOL   H14246188   4.349   2.476   6.571 -2.4296  1.4186  0.1297
  144MOL   H14346189   4.281   2.353   6.855  0.2802  2.6718  2.5885
  144MOL   H14446190   4.141   2.459   6.863 -1.9469 -1.0343 -1.2021
  144MOL   H14546191   4.189   2.368   6.706 -0.2267  0.8214 -0.4281
  144MOL   C14646192   4.410   2.812   6.978 -0.2747  0.4634 -0.5813
  144MOL   C14746193   4.564   2.787   6.966  0.4859 -1.1665  0.8197
  144MOL   O14846194   4.610   2.848   6.843 -0.1061 -0.0944 -0.0562
  144MOL   C14946195   4.682   2.760   6.764 -0.2209 -0.7968 -0.6885
  144MOL   C15046196   4.828   2.739   6.811 -0.0584  1.3069 -0.3403
  144MOL   C15146197   4.671   2.822   6.629  0.2780  0.1294  0.2474
  144MOL   H15246198   4.384   2.751   7.064 -3.8160  0.8754 -1.2677
  144MOL   H15346199   4.383   2.915   7.002  0.0606  0.4961 -0.3424
  144MOL   H15446200   4.573   2.678   6.964 -0.2477 -1.2121 -0.4586
  144MOL   H15546201   4.640   2.659   6.754 -0.2435 -0.6401 -2.3838
  144MOL   H15646202   4.884   2.833   6.810  1.0150  0.6740 -1.5702
  144MOL   H15746203   4.886   2.666   6.755  0.5568 -1.2845  3.4962
  144MOL   H15846204   4.825   2.688   6.907  1.2122  0.7776 -0.5772
  144MOL   H15946205   4.732   2.756   6.567 -0.5809  0.3213 -0.8097
  144MOL   H16046206   4.688   2.930   6.624  1.4761 -0.0412  0.4673
  144MOL   H16146207   4.577   2.805   6.577  0.1166 -0.7093  0.7958
  144MOL   C16246208   4.639   2.852   7.078  0.0789 -0.1236  0.1648
  144MOL   C16346209   4.610   2.807   7.223 -0.1462 -0.3761 -0.5013
  144MOL   O16446210   4.656   2.668   7.234 -0.2279  0.2536 -0.0868
  144MOL   C16546211   4.560   2.576   7.303  0.3510 -0.2209  0.2447
  144MOL   C16646212   4.635   2.491   7.404  0.5626 -0.1898  0.2724
  144MOL   C16746213   4.477   2.506   7.193 -0.1014  0.0132  1.0805
  144MOL   H16846214   4.748   2.847   7.071  0.1246 -0.4659  1.0744
  144MOL   H16946215   4.617   2.958   7.065  0.4820 -0.2377 -1.6255
  144MOL   H17046216   4.503   2.821   7.243 -0.0213 -0.9924  0.6268
  144MOL   H17146217   4.489   2.634   7.362 -0.3504 -0.9087  0.0750
  144MOL   H17246218   4.576   2.422   7.464 -2.3647  1.3551 -0.7131
  144MOL   H17346219   4.695   2.550   7.474  1.8523  2.6215 -3.0275
  144MOL   H17446220   4.694   2.420   7.346 -1.8155 -1.1755 -1.0245
  144MOL   H17546221   4.397   2.442   7.227 -1.6140  0.8059 -0.8828
  144MOL   H17646222   4.557   2.446   7.148  0.6461 -1.2298  3.9783
  144MOL   H17746223   4.442   2.567   7.110  1.0515 -0.3734  0.2910
  144MOL   C17846224   4.678   2.885   7.337 -0.5722 -0.2218  0.0173
  144MOL   C17946225   4.632   3.035   7.346  0.4494  0.3140  0.7380
  144MOL   O18046226   4.507   3.032   7.427  0.2830 -0.3013 -0.3079
  144MOL   C18146227   4.405   3.136   7.403  0.1017  0.5087  0.0989
  144MOL   C18246228   4.355   3.156   7.548 -0.1522  0.5960 -0.2676
  144MOL   C18346229   4.301   3.084   7.304  0.5621 -0.2683 -0.0545
  144MOL   H18446230   4.785   2.886   7.314 -0.4850 -3.3944  0.0246
  144MOL   H18546231   4.655   2.828   7.427 -0.6595 -0.0123  0.1266
  144MOL   H18646232   4.597   3.083   7.254 -0.5174  0.7726  1.3277
  144MOL   H18746233   4.436   3.237   7.377 -0.5539  0.9701  1.0726
  144MOL   H18846234   4.276   3.231   7.553 -0.3473  0.3153  1.0315
  144MOL   H18946235   4.430   3.207   7.609 -3.1419  4.5049  0.3085
  144MOL   H19046236   4.317   3.070   7.603 -0.4781  1.1018  0.3119
  144MOL   H19146237   4.245   2.995   7.335 -0.3900 -0.8101 -3.1781
  144MOL   H19246238   4.357   3.055   7.216 -1.3040 -1.1418 -0.9952
  144MOL   H19346239   4.233   3.164   7.274  2.7131  0.7436 -2.4578
  144MOL   C19446240   4.740   3.129   7.415 -0.8039  0.1481 -0.2552
  144MOL   C19546241   4.866   3.176   7.331 -0.7370 -0.4125  0.4877
  144MOL   O19646242   4.963   3.239   7.411 -0.5056 -0.2189  0.1218
  144MOL   C19746243   5.091   3.176   7.408 -0.1232 -0.1637 -0.6555
  144MOL   C19846244   5.189   3.291   7.453 -0.5935 -0.1885  0.0728
  144MOL   C19946245   5.098   3.058   7.503 -0.0728  0.3517  0.3106
  144MOL   H20046246   4.679   3.212   7.451 -0.2971  1.2514 -1.8971
  144MOL   H20146247   4.775   3.081   7.507  0.6392 -2.0782 -1.9150
  144MOL   H20246248   4.902   3.082   7.291  0.0346 -0.0245  0.2507
  144MOL   H20346249   5.116   3.134   7.310  0.7613 -0.8842 -0.1268
  144MOL   H20446250   5.291   3.259   7.471 -0.1009  0.5624 -1.2985
  144MOL   H20546251   5.205   3.350   7.363  0.8856 -0.1295  0.3680
  144MOL   H20646252   5.151   3.348   7.538  2.0614  1.8564 -0.0441
  144MOL   H20746253   5.015   2.993   7.478 -0.2042  0.4789  0.4113
  144MOL   H20846254   5.178   2.990   7.473 -2.0764 -1.0297 -2.1189
  144MOL   H20946255   5.101   3.077   7.610 -0.8052  1.6075  0.1250
  144MOL   C21046256   4.829   3.270   7.210  0.2788 -0.2651  0.7842
  144MOL   C21146257   4.931   3.264   7.093 -0.7959 -0.1874 -0.3648
  144MOL   O21246258   4.867   3.270   6.973 -0.2250  0.4629 -0.1596
  144MOL   C21346259   4.817   3.148   6.922  0.2357 -0.2919 -0.5093
  144MOL   C21446260   4.674   3.182   6.890  0.1417  0.2167 -0.3328
  144MOL   C21546261   4.897   3.121   6.792  0.2519 -0.2985  1.0851
  144MOL   H21646262   4.795   3.369   7.239  2.1546  0.1804  1.5115
  144MOL   H21746263   4.738   3.223   7.171  0.7507 -0.8018  0.3139
  144MOL   H21846264   4.984   3.170   7.098  0.7316  0.7561  2.9113
  144MOL   H21946265   4.828   3.068   6.995 -2.0120  0.4210  0.6427
  144MOL   H22046266   4.656   3.263   6.819  0.5981  0.1478 -0.5224
  144MOL   H22146267   4.613   3.199   6.979 -1.7191  1.2575 -1.7658
  144MOL   H22246268   4.620   3.100   6.843  0.2700 -0.5066  0.7704
  144MOL   H22346269   4.868   3.036   6.730 -0.9195  0.4174  0.6242
  144MOL   H22446270   5.002   3.118   6.823  0.0511 -0.0923  1.7737
  144MOL   H22546271   4.879   3.203   6.722  2.1328  0.9715  2.0551
  144MOL   C22646272   5.034   3.383   7.104  0.8367  0.6650  0.1750
  144MOL   C22746273   5.168   3.360   7.033  0.9226  0.0357  0.0596
  144MOL   O22846274   5.226   3.249   7.097 -0.3636  0.1263  0.5298
  144MOL   C22946275   5.320   3.172   7.019 -0.5227  0.3429 -0.3886
  144MOL   C23046276   5.244   3.037   6.989 -0.2706  0.0554  0.5452
  144MOL   C23146277   5.440   3.147   7.102  0.0666 -0.0008 -0.8315
  144MOL   H23246278   5.058   3.385   7.211  0.4128  0.1870  0.2784
  144MOL   H23346279   4.996   3.480   7.070 -1.1277  0.2254  1.0375
  144MOL   H23446280   5.140   3.331   6.932  0.5359  2.2649 -0.5018
  144MOL   H23546281   5.353   3.221   6.927  2.4227 -2.0608 -0.7016
  144MOL   H23646282   5.146   3.040   6.941 -0.2630 -1.7924  0.3738
  144MOL   H23746283   5.306   2.963   6.940 -0.6538  0.6957 -0.9513
  144MOL   H23846284   5.235   2.990   7.087  1.5659 -3.6018 -0.9628
  144MOL   H23946285   5.408   3.120   7.203 -0.1096  2.6137 -0.1587
  144MOL   H24046286   5.487   3.245   7.106  0.5896 -0.3105  2.7171
  144MOL   H24146287   5.510   3.081   7.050  2.3726  1.6261  0.0857
  144MOL   C24246288   5.274   3.478   7.040  0.0747  0.0249  0.3437
  144MOL   C24346289   5.272   3.560   6.911  0.2613  0.4197 -0.0339
  144MOL   O24446290   5.322   3.472   6.810 -0.2833 -0.0229 -0.2196
  144MOL   C24546291   5.260   3.490   6.689  0.4395  0.3332  0.5477
  144MOL   C24646292   5.364   3.559   6.595 -0.2809 -0.0838 -0.3766
  144MOL   C24746293   5.220   3.341   6.640  0.5440  0.2601 -0.2348
  144MOL   H24846294   5.261   3.541   7.129  2.6536  0.7004  0.2975
  144MOL   H24946295   5.378   3.447   7.053  0.0869 -0.4281 -0.8598
  144MOL   H25046296   5.165   3.575   6.895  0.3329  0.9110 -0.0358
  144MOL   H25146297   5.172   3.554   6.693  1.2727  1.5433 -0.2921
  144MOL   H25246298   5.416   3.649   6.629 -1.1285 -0.6083  2.4708
  144MOL   H25346299   5.446   3.489   6.583  1.7014  1.8071  1.4813
  144MOL   H25446300   5.317   3.589   6.501 -0.7138 -1.4671 -0.6088
  144MOL   H25546301   5.181   3.280   6.721  0.1951  2.4104  1.2747
  144MOL   H25646302   5.152   3.343   6.555 -0.9711 -1.5396  0.8997
  144MOL   H25746303   5.308   3.282   6.617  0.2024 -1.2723  2.2004
  144MOL   C25846304   5.337   3.695   6.920  0.3524  0.3011  0.7525
  144MOL   C25946305   5.488   3.696   6.963 -0.8517 -0.1608  0.1550
  144MOL   O26046306   5.540   3.834   6.959 -0.4185  0.1529 -0.2554
  144MOL   C26146307   5.551   3.905   7.083  0.3500  0.1497 -0.4309
  144MOL   C26246308   5.676   3.999   7.082  0.5420 -0.2243 -0.2783
  144MOL   C26346309   5.425   3.984   7.114  0.4337 -0.3345 -0.3056
  144MOL   H26446310   5.317   3.743   6.824 -2.7445  2.5463  2.4517
  144MOL   H26546311   5.298   3.758   7.000 -0.7242  0.4881  0.0888
  144MOL   H26646312   5.501   3.646   7.059 -2.0447 -1.0205 -0.1252
  144MOL   H26746313   5.564   3.828   7.159 -2.1706  1.7532  1.7449
  144MOL   H26846314   5.775   3.955   7.097  0.5858 -0.3613 -0.9684
  144MOL   H26946315   5.666   4.052   7.177  1.0087  2.1133 -1.5065
  144MOL   H27046316   5.676   4.071   7.001 -0.2375  0.5469  0.4057
  144MOL   H27146317   5.356   3.906   7.147  1.4743 -1.3287 -0.4567
  144MOL   H27246318   5.449   4.053   7.196 -0.6104 -0.0432 -0.2272
  144MOL   H27346319   5.386   4.036   7.026 -0.0118 -2.3698 -1.3229
  144MOL   C27446320   5.578   3.626   6.861 -0.6591  0.2635  0.6387
  144MOL   C27546321   5.726   3.614   6.908  0.5634  0.1274 -0.3754
  144MOL   O27646322   5.721   3.541   7.034 -0.1107  0.7667  0.0225
  144MOL   C27746323   5.808   3.591   7.131  0.1019  0.5315 -1.1028
  144MOL   C27846324   5.949   3.517   7.122 -0.6248  0.2028  0.2436
  144MOL   C27946325   5.742   3.547   7.264  0.1036  0.1409 -0.3023
  144MOL   H28046326   5.541   3.525   6.847 -0.1432 -0.2410  2.8259
  144MOL   H28146327   5.581   3.675   6.763 -1.5620 -0.0188  0.4727
  144MOL   H28246328   5.763   3.715   6.922  0.6368 -0.0284  0.5787
  144MOL   H28346329   5.820   3.699   7.131 -0.5431  0.6059 -0.6619
  144MOL   H28446330   6.014   3.557   7.200 -0.6235  1.8593 -0.5788
  144MOL   H28546331   5.941   3.409   7.136 -1.2708  0.0835 -0.9847
  144MOL   H28646332   6.002   3.555   7.035 -0.8407 -0.8607 -0.3628
  144MOL   H28746333   5.808   3.559   7.349 -1.1801 -0.4839  0.8038
  144MOL   H28846334   5.723   3.439   7.266  1.9893 -0.2291 -1.6074
  144MOL   H28946335   5.653   3.606   7.285 -0.7598 -0.8640 -1.0373
  144MOL   C29046336   5.803   3.547   6.799 -0.5898  0.1721  0.6077
  144MOL   C29146337   5.867   3.636   6.693  0.0238  0.3654 -0.4039
  144MOL   O29246338   5.959   3.726   6.753 -0.2973  0.0252 -0.0931
  144MOL   C29346339   5.978   3.853   6.695  0.5992  0.2221  0.3943
  144MOL   C29446340   6.123   3.872   6.728 -0.8485  0.3666  0.4414
  144MOL   C29546341   5.884   3.956   6.763 -0.5627  0.2174  0.4833
  144MOL   H29646342   5.753   3.460   6.757  1.4078 -1.2330  1.0639
  144MOL   H29746343   5.893   3.505   6.844 -1.2667 -0.5968  1.2652
  144MOL   H29846344   5.783   3.683   6.643 -1.0444  2.1422  2.9105
  144MOL   H29946345   5.960   3.862   6.588 -0.8044 -0.2013  0.5825
  144MOL   H30046346   6.165   3.964   6.687 -0.4979 -0.2004 -0.4854
  144MOL   H30146347   6.154   3.876   6.833 -2.8529  0.3024  1.0644
  144MOL   H30246348   6.183   3.792   6.684 -0.5901  1.6332 -1.5574
  144MOL   H30346349   5.919   4.057   6.745 -1.0091  0.2060 -0.4650
  144MOL   H30446350   5.781   3.947   6.729 -0.6218  2.7364 -0.1227
  144MOL   H30546351   5.884   3.942   6.871  0.2746  0.4415  0.5154
  144MOL   C30646352   5.953   3.554   6.600 -0.1334  0.0173 -0.1048
  144MOL   C30746353   5.876   3.515   6.476  0.2604  0.2177  0.1389
  144MOL   O30846354   5.972   3.468   6.383 -0.5194 -0.1249  0.2251
  144MOL   C30946355   5.914   3.401   6.271 -0.8154  0.1642 -0.3964
  144MOL   C31046356   5.930   3.495   6.149  0.2813  0.7852  0.5571
  144MOL   C31146357   6.015   3.288   6.243  0.6236 -0.4143 -0.1748
  144MOL   H31246358   5.991   3.462   6.643 -0.9605 -0.5878 -0.6602
  144MOL   H31346359   6.036   3.619   6.572  0.4410 -1.2777 -1.4376
  144MOL   H31446360   5.816   3.429   6.507  0.8580 -0.1351  0.3411
  144MOL   H31546361   5.823   3.348   6.298 -1.6511  0.0938 -3.1327
  144MOL   H31646362   5.900   3.433   6.064  0.3632 -0.8399  1.6796
  144MOL   H31746363   6.033   3.526   6.135 -0.1782  2.2575  0.3767
  144MOL   H31846364   5.868   3.584   6.160  1.3362  1.2075  3.4304
  144MOL   H31946365   6.011   3.227   6.334 -1.4831  1.0062  0.7387
  144MOL   H32046366   6.117   3.319   6.225  1.9737 -2.3299  3.6055
  144MOL   H32146367   5.994   3.232   6.152  2.3380 -0.8954 -0.2801
  144MOL   H32246368   5.812   3.586   6.424 -2.1224 -0.8332  1.5354
  145MOL     C146369   5.881   3.340   3.205  0.0377  0.6925 -0.2164
  145MOL     C246370   5.944   3.404   3.336  0.1834  0.9325 -0.2845
  145MOL     O346371   6.068   3.466   3.300 -0.3008  0.0671  0.6765
  145MOL     C446372   6.174   3.385   3.253 -0.4102 -0.2439  0.6806
  145MOL     C546373   6.263   3.332   3.370 -0.3136 -0.5798 -0.0072
  145MOL     C646374   6.248   3.477   3.158 -0.3159  0.4829 -0.0744
  145MOL     H746375   5.931   3.248   3.174  2.5344  1.4897  1.2909
  145MOL     H846376   5.776   3.314   3.213 -0.6433  3.7086  1.2309
  145MOL     H946377   5.978   3.324   3.401 -2.0961 -2.3032 -2.8967
  145MOL    H1046378   6.143   3.295   3.198 -0.4102  0.9632 -1.3529
  145MOL    H1146379   6.338   3.410   3.387 -0.2694  0.1184 -3.0787
  145MOL    H1246380   6.205   3.308   3.459  0.8012  0.5286  1.0591
  145MOL    H1346381   6.316   3.242   3.339 -0.9004 -2.0951  3.1494
  145MOL    H1446382   6.297   3.565   3.200  1.0762  0.7771 -2.2237
  145MOL    H1546383   6.324   3.430   3.095 -0.9566  0.5198 -0.8932
  145MOL    H1646384   6.180   3.509   3.078 -0.6537 -1.4807 -0.5990
  145MOL    H1746385   5.896   3.409   3.123  0.0949  2.1817  1.0192
  145MOL    C1846386   5.850   3.498   3.406  0.3485  0.2031  0.3503
  145MOL    C1946387   5.898   3.568   3.531  0.5027 -0.5327 -0.1060
  145MOL    O2046388   5.946   3.473   3.626 -0.9727  0.9602 -0.2118
  145MOL    C2146389   6.031   3.526   3.730 -0.3339  0.0448  0.7972
  145MOL    C2246390   6.177   3.518   3.690  0.3933  0.2428 -0.2248
  145MOL    C2346391   6.011   3.445   3.859 -0.1043 -0.0278  0.0293
  145MOL    H2446392   5.842   3.576   3.329  1.8095  0.0385  0.0269
  145MOL    H2546393   5.753   3.454   3.427  0.7892 -0.8625  0.1896
  145MOL    H2646394   5.985   3.629   3.506  0.9531 -0.7857  0.8198
  145MOL    H2746395   6.012   3.629   3.760  0.8294 -0.0477  1.9297
  145MOL    H2846396   6.225   3.581   3.764 -0.8549 -1.0931  1.7751
  145MOL    H2946397   6.214   3.416   3.697 -2.1553 -0.7390 -0.3684
  145MOL    H3046398   6.194   3.566   3.593 -1.2063  0.4533 -0.4180
  145MOL    H3146399   5.904   3.449   3.880 -0.0704 -1.2400  0.5025
  145MOL    H3246400   6.080   3.478   3.936  0.5451  0.4351 -0.7450
  145MOL    H3346401   6.023   3.337   3.845  1.2286  0.1900 -0.6019
  145MOL    C3446402   5.774   3.639   3.598  0.3311 -0.3021 -0.1043
  145MOL    C3546403   5.745   3.775   3.535 -0.0557 -0.3011 -0.2711
  145MOL    O3646404   5.666   3.736   3.424  0.1047  0.3035 -0.0723
  145MOL    C3746405   5.633   3.835   3.324 -0.1030  0.8021  0.0103
  145MOL    C3846406   5.673   3.773   3.186  0.5652 -0.3632  0.8990
  145MOL    C3946407   5.492   3.870   3.342  0.5140  0.3204  0.0291
  145MOL    H4046408   5.801   3.658   3.702 -0.3279 -0.5435  0.1093
  145MOL    H4146409   5.690   3.572   3.613  0.6351 -0.5015  0.7523
  145MOL    H4246410   5.835   3.827   3.501  0.1159 -0.5934 -0.2663
  145MOL    H4346411   5.692   3.925   3.341  1.6087 -0.3405  0.2349
  145MOL    H4446412   5.620   3.826   3.107 -0.1786 -0.6380  1.2007
  145MOL    H4546413   5.647   3.668   3.173  1.1819 -0.4599  0.4518
  145MOL    H4646414   5.780   3.786   3.172  0.4960 -1.4335 -0.7446
  145MOL    H4746415   5.479   3.916   3.441  2.6253 -2.4732  1.6646
  145MOL    H4846416   5.472   3.948   3.268  2.2067 -0.8242 -1.6520
  145MOL    H4946417   5.427   3.784   3.327  0.3855  0.4189  0.0215
  145MOL    C5046418   5.661   3.864   3.639 -0.0161 -0.1443  0.2123
  145MOL    C5146419   5.725   3.892   3.777 -0.5803 -0.2167 -0.5439
  145MOL    O5246420   5.631   3.980   3.832 -0.1083 -0.6852  0.1554
  145MOL    C5346421   5.607   3.948   3.971  0.0604  0.0654 -1.1426
  145MOL    C5446422   5.494   3.841   3.975 -0.2977 -0.1974  0.1367
  145MOL    C5546423   5.568   4.079   4.034 -0.2320 -0.6865  0.1018
  145MOL    H5646424   5.626   3.954   3.588  1.7602  0.6820  0.4421
  145MOL    H5746425   5.567   3.809   3.651 -0.0074 -0.1554  0.2316
  145MOL    H5846426   5.730   3.797   3.830 -0.6169 -1.1202 -2.1417
  145MOL    H5946427   5.700   3.924   4.023 -1.6949 -1.8923  1.2391
  145MOL    H6046428   5.455   3.835   4.076  0.3977  0.7029  0.4661
  145MOL    H6146429   5.515   3.741   3.937  0.8456  0.2422 -0.4224
  145MOL    H6246430   5.412   3.875   3.912 -1.4106 -1.1143  1.0881
  145MOL    H6346431   5.636   4.161   4.012 -1.1337 -0.4528 -1.9142
  145MOL    H6446432   5.561   4.078   4.143  0.2692 -0.3714  0.1365
  145MOL    H6546433   5.473   4.115   3.992  0.8365  0.4810 -1.3879
  145MOL    C6646434   5.860   3.956   3.755  0.4980 -0.3144 -0.1528
  145MOL    C6746435   5.938   4.002   3.880  0.2492 -0.2167  0.3023
  145MOL    O6846436   6.051   4.078   3.831  0.2677  0.3073 -0.1874
  145MOL    C6946437   6.035   4.219   3.832  0.2283  0.0241 -0.3471
  145MOL    C7046438   6.177   4.276   3.852 -0.9526  0.2623 -0.5976
  145MOL    C7146439   5.955   4.276   3.717  0.1216  0.6672  0.6281
  145MOL    H7246440   5.926   3.884   3.706 -1.4491 -1.2302 -1.4776
  145MOL    H7346441   5.841   4.033   3.680 -0.2438 -0.6836 -0.3369
  145MOL    H7446442   5.869   4.055   3.946  0.7567  0.4497  0.2963
  145MOL    H7546443   5.977   4.242   3.921 -0.4480  0.0194 -0.7875
  145MOL    H7646444   6.180   4.384   3.835  1.3729  0.4543  0.7534
  145MOL    H7746445   6.224   4.250   3.947 -1.5262  0.9564 -0.1127
  145MOL    H7846446   6.250   4.232   3.784 -1.5488  1.0044 -1.7349
  145MOL    H7946447   5.969   4.209   3.632 -0.7650  0.4333  0.6598
  145MOL    H8046448   5.980   4.375   3.679  0.7400 -0.3604 -1.7255
  145MOL    H8146449   5.848   4.268   3.737 -0.2645  1.2119 -1.1522
  145MOL    C8246450   5.991   3.872   3.950 -0.0997 -0.0961  0.6931
  145MOL    C8346451   6.069   3.896   4.078  0.1227 -0.4881  0.0363
  145MOL    O8446452   5.970   3.936   4.169 -0.3212  0.6445 -0.3337
  145MOL    C8546453   5.972   4.072   4.214  0.6043 -0.3947 -0.5310
  145MOL    C8646454   6.104   4.118   4.275 -0.1156  0.3619 -0.1547
  145MOL    C8746455   5.854   4.078   4.317 -0.3003 -0.1136  0.4498
  145MOL    H8846456   5.921   3.789   3.959  0.9398 -1.2666 -1.5038
  145MOL    H8946457   6.065   3.821   3.887  0.4987  2.3160 -0.6173
  145MOL    H9046458   6.127   3.985   4.051  1.9028 -2.0469 -1.5177
  145MOL    H9146459   5.949   4.134   4.128  3.1834 -0.5092 -1.3224
  145MOL    H9246460   6.150   4.038   4.333  1.1886 -0.7453 -2.6314
  145MOL    H9346461   6.170   4.150   4.194 -0.4043  0.9052 -0.1784
  145MOL    H9446462   6.091   4.203   4.342 -0.6875 -1.0654  1.5664
  145MOL    H9546463   5.878   4.011   4.400  0.9747 -2.4084 -1.6968
  145MOL    H9646464   5.839   4.178   4.359 -1.4260  0.8452 -2.1387
  145MOL    H9746465   5.764   4.032   4.277  0.2842 -0.7007 -0.1925
  145MOL    C9846466   6.147   3.779   4.141 -0.5573 -0.4436 -0.6690
  145MOL    C9946467   6.299   3.793   4.137 -0.1408  0.1010 -0.2241
  145MOL   O10046468   6.345   3.779   4.002 -0.1665 -0.3877 -0.1755
  145MOL   C10146469   6.452   3.870   3.967  0.0960  0.2658  0.3727
  145MOL   C10246470   6.386   3.994   3.908  0.1562  0.0791  0.9096
  145MOL   C10346471   6.539   3.782   3.876  0.6878  0.5686 -0.2722
  145MOL   H10446472   6.106   3.758   4.240 -1.0736 -1.0726 -1.0089
  145MOL   H10546473   6.129   3.687   4.085  1.2753  0.8243 -3.4095
  145MOL   H10646474   6.311   3.890   4.185  0.6262 -0.0827 -0.0457
  145MOL   H10746475   6.513   3.899   4.054 -0.6821  0.8333  0.7346
  145MOL   H10846476   6.459   4.066   3.871 -0.6127 -0.6407 -2.1245
  145MOL   H10946477   6.317   4.030   3.984  2.0103 -0.1168  2.7326
  145MOL   H11046478   6.320   3.965   3.826 -1.7408  0.3258  2.3248
  145MOL   H11146479   6.556   3.686   3.924  0.2154  0.9026  0.5780
  145MOL   H11246480   6.639   3.817   3.851  1.0275  0.6567  1.1640
  145MOL   H11346481   6.485   3.757   3.785 -0.4256  1.4434  0.1333
  145MOL   C11446482   6.372   3.687   4.228  0.4311 -0.4482  0.0977
  145MOL   C11546483   6.355   3.704   4.380 -0.3209  0.2927 -0.4260
  145MOL   O11646484   6.400   3.582   4.441 -0.2012  0.6768  0.2032
  145MOL   C11746485   6.307   3.476   4.439  0.5231 -0.7402 -0.1586
  145MOL   C11846486   6.194   3.512   4.536  0.6127 -0.7375 -0.1457
  145MOL   C11946487   6.376   3.343   4.470 -0.3716 -0.0002  0.0018
  145MOL   H12046488   6.477   3.694   4.198  0.4845 -0.7715  0.2097
  145MOL   H12146489   6.331   3.589   4.203 -0.2017  0.1756 -1.4122
  145MOL   H12246490   6.249   3.723   4.392 -0.7354 -2.0210 -0.1888
  145MOL   H12346491   6.256   3.478   4.343  0.3564  2.8055 -0.0730
  145MOL   H12446492   6.234   3.530   4.636 -0.4038  0.2435  0.1016
  145MOL   H12546493   6.128   3.426   4.547 -0.3827 -0.1006 -1.0873
  145MOL   H12646494   6.138   3.604   4.516  0.9689 -0.7274 -1.1067
  145MOL   H12746495   6.447   3.330   4.552  1.4395 -1.4929 -1.7279
  145MOL   H12846496   6.439   3.306   4.389  1.1038 -0.1969  1.2036
  145MOL   H12946497   6.292   3.275   4.485  0.2321 -0.9976 -1.1194
  145MOL   C13046498   6.451   3.818   4.428 -0.0345 -0.4975  1.1122
  145MOL   C13146499   6.399   3.899   4.546  0.4684  0.1867  0.2038
  145MOL   O13246500   6.496   4.005   4.579  0.2658  0.0185 -0.0906
  145MOL   C13346501   6.452   4.134   4.540  0.1561  0.1061 -0.0277
  145MOL   C13446502   6.512   4.239   4.641  0.0403 -0.3391 -0.2770
  145MOL   C13546503   6.501   4.167   4.396 -0.2372 -0.7810  0.0985
  145MOL   H13646504   6.461   3.896   4.353  0.9133 -0.6975  1.0203
  145MOL   H13746505   6.552   3.783   4.450  0.6163  0.8700  0.3831
  145MOL   H13846506   6.308   3.951   4.517  1.8897  1.7109 -1.6511
  145MOL   H13946507   6.346   4.154   4.552  0.5031  1.0313  1.5851
  145MOL   H14046508   6.617   4.214   4.656  0.0261 -0.0924  0.2643
  145MOL   H14146509   6.464   4.242   4.739  1.0359 -1.6672  0.2772
  145MOL   H14246510   6.512   4.340   4.601  0.7804 -0.7061 -1.2267
  145MOL   H14346511   6.442   4.128   4.313  0.8269  2.6168 -2.3681
  145MOL   H14446512   6.522   4.274   4.389 -1.6495 -0.5587 -1.0130
  145MOL   H14546513   6.602   4.127   4.396 -0.4076 -1.2595  1.6447
  145MOL   C14646514   6.383   3.812   4.674 -0.0538  0.5170  0.6379
  145MOL   C14746515   6.288   3.874   4.780 -0.5707  0.4975  0.3943
  145MOL   O14846516   6.158   3.870   4.715 -0.4803 -0.3827  0.5258
  145MOL   C14946517   6.061   3.961   4.766  0.5050 -0.5903 -0.0313
  145MOL   C15046518   5.917   3.912   4.743 -0.1659  0.2430  0.2407
  145MOL   C15146519   6.077   4.090   4.691 -0.0714 -0.0862 -0.4023
  145MOL   H15246520   6.486   3.816   4.709  0.4895  1.0744 -0.9570
  145MOL   H15346521   6.360   3.707   4.657 -0.5921  0.4861  1.5041
  145MOL   H15446522   6.316   3.979   4.787  1.6284  0.0233 -0.6166
  145MOL   H15546523   6.078   3.985   4.871  0.3486  0.5182 -0.2448
  145MOL   H15646524   5.897   3.883   4.640 -3.3882 -0.2349  0.9699
  145MOL   H15746525   5.834   3.973   4.779 -1.7210 -0.9063 -1.3572
  145MOL   H15846526   5.904   3.818   4.796  0.6444  0.8315  1.5316
  145MOL   H15946527   6.177   4.134   4.699  0.2680 -0.5416 -1.9971
  145MOL   H16046528   6.012   4.164   4.737 -1.1319  0.3342 -2.4855
  145MOL   H16146529   6.059   4.085   4.583  1.6156  0.6702 -0.7404
  145MOL   C16246530   6.282   3.794   4.910 -0.2416  0.2425 -0.1054
  145MOL   C16346531   6.394   3.805   5.008 -0.2066  0.5564 -0.1695
  145MOL   O16446532   6.513   3.748   4.972  0.3708 -0.2293  0.0714
  145MOL   C16546533   6.511   3.607   4.969  1.0716  0.2006 -0.4586
  145MOL   C16646534   6.631   3.557   5.050 -0.0169 -0.2406  0.7502
  145MOL   C16746535   6.518   3.559   4.824  0.2325 -0.7211 -0.2159
  145MOL   H16846536   6.188   3.809   4.963  0.0763 -1.3222  0.9499
  145MOL   H16946537   6.276   3.690   4.877  3.3027  0.2833 -1.0534
  145MOL   H17046538   6.355   3.756   5.097  0.9796 -1.3395 -0.6799
  145MOL   H17146539   6.422   3.560   5.010  0.9154  0.4570 -0.5012
  145MOL   H17246540   6.721   3.611   5.019 -0.6874  0.1232 -0.6068
  145MOL   H17346541   6.652   3.453   5.028  1.2531  0.1584 -0.0187
  145MOL   H17446542   6.614   3.576   5.156 -1.2162 -0.7447  0.6498
  145MOL   H17546543   6.557   3.458   4.829 -0.3949 -1.0903 -2.2826
  145MOL   H17646544   6.576   3.627   4.761  0.2594 -0.5610 -0.0213
  145MOL   H17746545   6.420   3.545   4.781  0.6479 -3.8137 -0.2102
  145MOL   C17846546   6.418   3.956   5.038 -0.1031  1.1594 -0.5225
  145MOL   C17946547   6.491   3.990   5.169 -0.1776 -0.2408  0.2858
  145MOL   O18046548   6.514   4.135   5.178  0.1523  0.5806  0.1265
  145MOL   C18146549   6.638   4.197   5.217  0.6728  0.5612 -0.1987
  145MOL   C18246550   6.600   4.323   5.285 -0.2170 -0.1680 -0.5116
  145MOL   C18346551   6.716   4.211   5.086  0.5486 -0.3075 -0.0533
  145MOL   H18446552   6.320   4.004   5.035 -1.6552 -1.9152 -0.7182
  145MOL   H18546553   6.473   4.007   4.959  1.6405  0.0367 -0.0579
  145MOL   H18646554   6.585   3.935   5.168 -0.3329 -0.5049 -0.0561
  145MOL   H18746555   6.694   4.141   5.293 -1.0576  0.0101  0.7011
  145MOL   H18846556   6.680   4.391   5.313 -0.0196 -1.4384  2.1508
  145MOL   H18946557   6.538   4.298   5.371 -1.0709 -0.7334 -1.2835
  145MOL   H19046558   6.538   4.386   5.221  3.3456  3.2552 -0.7647
  145MOL   H19146559   6.796   4.283   5.103  2.2610 -1.6509 -2.2278
  145MOL   H19246560   6.655   4.243   5.000 -0.4335 -1.2302  0.2961
  145MOL   H19346561   6.767   4.116   5.071  1.3010  0.4121 -2.2859
  145MOL   C19446562   6.433   3.936   5.304 -0.0835  0.1318 -0.4464
  145MOL   C19546563   6.298   3.994   5.346 -0.8104  0.3425  0.1951
  145MOL   O19646564   6.269   3.981   5.488  0.5560  0.6527 -0.2349
  145MOL   C19746565   6.325   4.074   5.583 -0.5868 -0.3220  0.2453
  145MOL   C19846566   6.208   4.160   5.636 -0.0541  0.1113  0.2214
  145MOL   C19946567   6.386   3.999   5.696  0.5897 -0.4035 -0.4214
  145MOL   H20046568   6.439   3.830   5.327  1.8021  0.9694  3.3942
  145MOL   H20146569   6.505   3.969   5.379  0.0929  2.5593 -1.6393
  145MOL   H20246570   6.299   4.095   5.306  3.1004  0.2813  0.0302
  145MOL   H20346571   6.387   4.143   5.526 -0.8052 -1.1794 -1.0514
  145MOL   H20446572   6.244   4.245   5.694  1.9305  0.9697 -2.1959
  145MOL   H20546573   6.151   4.199   5.552 -1.8350  2.3696  2.4008
  145MOL   H20646574   6.128   4.113   5.693 -0.5771  0.7775  0.0357
  145MOL   H20746575   6.302   3.939   5.731 -1.6241  1.6843 -2.0396
  145MOL   H20846576   6.466   3.931   5.668  1.4027  0.9842 -1.4869
  145MOL   H20946577   6.419   4.067   5.774 -0.2835  0.2367 -0.6133
  145MOL   C21046578   6.166   3.934   5.282  0.5185 -0.3806  0.0455
  145MOL   C21146579   6.056   4.042   5.274  0.1780 -0.6838 -0.0607
  145MOL   O21246580   6.093   4.117   5.162  0.3782  0.0428  0.6110
  145MOL   C21346581   6.051   4.255   5.170 -0.4304 -0.6287 -0.1920
  145MOL   C21446582   6.171   4.331   5.231  0.0595  0.5499 -0.1778
  145MOL   C21546583   6.021   4.289   5.025 -0.0124  0.3322  0.7212
  145MOL   H21646584   6.122   3.845   5.328 -1.4432  1.1072  1.1217
  145MOL   H21746585   6.200   3.903   5.183  0.6007 -2.8518  0.8175
  145MOL   H21846586   6.068   4.104   5.363  1.1051 -1.5329  0.4165
  145MOL   H21946587   5.967   4.272   5.237 -0.4929  0.2940 -0.4941
  145MOL   H22046588   6.142   4.436   5.224 -1.2119  0.2056 -0.1117
  145MOL   H22146589   6.260   4.308   5.174  0.2404 -0.5345  0.5347
  145MOL   H22246590   6.180   4.304   5.337  1.4187 -0.9216 -0.6599
  145MOL   H22346591   6.017   4.397   5.010  0.7875  0.2098 -0.4564
  145MOL   H22446592   5.940   4.237   4.974 -0.1981  0.1217  1.2284
  145MOL   H22546593   6.111   4.262   4.969 -0.4874 -1.0791  0.6406
  145MOL   C22646594   5.914   3.992   5.248  0.0984 -0.4671  1.0972
  145MOL   C22746595   5.831   3.940   5.366 -0.3064  0.3966  0.2052
  145MOL   O22846596   5.724   3.864   5.309 -0.1269  0.2712  0.1871
  145MOL   C22946597   5.699   3.730   5.363  0.2027  0.8475  0.0553
  145MOL   C23046598   5.663   3.650   5.242  0.0958 -0.4040  0.2795
  145MOL   C23146599   5.582   3.744   5.457 -0.3399 -0.4342 -0.5718
  145MOL   H23246600   5.922   3.903   5.187 -2.5115  0.1346 -0.1900
  145MOL   H23346601   5.860   4.070   5.194 -0.5115 -1.0669  0.8432
  145MOL   H23446602   5.891   3.874   5.429 -2.2473 -0.2389  1.4397
  145MOL   H23546603   5.790   3.682   5.398 -0.8565 -2.4544 -1.5184
  145MOL   H23646604   5.627   3.552   5.274  1.5762 -1.1955 -0.4426
  145MOL   H23746605   5.587   3.701   5.184  0.1630 -0.1176  0.4411
  145MOL   H23846606   5.746   3.646   5.172  0.4137  1.2378  0.5514
  145MOL   H23946607   5.486   3.775   5.418 -1.3804 -2.6731  0.1086
  145MOL   H24046608   5.605   3.809   5.541 -1.4296 -0.7258 -0.0444
  145MOL   H24146609   5.568   3.643   5.496 -0.3163 -0.9921 -1.9807
  145MOL   C24246610   5.778   4.049   5.460 -0.5518  0.4587 -0.0964
  145MOL   C24346611   5.667   4.136   5.401 -0.1051  0.5687 -0.5175
  145MOL   O24446612   5.723   4.218   5.303 -0.2040 -0.0559  0.5202
  145MOL   C24546613   5.632   4.258   5.199  0.3101 -0.0505  0.2512
  145MOL   C24646614   5.659   4.403   5.165  0.5013 -0.3395  0.7041
  145MOL   C24746615   5.632   4.165   5.078 -0.4222 -0.3257 -0.1097
  145MOL   H24846616   5.749   4.007   5.556  2.3719 -1.0736  0.1739
  145MOL   H24946617   5.870   4.103   5.484  0.1010  0.0677 -1.6635
  145MOL   H25046618   5.596   4.068   5.353 -1.0307  1.4709 -0.4354
  145MOL   H25146619   5.531   4.249   5.240  0.9400 -0.6078  1.7138
  145MOL   H25246620   5.758   4.414   5.120  0.2373 -0.8602 -0.0122
  145MOL   H25346621   5.577   4.442   5.106  1.4257 -0.4142 -0.6517
  145MOL   H25446622   5.658   4.456   5.260 -1.5974 -0.1282  0.5887
  145MOL   H25546623   5.733   4.164   5.038  0.2677 -2.0961  1.6308
  145MOL   H25646624   5.606   4.063   5.103 -0.7559 -0.1735  0.1601
  145MOL   H25746625   5.563   4.200   5.001 -3.5758 -1.0483  2.2917
  145MOL   C25846626   5.598   4.218   5.517  0.0615 -0.6540  0.2329
  145MOL   C25946627   5.462   4.171   5.576 -0.3374 -0.0678 -0.5980
  145MOL   O26046628   5.472   4.040   5.639  0.5349 -0.3232  0.6996
  145MOL   C26146629   5.404   4.015   5.760  0.5903  0.1335 -0.0992
  145MOL   C26246630   5.412   3.865   5.778 -0.5728  0.3499  0.2897
  145MOL   C26346631   5.454   4.104   5.874  0.0348  0.6133 -0.3345
  145MOL   H26446632   5.660   4.236   5.604 -2.1740  0.7230  1.5765
  145MOL   H26546633   5.581   4.317   5.476 -0.3798 -0.9519 -0.3172
  145MOL   H26646634   5.431   4.239   5.656 -0.7925  0.7468 -1.4591
  145MOL   H26746635   5.304   4.041   5.725  1.3203  1.1802 -1.4943
  145MOL   H26846636   5.378   3.796   5.701 -1.6354 -0.8879  1.8212
  145MOL   H26946637   5.372   3.838   5.876  0.2703  1.6001  0.9891
  145MOL   H27046638   5.517   3.838   5.782 -0.1806  2.0281  1.8806
  145MOL   H27146639   5.441   4.212   5.868  2.6066  1.0372  1.2029
  145MOL   H27246640   5.416   4.063   5.968 -2.9839 -1.8109 -2.4850
  145MOL   H27346641   5.563   4.101   5.878  0.0813  1.5526 -0.8467
  145MOL   C27446642   5.355   4.173   5.471 -0.4292 -0.4532 -0.0260
  145MOL   C27546643   5.207   4.200   5.525  0.0206 -0.3142 -0.4844
  145MOL   O27646644   5.148   4.314   5.463 -0.6962  0.5165  0.6609
  145MOL   C27746645   5.184   4.442   5.518  1.1415 -0.2218  0.5129
  145MOL   C27846646   5.081   4.461   5.633  0.2224  0.5992  0.4752
  145MOL   C27946647   5.164   4.545   5.408 -0.3281 -0.0104 -0.3572
  145MOL   H28046648   5.386   4.252   5.403  0.1046  0.6259  1.4259
  145MOL   H28146649   5.354   4.078   5.418  2.0969 -0.4315 -0.1822
  145MOL   H28246650   5.197   4.218   5.632 -0.6021 -0.9263 -0.4355
  145MOL   H28346651   5.281   4.458   5.566  1.0176 -0.0741  0.7184
  145MOL   H28446652   5.110   4.391   5.711 -0.4750 -1.5265 -1.1278
  145MOL   H28546653   5.090   4.551   5.694 -2.4698  1.6099 -0.5608
  145MOL   H28646654   4.976   4.447   5.605  0.6328 -0.0349 -0.7910
  145MOL   H28746655   5.235   4.529   5.327 -1.5137  1.1214 -1.6390
  145MOL   H28846656   5.163   4.646   5.449 -0.2402 -0.2093  0.1431
  145MOL   H28946657   5.062   4.540   5.368 -0.2635 -0.2908 -0.4905
  145MOL   C29046658   5.116   4.072   5.509  0.2827 -0.7070 -1.0409
  145MOL   C29146659   4.965   4.082   5.555 -0.4521  0.6164  0.5490
  145MOL   O29246660   4.868   4.067   5.450  0.0840  0.5743 -0.1883
  145MOL   C29346661   4.809   4.189   5.415  0.0859  0.2848  0.5756
  145MOL   C29446662   4.705   4.234   5.522 -0.2118  0.0120  0.0289
  145MOL   C29546663   4.746   4.163   5.273  0.3133  0.1237 -0.0211
  145MOL   H29646664   5.166   3.994   5.567 -0.0293  1.3131  2.0671
  145MOL   H29746665   5.113   4.038   5.406 -1.0256 -0.3661 -1.1314
  145MOL   H29846666   4.954   4.178   5.606  2.0245  0.9116  0.6104
  145MOL   H29946667   4.888   4.265   5.411 -0.1294  0.4551 -0.7719
  145MOL   H30046668   4.645   4.310   5.473 -2.0935 -0.8182  1.0011
  145MOL   H30146669   4.634   4.160   5.558 -0.4915 -0.5920 -1.6888
  145MOL   H30246670   4.749   4.290   5.604 -0.3208  0.2246 -0.0592
  145MOL   H30346671   4.700   4.252   5.232  2.4665  2.1067  1.7272
  145MOL   H30446672   4.818   4.124   5.201  0.7920 -0.5226  0.7857
  145MOL   H30546673   4.671   4.083   5.277  0.4702 -0.0500 -0.4704
  145MOL   C30646674   4.953   3.984   5.673 -0.9658 -0.5382 -0.0595
  145MOL   C30746675   4.818   3.964   5.735  0.6169  0.5854  0.5335
  145MOL   O30846676   4.822   3.851   5.825  0.6848  0.4452  0.5412
  145MOL   C30946677   4.692   3.785   5.849 -0.3452  0.4760 -0.4673
  145MOL   C31046678   4.711   3.640   5.897 -0.4437 -0.0866  0.4156
  145MOL   C31146679   4.598   3.868   5.941 -0.2394 -0.0399  0.6343
  145MOL   H31246680   5.019   4.006   5.757 -2.8854  0.3819  1.2294
  145MOL   H31346681   4.992   3.886   5.646  0.9223  0.2924 -0.4819
  145MOL   H31446682   4.774   4.057   5.770 -0.9158  0.0431  0.0841
  145MOL   H31546683   4.645   3.777   5.751  0.7925 -1.2105 -0.9023
  145MOL   H31646684   4.784   3.580   5.843  0.2443  0.5047  0.6853
  145MOL   H31746685   4.623   3.576   5.892 -0.1510 -0.4309 -0.4243
  145MOL   H31846686   4.750   3.649   5.998 -2.1312  0.8613  1.0110
  145MOL   H31946687   4.639   3.897   6.038  0.6597  1.4637 -0.1731
  145MOL   H32046688   4.513   3.802   5.954 -0.5067  0.4913  1.6598
  145MOL   H32146689   4.561   3.961   5.898  3.1887  1.3383  0.5066
  145MOL   H32246690   4.760   3.931   5.648  0.5480 -2.2302  1.5927
  146MOL     C146691   6.419   7.171   7.279 -0.4132  0.2115  0.1862
  146MOL     C246692   6.545   7.079   7.277  0.6185  0.7379 -0.7162
  146MOL     O346693   6.493   6.950   7.303 -0.3475  0.1691 -0.1275
  146MOL     C446694   6.532   6.887   7.428 -0.0043 -0.1314  0.3896
  146MOL     C546695   6.485   6.743   7.418 -0.4513  0.5159  0.4491
  146MOL     C646696   6.485   6.969   7.552 -0.4960  0.3086  0.3584
  146MOL     H746697   6.365   7.188   7.373 -1.5396  1.1866 -0.6217
  146MOL     H846698   6.449   7.263   7.230  2.6638 -1.2349 -0.7686
  146MOL     H946699   6.615   7.101   7.358  1.3167 -0.8179 -0.8753
  146MOL    H1046700   6.640   6.881   7.440 -0.1452 -0.8289  1.3835
  146MOL    H1146701   6.532   6.691   7.334 -2.6941 -0.7049 -0.0685
  146MOL    H1246702   6.504   6.684   7.508  0.0767 -1.2548 -0.7920
  146MOL    H1346703   6.378   6.741   7.400 -0.4709 -0.3562  0.6319
  146MOL    H1446704   6.376   6.963   7.543 -0.4437 -2.2892  1.0294
  146MOL    H1546705   6.504   6.922   7.648 -0.1656  1.8768  1.0681
  146MOL    H1646706   6.517   7.072   7.561 -0.9551  0.6021 -1.2313
  146MOL    H1746707   6.341   7.127   7.217  1.2688  0.4088 -2.1345
  146MOL    C1846708   6.631   7.079   7.153 -0.4570 -0.0435  0.5540
  146MOL    C1946709   6.748   6.980   7.143 -0.3611 -0.3713  0.2112
  146MOL    O2046710   6.844   7.055   7.222 -0.3484  0.1236  0.1215
  146MOL    C2146711   6.921   6.980   7.316  0.6226  0.7156 -0.0792
  146MOL    C2246712   6.985   7.079   7.414  0.2786 -0.1210  0.2757
  146MOL    C2346713   7.018   6.876   7.252 -0.2095  0.3591  0.0986
  146MOL    H2446714   6.567   7.035   7.077  0.7374 -0.0258 -0.4696
  146MOL    H2546715   6.650   7.181   7.120 -1.6127 -0.2776 -0.8633
  146MOL    H2646716   6.734   6.877   7.175  0.4111 -1.3925 -2.6222
  146MOL    H2746717   6.842   6.923   7.364  0.9289  0.0590 -0.3538
  146MOL    H2846718   7.030   7.042   7.506  0.0701 -1.6016 -0.1939
  146MOL    H2946719   7.063   7.133   7.360 -0.9771 -0.9694 -2.5174
  146MOL    H3046720   6.916   7.151   7.457 -0.8400  0.2143 -1.9911
  146MOL    H3146721   7.098   6.931   7.202 -1.0175  0.2671 -1.3353
  146MOL    H3246722   6.966   6.816   7.177 -0.1843  0.7395 -0.2313
  146MOL    H3346723   7.070   6.815   7.325  1.2585  0.5702 -0.7450
  146MOL    C3446724   6.798   6.975   6.992 -0.4668  0.0197 -0.3167
  146MOL    C3546725   6.773   6.847   6.909 -0.1086  0.3174  0.2422
  146MOL    O3646726   6.642   6.830   6.876 -0.3346  0.1027  0.1595
  146MOL    C3746727   6.562   6.754   6.963  0.4409  0.0181  0.1822
  146MOL    C3846728   6.415   6.788   6.936  0.1363  1.1576 -0.2646
  146MOL    C3946729   6.596   6.606   6.949 -0.7884 -0.0721  0.4872
  146MOL    H4046730   6.906   6.989   6.998 -0.2299 -1.8156 -0.2333
  146MOL    H4146731   6.754   7.060   6.941 -2.5011 -0.9703 -0.2581
  146MOL    H4246732   6.817   6.764   6.964 -3.6132 -2.5724 -1.1213
  146MOL    H4346733   6.575   6.781   7.068  1.5396  2.7420 -0.6251
  146MOL    H4446734   6.355   6.735   7.011 -1.2856  2.3033 -0.5845
  146MOL    H4546735   6.375   6.745   6.845 -2.5780  3.0312 -0.0047
  146MOL    H4646736   6.379   6.890   6.945 -1.5247  0.3682  2.9516
  146MOL    H4746737   6.576   6.567   6.849  1.9180 -3.2986  1.1313
  146MOL    H4846738   6.704   6.595   6.955 -0.8610 -0.1657  1.5645
  146MOL    H4946739   6.553   6.540   7.023  1.6009 -3.3773 -0.9608
  146MOL    C5046740   6.842   6.862   6.773 -0.0739 -0.2035  0.1594
  146MOL    C5146741   6.865   6.731   6.694  0.1758  0.1867 -0.0816
  146MOL    O5246742   6.997   6.696   6.736  0.9138  0.2564  0.2525
  146MOL    C5346743   7.044   6.568   6.712 -0.5087  0.3240  0.7643
  146MOL    C5446744   7.109   6.539   6.845 -0.2890 -0.3278  0.5865
  146MOL    C5546745   7.141   6.553   6.595  0.3447 -0.2609  0.2358
  146MOL    H5646746   6.780   6.932   6.717 -0.1754 -1.7006 -1.6609
  146MOL    H5746747   6.931   6.921   6.794 -0.5294  0.9601 -1.1236
  146MOL    H5846748   6.792   6.660   6.733  1.6324 -0.1953  2.0536
  146MOL    H5946749   6.955   6.505   6.701 -1.7041  2.0702  0.0713
  146MOL    H6046750   7.188   6.614   6.855 -0.1257 -0.5733  1.1110
  146MOL    H6146751   7.157   6.443   6.863 -1.4195 -1.5454 -2.4800
  146MOL    H6246752   7.031   6.554   6.920  1.0864  1.0605  1.7788
  146MOL    H6346753   7.202   6.465   6.616 -0.0621 -0.4513  0.6377
  146MOL    H6446754   7.208   6.639   6.590  1.6014 -1.2078  0.5097
  146MOL    H6546755   7.096   6.539   6.497 -3.3899  2.2821  1.4979
  146MOL    C6646756   6.853   6.761   6.546 -0.0344 -0.6977  0.5873
  146MOL    C6746757   6.737   6.838   6.470 -0.3766  0.8962  0.6123
  146MOL    O6846758   6.622   6.759   6.468 -0.3678  0.0831  0.2133
  146MOL    C6946759   6.532   6.765   6.573  0.1683 -0.3285  0.2592
  146MOL    C7046760   6.451   6.894   6.551  0.7058 -0.1607 -0.1570
  146MOL    C7146761   6.431   6.648   6.558  0.1990 -0.2718 -0.0604
  146MOL    H7246762   6.946   6.815   6.528 -0.1346 -0.7637 -0.1604
  146MOL    H7346763   6.863   6.664   6.496 -1.9660  0.6433 -2.5334
  146MOL    H7446764   6.722   6.933   6.521  0.1328  0.7353  1.0671
  146MOL    H7546765   6.581   6.767   6.671  0.8996 -1.1759 -0.0826
  146MOL    H7646766   6.504   6.987   6.567  2.8129 -1.1895 -1.0296
  146MOL    H7746767   6.406   6.890   6.451 -0.2180 -0.7998  0.2786
  146MOL    H7846768   6.363   6.891   6.615  0.0495 -1.9536 -1.1128
  146MOL    H7946769   6.412   6.607   6.459 -0.1254 -1.0991  0.3373
  146MOL    H8046770   6.335   6.669   6.606 -1.1183 -2.0618 -1.8414
  146MOL    H8146771   6.485   6.565   6.604 -0.5691 -0.9146 -0.3035
  146MOL    C8246772   6.773   6.858   6.319 -0.1334 -0.5744  0.1019
  146MOL    C8346773   6.830   7.004   6.302 -0.4633  0.5129 -0.0287
  146MOL    O8446774   6.948   7.003   6.370 -1.0800 -0.0097  0.5043
  146MOL    C8546775   7.042   7.104   6.370  0.4456  1.1294 -0.6334
  146MOL    C8646776   7.181   7.051   6.338 -0.5963 -0.3478 -0.3741
  146MOL    C8746777   7.043   7.164   6.512  0.6250 -0.7108 -0.1108
  146MOL    H8846778   6.847   6.788   6.278 -0.3514 -0.5490 -0.3423
  146MOL    H8946779   6.691   6.840   6.249 -0.5347 -0.1218  0.4610
  146MOL    H9046780   6.762   7.076   6.346  0.3587 -0.1663  2.4064
  146MOL    H9146781   7.025   7.185   6.299 -1.0977 -0.0852 -1.6822
  146MOL    H9246782   7.181   6.979   6.256  0.5783 -0.7763 -0.0039
  146MOL    H9346783   7.252   7.127   6.305 -0.5164 -1.0804 -1.9476
  146MOL    H9446784   7.226   7.004   6.425 -0.1497 -0.1050 -0.4715
  146MOL    H9546785   6.948   7.212   6.535  0.3210 -1.5973  0.5391
  146MOL    H9646786   7.054   7.089   6.590 -1.1605  0.0205  0.8872
  146MOL    H9746787   7.116   7.244   6.523  0.3037 -0.2285 -1.3683
  146MOL    C9846788   6.854   7.036   6.152  0.4458  0.4203 -0.4597
  146MOL    C9946789   6.723   7.045   6.065 -0.5745 -0.3018 -0.3120
  146MOL   O10046790   6.754   7.076   5.928  0.5828 -0.1483  0.3633
  146MOL   C10146791   6.837   6.991   5.849  0.4611  0.7705  0.0680
  146MOL   C10246792   6.829   7.062   5.711  0.1023  0.7442 -0.0738
  146MOL   C10346793   6.793   6.852   5.852 -0.5782  0.1089  0.0269
  146MOL   H10446794   6.911   7.123   6.118 -1.6258  1.2262 -2.0184
  146MOL   H10546795   6.897   6.944   6.115 -3.2730 -1.1885 -1.0368
  146MOL   H10646796   6.670   6.950   6.067 -0.5183 -0.3013  1.7549
  146MOL   H10746797   6.941   6.998   5.882  1.0637 -1.4860 -1.3021
  146MOL   H10846798   6.893   7.018   5.635 -0.2177  0.3136 -0.0946
  146MOL   H10946799   6.850   7.169   5.718  1.7830  0.5028 -1.1886
  146MOL   H11046800   6.726   7.050   5.678 -0.5142 -2.3150  2.6856
  146MOL   H11146801   6.688   6.833   5.829 -0.8506  0.4189  0.9953
  146MOL   H11246802   6.808   6.803   5.948 -0.7349  4.3056  2.3285
  146MOL   H11346803   6.855   6.804   5.777 -3.3357 -1.0501 -1.5628
  146MOL   C11446804   6.632   7.162   6.112 -0.4499  0.1114  0.3636
  146MOL   C11546805   6.487   7.146   6.063 -0.4777  0.6022  0.2907
  146MOL   O11646806   6.439   7.036   6.138 -0.2428  0.2082 -0.1944
  146MOL   C11746807   6.346   6.962   6.072  0.3807  0.7406 -0.3114
  146MOL   C11846808   6.268   6.881   6.180 -0.3365 -0.3012 -0.9208
  146MOL   C11946809   6.399   6.860   5.962  0.2979 -0.6801 -0.6293
  146MOL   H12046810   6.674   7.257   6.079  0.0718 -0.1061  0.3962
  146MOL   H12146811   6.621   7.166   6.220 -1.6416  0.6768  0.2279
  146MOL   H12246812   6.490   7.119   5.957  3.3219 -1.7036  0.8867
  146MOL   H12346813   6.273   7.022   6.018  0.8928 -0.3680 -2.2968
  146MOL   H12446814   6.329   6.805   6.229 -2.9399 -1.6312  0.4412
  146MOL   H12546815   6.173   6.842   6.144 -0.2624 -0.3563 -1.0541
  146MOL   H12646816   6.242   6.943   6.267 -0.2657 -1.4511 -0.0651
  146MOL   H12746817   6.324   6.782   5.946 -0.2755  0.0497 -1.5681
  146MOL   H12846818   6.493   6.820   6.000  1.2079  2.6352  0.7382
  146MOL   H12946819   6.403   6.911   5.866  0.2622 -2.6464 -1.7022
  146MOL   C13046820   6.402   7.269   6.088  0.2177  0.6721  0.2795
  146MOL   C13146821   6.407   7.382   5.974  0.4775 -1.1098  0.2337
  146MOL   O13246822   6.338   7.486   6.034 -0.4381  0.0795  0.4746
  146MOL   C13346823   6.414   7.603   6.043 -0.4798  0.3899  0.3864
  146MOL   C13446824   6.324   7.723   6.071  0.2997 -0.4317 -0.3100
  146MOL   C13546825   6.529   7.584   6.147  0.0508 -0.3471 -0.8172
  146MOL   H13646826   6.442   7.326   6.172  1.6691  0.1059 -0.0167
  146MOL   H13746827   6.303   7.242   6.123 -1.2397  3.7216 -1.2742
  146MOL   H13846828   6.509   7.409   5.949  0.6053 -3.1225 -1.5353
  146MOL   H13946829   6.452   7.625   5.943  0.8204 -2.5383  0.2090
  146MOL   H14046830   6.228   7.723   6.018  1.1010  1.2712 -1.8247
  146MOL   H14146831   6.384   7.807   6.035  0.5584  0.0657  1.2468
  146MOL   H14246832   6.297   7.729   6.177 -0.0356  0.5048 -0.4394
  146MOL   H14346833   6.601   7.504   6.126  0.4110 -0.2357 -0.0577
  146MOL   H14446834   6.585   7.677   6.139 -2.1051  1.2246  1.5770
  146MOL   H14546835   6.494   7.563   6.248  1.1947  2.4368  0.1860
  146MOL   C14646836   6.335   7.343   5.841  0.2256  0.0160 -0.6710
  146MOL   C14746837   6.337   7.441   5.722 -0.2374  0.0440 -0.3571
  146MOL   O14846838   6.467   7.440   5.661  0.5871 -0.1899  0.0120
  146MOL   C14946839   6.536   7.568   5.627  0.1047 -0.5320 -0.5220
  146MOL   C15046840   6.569   7.567   5.480 -0.2867  0.0010  0.3159
  146MOL   C15146841   6.666   7.559   5.707  0.2732  0.4471 -0.4634
  146MOL   H15246842   6.232   7.326   5.871  0.6962  0.3880  1.2170
  146MOL   H15346843   6.368   7.245   5.807  0.3232  0.3262 -1.4819
  146MOL   H15446844   6.321   7.547   5.744 -0.4481  0.0677 -0.6273
  146MOL   H15546845   6.480   7.661   5.639  0.5161 -0.1201 -1.6392
  146MOL   H15646846   6.479   7.586   5.422  0.1525 -1.5940 -0.9051
  146MOL   H15746847   6.596   7.466   5.452  0.2613  0.1230  0.4009
  146MOL   H15846848   6.636   7.648   5.453 -0.2939  0.3845  1.3966
  146MOL   H15946849   6.714   7.463   5.690 -1.3372 -0.4011 -0.2652
  146MOL   H16046850   6.647   7.568   5.814  0.3670 -1.0541 -0.3133
  146MOL   H16146851   6.731   7.640   5.672  0.7362  0.3073  0.0526
  146MOL   C16246852   6.243   7.404   5.615 -0.4931  0.1185  0.1359
  146MOL   C16346853   6.091   7.427   5.630  0.1429  0.1490 -0.0887
  146MOL   O16446854   6.058   7.560   5.652  0.3604 -0.2121  0.4195
  146MOL   C16546855   6.032   7.603   5.787  0.3295  0.4011  0.2047
  146MOL   C16646856   5.885   7.601   5.828 -0.4424  0.3529 -0.3413
  146MOL   C16746857   6.091   7.745   5.789  0.2448  0.8913  0.2700
  146MOL   H16846858   6.271   7.457   5.524 -1.6395 -1.3148 -1.0854
  146MOL   H16946859   6.254   7.300   5.583 -0.9428 -0.1168  0.7554
  146MOL   H17046860   6.062   7.364   5.714 -1.2865 -0.3354 -0.9309
  146MOL   H17146861   6.093   7.555   5.863 -1.0650 -0.1240  1.0243
  146MOL   H17246862   5.848   7.499   5.837  0.8227 -0.1876 -1.1190
  146MOL   H17346863   5.833   7.655   5.749 -0.7599 -2.0409 -1.8003
  146MOL   H17446864   5.871   7.662   5.918 -0.7078  0.1846 -0.2672
  146MOL   H17546865   6.198   7.757   5.774 -0.0920  2.4730 -0.9829
  146MOL   H17646866   6.076   7.788   5.888 -1.5752 -0.7108  0.7215
  146MOL   H17746867   6.043   7.797   5.706  0.5328  0.5671 -0.1069
  146MOL   C17846868   5.996   7.370   5.520  0.5932  0.1682  0.0965
  146MOL   C17946869   5.993   7.212   5.507  0.9041  0.4035 -0.2247
  146MOL   O18046870   5.957   7.153   5.636 -0.2757  0.5325  0.3235
  146MOL   C18146871   6.052   7.103   5.723 -0.5081  0.1782 -0.2250
  146MOL   C18246872   6.090   6.958   5.682  0.0899  0.0099 -0.0514
  146MOL   C18346873   5.998   7.112   5.868  0.3446  0.0196 -0.4719
  146MOL   H18446874   6.025   7.417   5.426  1.2786 -0.9500 -0.2665
  146MOL   H18546875   5.897   7.402   5.551 -0.5342 -3.3350  0.3596
  146MOL   H18646876   6.086   7.160   5.483  1.3340  0.0704  2.0756
  146MOL   H18746877   6.143   7.161   5.724 -0.3181 -0.0806 -1.5777
  146MOL   H18846878   6.110   6.950   5.575 -1.6141 -0.2583 -0.3699
  146MOL   H18946879   6.002   6.895   5.694 -0.8863  1.4058  0.2594
  146MOL   H19046880   6.168   6.915   5.744 -0.0516 -1.8708 -1.1260
  146MOL   H19146881   5.893   7.084   5.875  0.2003  0.4841 -0.7168
  146MOL   H19246882   5.984   7.216   5.899  2.9121  0.1145  0.4195
  146MOL   H19346883   6.056   7.065   5.947 -1.5711 -0.5491  0.6290
  146MOL   C19446884   5.891   7.162   5.399 -0.0869 -0.7114  0.0394
  146MOL   C19546885   5.944   7.182   5.254  0.0750 -0.1582  0.5738
  146MOL   O19646886   5.841   7.224   5.174  0.3429  0.4063 -0.5541
  146MOL   C19746887   5.792   7.363   5.191  0.8183 -0.2594  0.1588
  146MOL   C19846888   5.873   7.441   5.083 -0.8877  0.4128  0.1385
  146MOL   C19946889   5.642   7.383   5.165 -0.4010 -0.2996  0.3014
  146MOL   H20046890   5.857   7.059   5.406  0.9308 -1.2978 -3.1352
  146MOL   H20146891   5.797   7.212   5.424  1.1338  1.1328  1.0217
  146MOL   H20246892   6.022   7.258   5.249  1.1336 -1.2997 -0.7077
  146MOL   H20346893   5.821   7.409   5.286  0.1264 -1.4280  0.9646
  146MOL   H20446894   5.839   7.545   5.077  1.8465  1.3647  0.6428
  146MOL   H20546895   5.978   7.442   5.112 -0.7950 -1.6526 -0.0731
  146MOL   H20646896   5.861   7.387   4.989 -1.4457  0.3806  0.2250
  146MOL   H20746897   5.630   7.357   5.060  1.8126 -0.7805  0.1331
  146MOL   H20846898   5.590   7.322   5.239  1.2296 -0.8388  1.0292
  146MOL   H20946899   5.619   7.489   5.177 -1.8592 -0.7955  2.1500
  146MOL   C21046900   5.995   7.051   5.184 -0.6314  0.2915 -0.4094
  146MOL   C21146901   6.133   6.985   5.228 -0.4184 -0.3436  0.2529
  146MOL   O21246902   6.152   6.861   5.160 -0.1732  0.0152 -0.1085
  146MOL   C21346903   6.113   6.745   5.231  0.3872  0.5672 -0.6176
  146MOL   C21446904   6.081   6.641   5.132 -0.4195  0.2744  0.0384
  146MOL   C21546905   6.236   6.700   5.306  0.4415 -0.2353  0.1673
  146MOL   H21646906   5.994   7.084   5.080 -2.0898  0.5136 -0.3455
  146MOL   H21746907   5.918   6.975   5.198  0.0123 -0.1917  0.5748
  146MOL   H21846908   6.122   6.963   5.334 -0.3747  0.2171  0.3719
  146MOL   H21946909   6.035   6.756   5.306  2.6528  3.4148  1.4508
  146MOL   H22046910   6.166   6.641   5.063 -0.8849  0.9006 -0.5401
  146MOL   H22146911   5.991   6.662   5.074 -0.6139  0.1478  0.2965
  146MOL   H22246912   6.073   6.546   5.185  1.4588 -0.0290 -0.1894
  146MOL   H22346913   6.324   6.692   5.244  0.2527  0.7693 -0.2385
  146MOL   H22446914   6.211   6.597   5.334 -1.0958  0.1957  0.4647
  146MOL   H22546915   6.250   6.753   5.400 -0.4037  1.0751 -0.4285
  146MOL   C22646916   6.233   7.084   5.191 -0.0761 -0.4153 -0.2224
  146MOL   C22746917   6.382   7.051   5.230 -0.4432 -0.3662 -0.4716
  146MOL   O22846918   6.402   7.094   5.367  0.3645  0.0138  0.1580
  146MOL   C22946919   6.525   7.044   5.429  0.3419  0.4632 -0.0559
  146MOL   C23046920   6.482   6.963   5.554 -0.4482 -0.0121 -0.4506
  146MOL   C23146921   6.598   7.166   5.470  0.3118  0.4825 -0.3050
  146MOL   H23246922   6.218   7.174   5.250  0.3363 -1.1676  1.0412
  146MOL   H23346923   6.223   7.102   5.084  1.0665  2.2105  0.0799
  146MOL   H23446924   6.400   6.944   5.219  2.3824  0.0336 -0.1412
  146MOL   H23546925   6.593   6.988   5.364 -1.3175 -1.3066 -0.3081
  146MOL   H23646926   6.417   6.879   5.529  0.3433 -2.1408  4.1045
  146MOL   H23746927   6.566   6.925   5.612  0.6000  0.7878 -1.4408
  146MOL   H23846928   6.428   7.028   5.623 -1.7983 -1.7420  0.1665
  146MOL   H23946929   6.701   7.150   5.503  0.2486  2.1062  0.7204
  146MOL   H24046930   6.545   7.234   5.537 -0.4942  2.0820 -2.5127
  146MOL   H24146931   6.619   7.226   5.382  0.0207  1.3353  0.1988
  146MOL   C24246932   6.488   7.134   5.146  0.2639  0.4403 -0.3235
  146MOL   C24346933   6.485   7.110   4.995 -0.1094 -0.2494 -0.5478
  146MOL   O24446934   6.546   6.978   4.990  0.4539  0.3996  0.0380
  146MOL   C24546935   6.503   6.909   4.874 -0.1014 -0.1838  0.3775
  146MOL   C24646936   6.614   6.905   4.767 -0.0874  0.2775  0.3065
  146MOL   C24746937   6.457   6.768   4.929 -0.3562 -0.5028 -0.0361
  146MOL   H24846938   6.461   7.234   5.178  2.0697  1.4744 -1.9529
  146MOL   H24946939   6.591   7.121   5.179  1.0490  4.5600 -0.8753
  146MOL   H25046940   6.381   7.105   4.962 -0.1461  0.0623 -0.4836
  146MOL   H25146941   6.418   6.950   4.819  1.5980 -0.2806 -2.4214
  146MOL   H25246942   6.647   7.004   4.736  1.4050 -0.1110  0.5986
  146MOL   H25346943   6.707   6.880   4.818  0.2652  1.4287  0.2546
  146MOL   H25446944   6.605   6.828   4.691  1.1853 -0.1879  0.6087
  146MOL   H25546945   6.386   6.773   5.011  0.7548  1.0493  0.8704
  146MOL   H25646946   6.421   6.706   4.847 -1.5579 -0.1062  0.1849
  146MOL   H25746947   6.550   6.729   4.970  0.1315 -1.5925 -2.1245
  146MOL   C25846948   6.560   7.219   4.919  0.0247  0.5541 -0.8265
  146MOL   C25946949   6.538   7.366   4.966 -0.6279  0.4911  0.3208
  146MOL   O26046950   6.399   7.380   4.947 -0.0054 -0.0969  0.8290
  146MOL   C26146951   6.339   7.490   5.028 -0.3283  0.4192 -0.6505
  146MOL   C26246952   6.212   7.543   4.957  0.3408 -0.3221  0.1740
  146MOL   C26346953   6.312   7.448   5.173 -0.0675  0.8404  0.4041
  146MOL   H26446954   6.665   7.189   4.921  0.3148  1.3538 -2.4925
  146MOL   H26546955   6.535   7.191   4.816  3.1910 -0.3747 -1.4056
  146MOL   H26646956   6.562   7.389   5.069  1.1834 -2.2546  0.5748
  146MOL   H26746957   6.400   7.580   5.032 -0.0354  0.2722 -1.6406
  146MOL   H26846958   6.230   7.567   4.852 -0.1591 -1.1017 -0.0888
  146MOL   H26946959   6.164   7.620   5.017  2.7510  0.9772  0.4998
  146MOL   H27046960   6.136   7.467   4.939  0.0038  0.5242 -2.3147
  146MOL   H27146961   6.254   7.521   5.231 -1.4835 -0.3595  0.5200
  146MOL   H27246962   6.242   7.364   5.175 -0.0672  0.7538 -2.1513
  146MOL   H27346963   6.400   7.426   5.233 -0.7413 -1.8361  0.4630
  146MOL   C27446964   6.608   7.463   4.867 -0.2135 -0.5433  0.3427
  146MOL   C27546965   6.721   7.545   4.940  0.2659  0.2710 -0.0160
  146MOL   O27646966   6.814   7.450   4.988 -0.1366  0.3709  0.0644
  146MOL   C27746967   6.854   7.472   5.124  0.3948  0.5200  0.1268
  146MOL   C27846968   6.996   7.519   5.119 -0.5358 -0.4989 -0.4963
  146MOL   C27946969   6.845   7.343   5.203  0.2228 -0.2655 -0.5472
  146MOL   H28046970   6.669   7.398   4.804 -0.1797  0.7548 -1.0051
  146MOL   H28146971   6.527   7.524   4.827  1.5248  2.6382  1.5363
  146MOL   H28246972   6.683   7.602   5.025 -1.5709  0.4014 -0.8935
  146MOL   H28346973   6.793   7.548   5.174 -0.4060  1.0369 -1.5917
  146MOL   H28446974   7.034   7.531   5.221 -0.8197  3.5503 -0.7656
  146MOL   H28546975   7.058   7.440   5.079  0.8478 -0.4777  1.4998
  146MOL   H28646976   7.007   7.615   5.067 -2.0467 -0.6042 -1.0355
  146MOL   H28746977   6.878   7.337   5.306  0.1919 -2.8422 -0.6556
  146MOL   H28846978   6.917   7.277   5.154 -1.9912 -1.5948 -2.1175
  146MOL   H28946979   6.746   7.297   5.205  0.1594 -0.0631  1.8525
  146MOL   C29046980   6.798   7.646   4.845  0.1258  0.3629 -0.1931
  146MOL   C29146981   6.755   7.793   4.854  0.8645  0.2659  0.6422
  146MOL   O29246982   6.745   0.010   4.994  0.3948 -0.3750 -0.0946
  146MOL   C29346983   6.639   0.099   5.024  0.0002  0.3565  0.1549
  146MOL   C29446984   6.679   0.172   5.144 -0.1511 -0.9389 -0.5125
  146MOL   C29546985   6.524   0.011   5.063 -0.0862 -0.4076  0.2937
  146MOL   H29646986   6.792   7.618   4.740  3.0880 -0.2548 -0.2588
  146MOL   H29746987   6.902   7.638   4.876 -0.1767 -2.9749  0.1076
  146MOL   H29846988   6.655   7.788   4.811  1.0877  0.5317  0.0900
  146MOL   H29946989   6.623   0.166   4.939  0.6746 -0.3538 -0.5428
  146MOL   H30046990   6.768   0.234   5.128  0.9113 -2.9390 -2.5875
  146MOL   H30146991   6.596   0.233   5.179 -0.2121 -0.5460 -1.3296
  146MOL   H30246992   6.703   0.112   5.232 -0.7711 -0.1432  0.2162
  146MOL   H30346993   6.451   0.056   5.131 -0.0245 -1.1468  0.8567
  146MOL   H30446994   6.464   7.799   4.978 -0.7632 -2.5570  1.5336
  146MOL   H30546995   6.553   7.742   5.118 -0.0062 -0.4832  0.1282
  146MOL   C30646996   6.845   0.070   4.767 -0.5425 -0.2968 -1.0026
  146MOL   C30746997   6.796   0.074   4.626 -0.3820 -0.3771  0.2887
  146MOL   O30846998   6.900   0.113   4.543 -0.5477 -0.5273 -0.7450
  146MOL   C30946999   6.863   0.143   4.405 -0.0340  0.3633  0.5295
  146MOL   C31047000   6.952   0.265   4.363 -0.5045  0.7642 -0.2224
  146MOL   C31147001   6.892   0.018   4.321  0.0038 -0.0365  0.0294
  146MOL   H31247002   6.950   0.040   4.775 -0.2359  0.2977 -2.7573
  146MOL   H31347003   6.842   0.169   4.812 -1.1352 -0.3905 -0.8251
  146MOL   H31447004   6.765   7.796   4.591  2.5619 -0.8498 -1.1151
  146MOL   H31547005   6.758   0.173   4.405 -0.5652 -1.4161 -0.6176
  146MOL   H31647006   6.948   0.279   4.255 -0.2263  0.1917 -0.3125
  146MOL   H31747007   7.053   0.252   4.400 -0.3596  0.0906 -0.8311
  146MOL   H31847008   6.924   0.355   4.418 -0.8404  0.7190 -0.3186
  146MOL   H31947009   6.997   7.812   4.315 -0.4245 -2.4332  2.2917
  146MOL   H32047010   6.862   0.048   4.221  0.7806  2.8708  0.6447
  146MOL   H32147011   6.854   7.739   4.345  0.1322  0.0475  0.5764
  146MOL   H32247012   6.712   0.143   4.615 -1.1821 -0.6876  3.8383
  147MOL     C147013   3.983   1.659   2.592  0.5136 -0.0883  0.5418
  147MOL     C247014   3.967   1.512   2.543 -0.1973  0.1929 -0.5396
  147MOL     O347015   3.903   1.526   2.415  0.2009  0.5045 -0.2530
  147MOL     C447016   3.768   1.502   2.409  0.2371  0.6099  0.0398
  147MOL     C547017   3.731   1.350   2.416 -0.0179 -0.1761 -0.3176
  147MOL     C647018   3.724   1.561   2.278 -0.4195 -0.0968 -0.4961
  147MOL     H747019   3.891   1.717   2.603  0.6767  0.7060 -1.8873
  147MOL     H847020   4.021   1.657   2.694  1.9268 -1.6641  0.0122
  147MOL     H947021   3.897   1.455   2.604  2.1369 -2.7973 -0.5639
  147MOL    H1047022   3.717   1.558   2.488 -0.4626  1.9266 -1.3057
  147MOL    H1147023   3.772   1.314   2.511 -1.7462  1.1627  0.9658
  147MOL    H1247024   3.623   1.339   2.423  0.1329 -1.7849 -0.4566
  147MOL    H1347025   3.760   1.287   2.332  0.8630 -1.2572  0.7867
  147MOL    H1447026   3.774   1.516   2.192 -1.3088  0.5087 -1.3358
  147MOL    H1547027   3.617   1.546   2.266 -0.3586 -0.6455 -0.3873
  147MOL    H1647028   3.745   1.668   2.272  1.3642 -0.4128 -0.2948
  147MOL    H1747029   4.051   1.711   2.524  0.2152  0.1038  0.3888
  147MOL    C1847030   4.102   1.428   2.531  0.4316 -0.5076  0.4217
  147MOL    C1947031   4.088   1.277   2.532  0.4662  0.4211 -0.0973
  147MOL    O2047032   4.221   1.228   2.566  0.6687 -0.1236 -0.5134
  147MOL    C2147033   4.260   1.223   2.702  0.3407 -0.2861  0.5547
  147MOL    C2247034   4.372   1.325   2.725 -0.4285 -0.5852 -0.0430
  147MOL    C2347035   4.297   1.076   2.726 -0.7198  0.3051 -0.2866
  147MOL    H2447036   4.167   1.463   2.451  1.4534  0.4451  1.6532
  147MOL    H2547037   4.147   1.460   2.625 -1.1620  0.3872  0.8983
  147MOL    H2647038   4.028   1.246   2.617  1.6531 -2.0822 -0.1179
  147MOL    H2747039   4.176   1.244   2.768  0.8563 -0.6606  1.3552
  147MOL    H2847040   4.343   1.428   2.744  0.3084 -0.6422  1.4253
  147MOL    H2947041   4.439   1.303   2.808  1.3778  0.5054 -1.1785
  147MOL    H3047042   4.437   1.323   2.637  2.6090  0.3756  2.1061
  147MOL    H3147043   4.357   1.047   2.813 -2.8097 -3.0630  0.1470
  147MOL    H3247044   4.361   1.041   2.645  0.1627  0.9543  0.1272
  147MOL    H3347045   4.215   1.005   2.724 -0.3406 -0.2893  2.6734
  147MOL    C3447046   4.045   1.216   2.398  0.3533 -0.1441 -0.0045
  147MOL    C3547047   4.000   1.065   2.396  0.2877 -0.1702  0.1717
  147MOL    O3647048   3.927   1.049   2.514 -0.3759 -0.2293  0.2347
  147MOL    C3747049   3.922   0.922   2.569  0.0929 -0.0158 -0.5722
  147MOL    C3847050   3.918   0.933   2.724  0.2232  0.3199  0.5742
  147MOL    C3947051   3.802   0.842   2.531 -0.1256  0.6512  0.2311
  147MOL    H4047052   4.125   1.225   2.325 -0.0992 -2.8014 -0.8917
  147MOL    H4147053   3.973   1.285   2.354 -0.0219  0.8473  2.1123
  147MOL    H4247054   4.090   1.004   2.401  1.2900  1.2227 -0.5476
  147MOL    H4347055   4.018   0.879   2.542  0.6490  2.2895 -2.5033
  147MOL    H4447056   3.829   0.986   2.758 -0.8277 -0.6731 -0.6075
  147MOL    H4547057   4.003   0.988   2.765 -0.4343  2.6495 -1.0732
  147MOL    H4647058   3.917   0.831   2.762 -0.5832  0.1604  0.1406
  147MOL    H4747059   3.808   0.738   2.564 -2.0445  0.7648  0.9873
  147MOL    H4847060   3.712   0.876   2.582 -2.2607 -0.9345 -2.3280
  147MOL    H4947061   3.793   0.837   2.423  1.4182  2.0620  0.0244
  147MOL    C5047062   3.923   1.024   2.262 -0.7895 -0.5936 -0.0824
  147MOL    C5147063   3.967   0.880   2.209  0.3578 -0.0201  0.2011
  147MOL    O5247064   4.101   0.906   2.144  0.3934 -0.1534 -0.0692
  147MOL    C5347065   4.200   0.806   2.176  0.0031  0.8007 -0.1296
  147MOL    C5447066   4.272   0.837   2.306 -0.0555 -0.4542 -0.1774
  147MOL    C5547067   4.292   0.810   2.055 -0.0216 -0.0465  0.2466
  147MOL    H5647068   3.814   1.016   2.265 -0.8509  0.6349  1.1835
  147MOL    H5747069   3.938   1.101   2.185  2.2588  0.1659  1.2281
  147MOL    H5847070   3.978   0.816   2.297  0.3853  0.4785  0.5608
  147MOL    H5947071   4.148   0.711   2.189  0.0295  0.8036 -0.0015
  147MOL    H6047072   4.209   0.830   2.396  0.4810  0.6557  0.2908
  147MOL    H6147073   4.305   0.941   2.308 -1.1341 -0.1008 -0.3293
  147MOL    H6247074   4.341   0.753   2.317  0.7626 -0.1359 -2.7191
  147MOL    H6347075   4.359   0.725   2.045  1.0278  0.9130 -1.0476
  147MOL    H6447076   4.330   0.912   2.047 -1.3993  0.5917  1.4286
  147MOL    H6547077   4.232   0.795   1.964 -0.9745 -1.8097  1.1403
  147MOL    C6647078   3.867   0.822   2.110 -0.5328  0.0319  0.5385
  147MOL    C6747079   3.880   0.667   2.097 -0.7614 -0.1842 -0.0289
  147MOL    O6847080   3.782   0.623   2.006 -0.1074  0.3131 -0.3557
  147MOL    C6947081   3.828   0.582   1.880 -0.3440  0.0351 -0.0479
  147MOL    C7047082   3.696   0.535   1.813  0.3002 -0.3373 -0.0465
  147MOL    C7147083   3.896   0.693   1.801 -0.0870 -0.4113 -0.3179
  147MOL    H7247084   3.761   0.843   2.124 -0.3508  0.9217  0.5789
  147MOL    H7347085   3.894   0.859   2.011  0.1323 -0.6582  0.4529
  147MOL    H7447086   3.983   0.648   2.071 -1.3906 -1.3169 -1.7500
  147MOL    H7547087   3.908   0.509   1.892  0.0200  0.3538 -0.5112
  147MOL    H7647088   3.718   0.508   1.709  1.4788 -2.2041  0.6616
  147MOL    H7747089   3.652   0.443   1.849  0.8666 -2.2132 -3.8621
  147MOL    H7847090   3.630   0.621   1.820 -2.4199 -2.3624 -0.0852
  147MOL    H7947091   3.996   0.704   1.843  0.3559 -1.5985 -1.0286
  147MOL    H8047092   3.843   0.788   1.804 -2.8513 -1.8309 -1.9013
  147MOL    H8147093   3.915   0.680   1.694  3.7722 -0.7134  0.3411
  147MOL    C8247094   3.854   0.584   2.223  0.0837  0.0035 -0.5894
  147MOL    C8347095   3.921   0.441   2.225 -0.7797  0.2259  0.8204
  147MOL    O8447096   4.057   0.469   2.242  0.0772  0.2385  0.3055
  147MOL    C8547097   4.152   0.375   2.183  1.0287 -0.1515 -0.2194
  147MOL    C8647098   4.270   0.370   2.272 -0.1060  0.4096 -0.5935
  147MOL    C8747099   4.188   0.415   2.040  0.4021 -0.2179 -0.5677
  147MOL    H8847100   3.880   0.636   2.315 -1.3603 -2.7858  1.4527
  147MOL    H8947101   3.747   0.563   2.213 -0.4930  2.6147 -0.3013
  147MOL    H9047102   3.910   0.388   2.131 -0.0449  1.3166  0.1089
  147MOL    H9147103   4.119   0.271   2.180 -1.1072  0.4545  1.2974
  147MOL    H9247104   4.346   0.302   2.232 -0.9206 -0.3643 -0.8340
  147MOL    H9347105   4.314   0.467   2.293 -2.4446  0.8785  2.3831
  147MOL    H9447106   4.256   0.326   2.370  0.2094 -0.8898 -1.1180
  147MOL    H9547107   4.217   0.520   2.048 -0.3129 -0.1147  0.8337
  147MOL    H9647108   4.268   0.359   1.993 -1.5966 -1.5459 -2.4812
  147MOL    H9747109   4.104   0.400   1.972 -1.4354  0.9779  1.3479
  147MOL    C9847110   3.871   0.366   2.352  0.1960  0.4755  0.3839
  147MOL    C9947111   3.872   0.211   2.337  0.3122  0.4850 -0.2372
  147MOL   O10047112   3.794   0.172   2.224  0.7328  0.0072  0.4282
  147MOL   C10147113   3.834   0.051   2.163  0.0483  0.0967  0.1070
  147MOL   C10247114   3.904   0.092   2.027  0.1942 -0.0597 -0.0435
  147MOL   C10347115   3.713   7.780   2.143  0.3108 -0.0182  0.0577
  147MOL   H10447116   3.938   0.401   2.431  1.6316 -1.2040 -0.0390
  147MOL   H10547117   3.771   0.403   2.373 -0.1468  0.6455 -1.4202
  147MOL   H10647118   3.976   0.184   2.315  0.7652  1.8997  0.1444
  147MOL   H10747119   3.893   7.802   2.222  0.4192 -0.0740 -0.4549
  147MOL   H10847120   3.992   0.154   2.041  1.0552 -1.6669  1.8939
  147MOL   H10947121   3.839   0.143   1.955  2.0010 -0.8166 -2.2824
  147MOL   H11047122   3.936   0.014   1.958  0.7700 -1.4405  1.7519
  147MOL   H11147123   3.677   7.761   2.244  1.4245  1.0837  0.6750
  147MOL   H11247124   3.742   7.679   2.113  0.1624 -0.3344  0.9510
  147MOL   H11347125   3.634   7.807   2.073  2.4840  0.0869 -2.4355
  147MOL   C11447126   3.816   0.136   2.463  0.1074  0.3078  0.7351
  147MOL   C11547127   3.880   0.167   2.608 -0.2667  0.1437 -0.1381
  147MOL   O11647128   3.813   0.091   2.709 -1.3596 -0.2731 -0.1374
  147MOL   C11747129   3.694   0.148   2.766 -0.1019 -0.6555  0.2578
  147MOL   C11847130   3.722   0.232   2.889  0.5875  0.1319 -0.1430
  147MOL   C11947131   3.605   0.031   2.817  0.5813  0.3496  0.5307
  147MOL   H12047132   3.829   0.030   2.442  1.0492  0.5739 -0.0592
  147MOL   H12147133   3.709   0.156   2.469  0.6185  2.8105  2.1678
  147MOL   H12247134   3.885   0.271   2.643 -0.1537 -0.5380  1.9444
  147MOL   H12347135   3.639   0.207   2.693  0.0799 -0.3274  0.3866
  147MOL   H12447136   3.765   0.323   2.847 -1.5720  1.0226 -0.4812
  147MOL   H12547137   3.796   0.182   2.951  0.0223 -0.5665 -0.0252
  147MOL   H12647138   3.630   0.257   2.941  1.7416 -1.0285  2.5408
  147MOL   H12747139   3.505   0.063   2.844  0.9018  0.6610  1.3765
  147MOL   H12847140   3.652   7.797   2.900  2.7729  2.7112  0.8893
  147MOL   H12947141   3.600   7.785   2.731 -2.4175  1.0002  0.1686
  147MOL   C13047142   4.031   0.130   2.605  0.6433 -0.0735 -0.0257
  147MOL   C13147143   4.113   0.198   2.712  0.4570 -0.2841  0.6273
  147MOL   O13247144   4.118   0.330   2.668 -0.1441  0.2786  0.1425
  147MOL   C13347145   4.134   0.434   2.764 -0.1615 -0.0834  0.1850
  147MOL   C13447146   4.174   0.561   2.692  0.2820  0.1360  0.4753
  147MOL   C13547147   4.011   0.457   2.851 -0.0358 -1.1358 -0.3918
  147MOL   H13647148   4.073   0.163   2.510 -0.1316  0.1310 -0.3006
  147MOL   H13747149   4.039   0.022   2.613  1.4827  0.0138  0.3419
  147MOL   H13847150   4.067   0.183   2.810 -0.0634  0.9135  0.5715
  147MOL   H13947151   4.211   0.408   2.836 -0.0370  0.1515  0.1389
  147MOL   H14047152   4.093   0.589   2.625  0.4396 -1.6080 -0.4728
  147MOL   H14147153   4.261   0.544   2.628 -0.0637  2.4841 -0.6951
  147MOL   H14247154   4.201   0.647   2.753  0.2758 -0.3257  1.1260
  147MOL   H14347155   3.995   0.378   2.925  0.2825 -0.5808  0.2824
  147MOL   H14447156   4.033   0.545   2.911 -2.1168 -0.2422 -0.9191
  147MOL   H14547157   3.916   0.476   2.802 -0.0717 -1.3529 -0.4067
  147MOL   C14647158   4.257   0.149   2.717 -0.6556 -0.0556 -0.3937
  147MOL   C14747159   4.284   0.021   2.809  0.6791  0.2322  0.2088
  147MOL   O14847160   4.186   7.741   2.778 -0.0052 -0.1542  0.5758
  147MOL   C14947161   4.132   7.655   2.879  0.0053  0.5100 -0.1445
  147MOL   C15047162   4.184   7.514   2.837  0.6521  0.5245  0.3049
  147MOL   C15147163   3.980   7.673   2.868  0.2272 -0.1030  0.0646
  147MOL   H15247164   4.324   0.228   2.752 -0.0134  0.1053 -1.9215
  147MOL   H15347165   4.292   0.140   2.614  0.6645  1.5864 -0.1143
  147MOL   H15447166   4.261   0.035   2.914 -1.5713 -0.1525 -0.2011
  147MOL   H15547167   4.159   7.674   2.983 -0.7708 -0.7325  0.3019
  147MOL   H15647168   4.126   7.444   2.898 -0.8498  1.8104  0.4054
  147MOL   H15747169   4.292   7.502   2.847  0.9603  1.4460 -1.6602
  147MOL   H15847170   4.157   7.496   2.733  1.5147 -2.4730  0.5407
  147MOL   H15947171   3.938   7.643   2.772  2.0693 -0.9268 -0.5108
  147MOL   H16047172   3.967   7.781   2.876  2.7864  0.2650 -0.0341
  147MOL   H16147173   3.913   7.625   2.939 -0.1828  0.9146  0.3756
  147MOL   C16247174   4.421   7.778   2.780 -0.1139  0.4484 -0.0473
  147MOL   C16347175   4.541   0.035   2.828 -0.4594 -0.7473 -0.0525
  147MOL   O16447176   4.534   0.019   2.972 -0.2633  0.6008  0.3150
  147MOL   C16547177   4.588   0.132   3.046 -0.4503 -0.6953 -0.1375
  147MOL   C16647178   4.648   0.096   3.179  0.3869  0.0513 -0.5806
  147MOL   C16747179   4.478   0.240   3.074 -0.4027  0.1307  0.0064
  147MOL   H16847180   4.420   7.686   2.839 -1.8878  0.1815 -0.4535
  147MOL   H16947181   4.428   7.743   2.677  1.4689 -0.9472  0.5114
  147MOL   H17047182   4.535   0.138   2.795  1.8039 -0.7286 -0.5254
  147MOL   H17147183   4.665   0.179   2.984 -0.3054 -2.3878 -1.2678
  147MOL   H17247184   4.727   0.021   3.180 -0.2303 -0.6230  2.3626
  147MOL   H17347185   4.566   0.073   3.247  1.6758 -1.3822  0.5238
  147MOL   H17447186   4.689   0.185   3.227  1.8272 -1.3981  0.9617
  147MOL   H17547187   4.420   0.277   2.989 -0.5838  0.4730  0.2802
  147MOL   H17647188   4.510   0.328   3.129 -1.7962  0.6096  0.0690
  147MOL   H17747189   4.406   0.187   3.137  1.2481 -1.1025  0.8824
  147MOL   C17847190   4.678   7.811   2.773  0.1039 -0.4003  0.0543
  147MOL   C17947191   4.693   0.016   2.621  0.1069  0.5402 -1.1252
  147MOL   O18047192   4.765   0.137   2.607  0.3175  0.2783 -0.4172
  147MOL   C18147193   4.710   0.221   2.503 -0.0594  0.1404  0.1624
  147MOL   C18247194   4.832   0.289   2.438  0.9106  0.3708  0.0639
  147MOL   C18347195   4.617   0.321   2.576  0.0322 -0.3940  0.5819
  147MOL   H18447196   4.694   7.706   2.798 -0.9900 -0.4964  0.3919
  147MOL   H18547197   4.765   0.041   2.814 -0.9623  1.4484  0.1243
  147MOL   H18647198   4.596   0.022   2.571 -0.4470 -2.1531 -0.4723
  147MOL   H18747199   4.653   0.161   2.432  0.2956 -2.1648  1.7764
  147MOL   H18847200   4.888   0.231   2.365 -1.7002 -1.2423 -0.7325
  147MOL   H18947201   4.886   0.319   2.527  0.5667  3.5088 -0.7180
  147MOL   H19047202   4.805   0.377   2.379 -2.9566 -0.7129  0.0616
  147MOL   H19147203   4.652   0.355   2.673  1.1429  2.0223 -0.6056
  147MOL   H19247204   4.524   0.268   2.593 -1.0009  1.1867 -0.0336
  147MOL   H19347205   4.593   0.411   2.520  2.4736 -0.2133 -0.2477
  147MOL   C19447206   4.776   7.724   2.562 -0.5224  0.1058 -0.0833
  147MOL   C19547207   4.691   7.601   2.532 -0.1343 -0.0476  0.2288
  147MOL   O19647208   4.773   7.487   2.501 -0.3045  0.2600 -0.4448
  147MOL   C19747209   4.820   7.405   2.605  0.1716  0.0471 -0.7788
  147MOL   C19847210   4.718   7.296   2.636  0.7918 -0.0321  0.2495
  147MOL   C19947211   4.965   7.361   2.572 -0.2150 -0.6104  0.6131
  147MOL   H20047212   4.817   7.761   2.468 -0.2623 -1.9303 -0.8024
  147MOL   H20147213   4.861   7.708   2.628 -1.4281  0.5474  1.2012
  147MOL   H20247214   4.622   7.577   2.613 -0.6333  0.2366 -0.1084
  147MOL   H20347215   4.830   7.468   2.693  1.3708 -2.5742  1.0335
  147MOL   H20447216   4.711   7.241   2.542  1.9975 -2.2454  1.4004
  147MOL   H20547217   4.757   7.231   2.714 -0.0828  0.4749  1.1205
  147MOL   H20647218   4.620   7.325   2.673  0.8156 -0.7784  0.9038
  147MOL   H20747219   5.029   7.443   2.540  1.8571 -2.2296  0.5073
  147MOL   H20847220   5.005   7.312   2.660 -1.5092 -0.0103  1.5446
  147MOL   H20947221   4.972   7.289   2.490  0.7893 -0.8356  0.8935
  147MOL   C21047222   4.595   7.627   2.413 -0.1056 -0.2539 -0.4058
  147MOL   C21147223   4.490   7.517   2.379 -0.0520  0.6015 -0.1782
  147MOL   O21247224   4.377   7.584   2.324 -0.5296 -0.3412  0.0314
  147MOL   C21347225   4.284   7.642   2.416  0.4689  0.5895  0.7155
  147MOL   C21447226   4.228   7.773   2.352 -0.2160 -0.2099 -0.1553
  147MOL   C21547227   4.170   7.539   2.447  0.0600  0.6280 -0.2924
  147MOL   H21647228   4.653   7.627   2.321  0.6356  0.0375  0.0606
  147MOL   H21747229   4.539   7.720   2.419 -1.7893 -1.2923  0.4127
  147MOL   H21847230   4.445   7.475   2.469  0.5745  0.3357  0.0157
  147MOL   H21947231   4.319   7.677   2.513 -1.5633  1.0049  1.3290
  147MOL   H22047232   4.298   0.036   2.359  1.1316 -1.0643 -2.8557
  147MOL   H22147233   4.144   7.792   2.418 -0.3553 -0.4354 -0.2686
  147MOL   H22247234   4.206   7.751   2.248 -0.0910  0.1761 -0.2661
  147MOL   H22347235   4.200   7.450   2.503 -0.8698 -0.2590 -1.2042
  147MOL   H22447236   4.136   7.508   2.349  0.4784 -0.2652 -0.1565
  147MOL   H22547237   4.095   7.589   2.509 -0.0117 -1.1917  1.1412
  147MOL   C22647238   4.549   7.398   2.294 -0.2351 -1.0060  0.1224
  147MOL   C22747239   4.450   7.301   2.240  0.2010  0.2339 -0.5467
  147MOL   O22847240   4.483   7.177   2.298 -0.2742 -0.0256  0.3691
  147MOL   C22947241   4.462   7.151   2.436  0.2835 -0.4464  0.6686
  147MOL   C23047242   4.557   7.034   2.465  0.0107 -0.6118 -0.9346
  147MOL   C23147243   4.313   7.119   2.453 -0.5710  0.4117 -0.3913
  147MOL   H23247244   4.629   7.347   2.347 -1.0784 -0.8723  1.5633
  147MOL   H23347245   4.604   7.443   2.211  0.4699  2.2061  2.2750
  147MOL   H23447246   4.356   7.339   2.279 -0.4869 -1.8006 -0.1375
  147MOL   H23547247   4.480   7.242   2.494 -0.4193 -0.0857  0.3298
  147MOL   H23647248   4.553   7.007   2.570  0.1374  1.9288 -0.2565
  147MOL   H23747249   4.525   6.951   2.401 -1.4170 -1.0984  0.3870
  147MOL   H23847250   4.659   7.059   2.434 -0.1596  1.5916  0.2029
  147MOL   H23947251   4.255   7.211   2.447 -0.8483  0.2046 -1.0238
  147MOL   H24047252   4.297   7.083   2.554 -0.9714  2.0476  0.1342
  147MOL   H24147253   4.282   7.039   2.386 -0.0349  1.0988 -1.4747
  147MOL   C24247254   4.464   7.292   2.085  0.0611  0.2751 -0.9583
  147MOL   C24347255   4.357   7.200   2.019  0.0643  0.4494  0.4518
  147MOL   O24447256   4.393   7.192   1.878  0.4185 -0.4767  0.2912
  147MOL   C24547257   4.473   7.083   1.829 -0.0804 -0.1704 -0.5855
  147MOL   C24647258   4.386   6.953   1.806  0.4700 -0.3716 -0.3032
  147MOL   C24747259   4.553   7.135   1.710 -0.0879  0.6122  0.5004
  147MOL   H24847260   4.480   7.383   2.027 -1.2298  0.8791 -0.3998
  147MOL   H24947261   4.562   7.245   2.077 -0.1353 -0.5273  0.9837
  147MOL   H25047262   4.346   7.103   2.066 -0.3024  1.0112  1.5276
  147MOL   H25147263   4.544   7.052   1.905  2.1925  1.3492 -2.0193
  147MOL   H25247264   4.366   6.912   1.905  1.6159 -0.3197 -0.0334
  147MOL   H25347265   4.294   6.975   1.752 -0.0821 -0.7721  0.4718
  147MOL   H25447266   4.437   6.877   1.747  1.1835 -0.7680  0.8087
  147MOL   H25547267   4.613   7.215   1.753  0.1465  1.8261 -1.9838
  147MOL   H25647268   4.608   7.055   1.661  1.1703  3.0292 -2.1635
  147MOL   H25747269   4.501   7.188   1.630  1.0174 -0.1082 -0.7111
  147MOL   C25847270   4.217   7.263   2.030  0.0807 -0.9012  0.2898
  147MOL   C25947271   4.106   7.196   1.945 -0.2370 -0.6542  0.3816
  147MOL   O26047272   3.997   7.283   1.928  0.1762  0.6250 -0.1311
  147MOL   C26147273   3.973   7.327   1.799  0.0146 -0.7599  0.3778
  147MOL   C26247274   3.826   7.371   1.785  0.2832  0.7050  0.5723
  147MOL   C26347275   4.061   7.442   1.760 -0.1748 -0.4256 -0.0628
  147MOL   H26447276   4.184   7.261   2.134 -0.2338 -0.8400  0.1934
  147MOL   H26547277   4.229   7.368   2.002 -0.2586 -0.9381 -0.0041
  147MOL   H26647278   4.152   7.174   1.849  2.2261  1.3380  1.0464
  147MOL   H26747279   3.999   7.246   1.731  0.4374 -0.9542  0.7776
  147MOL   H26847280   3.809   7.429   1.694 -1.4887 -0.1515  0.3370
  147MOL   H26947281   3.808   7.438   1.869 -3.0825 -1.6718  1.8590
  147MOL   H27047282   3.758   7.286   1.790  1.1495  0.0537  1.2475
  147MOL   H27147283   4.074   7.519   1.836  0.0403 -0.2512 -0.2769
  147MOL   H27247284   4.163   7.405   1.746  0.0457  0.6927 -1.5443
  147MOL   H27347285   4.041   7.475   1.658  3.2548  2.0385 -0.0380
  147MOL   C27447286   4.052   7.056   1.983 -0.5341  0.4513 -0.0234
  147MOL   C27547287   3.946   6.994   1.889 -0.5113 -0.7524 -0.6075
  147MOL   O27647288   4.024   6.936   1.789  0.7537 -0.2139  0.3183
  147MOL   C27747289   3.959   6.888   1.674 -0.2953 -0.0692 -0.0318
  147MOL   C27847290   4.062   6.811   1.591  0.2379  0.7741 -0.2170
  147MOL   C27947291   3.883   6.997   1.589 -0.4274  0.2686 -0.5060
  147MOL   H28047292   4.139   6.992   1.993 -0.5594  0.6264  1.5380
  147MOL   H28147293   4.004   7.059   2.081  1.0007 -1.5205  0.8201
  147MOL   H28247294   3.884   7.073   1.847 -0.9855 -0.3113  0.8715
  147MOL   H28347295   3.884   6.814   1.702  0.5755 -0.9104  0.0944
  147MOL   H28447296   4.124   6.881   1.535  1.0921 -1.7343 -2.5065
  147MOL   H28547297   4.107   6.740   1.661 -1.1609  0.4590  0.3941
  147MOL   H28647298   4.018   6.746   1.516  0.9088  0.6779 -0.5269
  147MOL   H28747299   3.952   7.075   1.556 -1.0575  2.5204  3.1939
  147MOL   H28847300   3.810   7.039   1.658 -1.0452 -1.5685 -0.0219
  147MOL   H28947301   3.833   6.948   1.505 -2.1021  0.5551  0.3018
  147MOL   C29047302   3.860   6.885   1.959 -0.6330 -0.1782 -0.2927
  147MOL   C29147303   3.769   6.935   2.081  0.3238 -0.2926 -0.0856
  147MOL   O29247304   3.634   6.885   2.062  0.0561  0.9715  0.0617
  147MOL   C29347305   3.535   6.980   2.030  0.3338 -0.3588  0.5103
  147MOL   C29447306   3.400   6.912   2.022 -0.5530  0.5784  0.1666
  147MOL   C29547307   3.573   7.072   1.910 -0.3501  0.0332 -0.1145
  147MOL   H29647308   3.934   6.814   1.997 -0.7503 -0.5983 -0.8384
  147MOL   H29747309   3.793   6.842   1.884 -1.3900  2.4807 -1.1792
  147MOL   H29847310   3.759   7.043   2.094 -2.8893 -0.9224  3.5204
  147MOL   H29947311   3.527   7.046   2.116  1.9540  0.0046  0.3888
  147MOL   H30047312   3.393   6.849   1.934  1.0532 -2.0188  1.8327
  147MOL   H30147313   3.403   6.849   2.111 -0.8986 -0.2893 -0.4262
  147MOL   H30247314   3.321   6.986   2.025 -0.5391  0.5999 -0.0368
  147MOL   H30347315   3.620   7.008   1.835 -1.8460 -1.5363  0.2315
  147MOL   H30447316   3.490   7.127   1.865  0.3886 -0.4279 -2.0684
  147MOL   H30547317   3.639   7.153   1.940 -0.2972 -0.7794  2.0969
  147MOL   C30647318   3.825   6.888   2.217 -0.1218 -0.1268 -0.4539
  147MOL   C30747319   3.773   6.971   2.334  1.1014 -0.4244 -0.3910
  147MOL   O30847320   3.803   6.906   2.453 -0.5638 -0.1636  0.4112
  147MOL   C30947321   3.784   6.974   2.570  0.0117 -0.6928 -0.6624
  147MOL   C31047322   3.637   6.990   2.606  0.1395 -0.0339  0.5462
  147MOL   C31147323   3.863   6.901   2.676 -0.3455 -0.0844  0.3782
  147MOL   H31247324   3.932   6.908   2.217 -0.0640 -0.3874 -1.3284
  147MOL   H31347325   3.805   6.781   2.225  0.8051 -0.5891 -3.4779
  147MOL   H31447326   3.827   7.065   2.325 -0.5020  0.6348  0.7340
  147MOL   H31547327   3.837   7.068   2.555  1.4612 -1.7085 -2.1569
  147MOL   H31647328   3.587   7.084   2.581  2.7690  0.8276 -1.7083
  147MOL   H31747329   3.637   6.972   2.714  0.3908  3.5355  1.2032
  147MOL   H31847330   3.577   6.907   2.570  0.3601 -0.3638  0.9352
  147MOL   H31947331   3.962   6.873   2.639  0.7037  0.8940  2.4181
  147MOL   H32047332   3.819   6.806   2.708  1.7846 -0.5007  2.2117
  147MOL   H32147333   3.871   6.976   2.754 -0.5530 -0.1395  0.4534
  147MOL   H32247334   3.665   6.987   2.329  0.7036 -2.4112  1.2216
  148MOL     C147335   3.241   2.712   7.015 -0.5891  0.1412 -0.6748
  148MOL     C247336   3.303   2.576   6.980  0.4537  0.5260 -0.6586
  148MOL     O347337   3.438   2.575   6.943  0.5870 -0.1673  0.5253
  148MOL     C447338   3.469   2.574   6.802 -0.0304  0.2039 -0.4804
  148MOL     C547339   3.617   2.542   6.793  0.0020 -0.0044  0.1769
  148MOL     C647340   3.440   2.705   6.733  0.3545  0.4420 -0.4836
  148MOL     H747341   3.299   2.754   7.098  0.7518 -0.1960 -1.4149
  148MOL     H847342   3.230   2.782   6.933 -0.9352  0.5577 -0.2777
  148MOL     H947343   3.245   2.523   6.905  1.0379 -2.7098  1.0842
  148MOL    H1047344   3.421   2.486   6.760 -0.0730  0.2304 -0.4880
  148MOL    H1147345   3.648   2.444   6.832 -0.3091  0.7434  2.3720
  148MOL    H1247346   3.645   2.548   6.688 -0.3357  1.3634  0.1643
  148MOL    H1347347   3.680   2.618   6.840  1.1534 -0.2803 -0.8929
  148MOL    H1447348   3.339   2.698   6.692 -0.8058 -0.5201  2.4139
  148MOL    H1547349   3.443   2.790   6.802 -0.6684 -0.4679  0.7050
  148MOL    H1647350   3.511   2.715   6.651  0.0669 -1.2260 -0.9455
  148MOL    H1747351   3.140   2.709   7.054 -0.7340  0.3724 -1.0424
  148MOL    C1847352   3.320   2.491   7.099 -0.0985  0.1681 -0.6376
  148MOL    C1947353   3.365   2.341   7.085 -0.5739 -0.2220 -0.1477
  148MOL    O2047354   3.265   2.251   7.038 -0.2450  0.0873 -0.0372
  148MOL    C2147355   3.231   2.243   6.901 -0.2282 -0.4047  0.2113
  148MOL    C2247356   3.096   2.168   6.894  0.1819  0.4111 -0.1440
  148MOL    C2347357   3.337   2.173   6.816 -0.1509 -0.4844  0.8181
  148MOL    H2447358   3.395   2.550   7.153  0.3270  0.0611 -1.1046
  148MOL    H2547359   3.228   2.486   7.157  1.4302  0.2007  1.8464
  148MOL    H2647360   3.444   2.342   7.011 -0.6877 -0.2935 -0.2683
  148MOL    H2747361   3.208   2.333   6.843  1.3443 -0.8484 -1.1293
  148MOL    H2847362   3.078   2.098   6.975 -1.3731  1.4109  0.3976
  148MOL    H2947363   3.009   2.234   6.882 -0.6972 -0.3464  1.9229
  148MOL    H3047364   3.085   2.101   6.809  1.8874 -1.3473  0.9974
  148MOL    H3147365   3.400   2.109   6.877  0.9322  0.1204  0.3545
  148MOL    H3247366   3.413   2.243   6.781  1.2119 -1.9156  0.8596
  148MOL    H3347367   3.295   2.117   6.733  1.1929 -0.6847  0.2639
  148MOL    C3447368   3.421   2.284   7.222 -1.2758 -0.1457 -0.4592
  148MOL    C3547369   3.494   2.146   7.202  0.2518 -0.5318  0.7453
  148MOL    O3647370   3.623   2.196   7.157  0.6193  0.2091 -0.2778
  148MOL    C3747371   3.709   2.101   7.086 -0.0409 -0.2940  0.2551
  148MOL    C3847372   3.714   2.163   6.943  0.1745  0.0086 -0.1500
  148MOL    C3947373   3.847   2.084   7.147  0.4531 -0.3412 -0.9827
  148MOL    H4047374   3.338   2.284   7.292  1.2805  0.6519  2.6624
  148MOL    H4147375   3.496   2.351   7.263 -2.0082  1.1185 -1.1449
  148MOL    H4247376   3.449   2.077   7.131 -1.8385 -0.1543  1.6492
  148MOL    H4347377   3.659   2.005   7.076 -0.4520 -0.0830  0.2912
  148MOL    H4447378   3.746   2.267   6.953 -1.1080  0.2627  1.5772
  148MOL    H4547379   3.612   2.175   6.906 -0.0359  0.1070  0.4464
  148MOL    H4647380   3.769   2.115   6.863 -0.2951 -0.6695 -0.0734
  148MOL    H4747381   3.840   2.067   7.255  0.7941  1.0566 -0.7321
  148MOL    H4847382   3.895   1.993   7.111  0.2133 -1.1692  0.7034
  148MOL    H4947383   3.898   2.180   7.146 -0.7474  0.3214 -0.3768
  148MOL    C5047384   3.507   2.073   7.336 -1.1463  0.9498  0.0910
  148MOL    C5147385   3.406   1.964   7.371  0.0800  0.0065  0.5901
  148MOL    O5247386   3.419   1.848   7.283  0.0156 -0.3510  0.1710
  148MOL    C5347387   3.507   1.750   7.328 -0.1212 -0.5128 -0.3415
  148MOL    C5447388   3.643   1.741   7.250 -0.4920  0.4261  0.1087
  148MOL    C5547389   3.418   1.628   7.331 -0.6210  0.5063  0.6527
  148MOL    H5647390   3.604   2.025   7.339 -0.5759  2.1659  1.5584
  148MOL    H5747391   3.510   2.143   7.419  4.0276  0.9155  0.0695
  148MOL    H5847392   3.426   1.929   7.472  0.8892  0.3782  0.5644
  148MOL    H5947393   3.540   1.764   7.430  1.4143 -0.2619 -0.8655
  148MOL    H6047394   3.703   1.663   7.297 -1.6138 -0.1246  0.6432
  148MOL    H6147395   3.694   1.837   7.261 -0.9930  0.5091  1.8013
  148MOL    H6247396   3.628   1.738   7.142 -0.4711 -1.8783  0.1581
  148MOL    H6347397   3.354   1.632   7.242 -0.6167 -0.4190  0.6044
  148MOL    H6447398   3.354   1.641   7.418 -0.0032  3.3847  0.7170
  148MOL    H6547399   3.467   1.531   7.341 -2.5276 -0.8956 -2.4140
  148MOL    C6647400   3.262   2.017   7.365  0.2657  0.7504 -0.0539
  148MOL    C6747401   3.148   1.922   7.410  0.2966  0.1715  0.4559
  148MOL    O6847402   3.021   1.974   7.370  0.0043 -0.4137  0.5193
  148MOL    C6947403   2.975   1.935   7.241  0.5242 -0.0143  0.1436
  148MOL    C7047404   2.893   1.809   7.249  0.1466  0.3349 -0.1788
  148MOL    C7147405   2.883   2.047   7.193  0.5562 -0.1272  0.1972
  148MOL    H7247406   3.253   2.114   7.413  4.6109  0.6842  1.1484
  148MOL    H7347407   3.257   2.036   7.257 -0.3887 -0.7665 -0.3091
  148MOL    H7447408   3.171   1.826   7.363  1.7361  0.7426 -0.0540
  148MOL    H7547409   3.053   1.918   7.167  1.7435  1.2771  1.1012
  148MOL    H7647410   2.958   1.721   7.254 -0.2848  0.1116  1.5023
  148MOL    H7747411   2.833   1.808   7.339  3.1810 -0.9955  1.9378
  148MOL    H7847412   2.823   1.790   7.167  0.9736 -1.0541 -0.5955
  148MOL    H7947413   2.933   2.144   7.201  0.5832 -0.3220  2.9795
  148MOL    H8047414   2.788   2.056   7.245 -0.1170 -2.3134 -0.6134
  148MOL    H8147415   2.863   2.043   7.086 -2.1155  0.0580  0.6736
  148MOL    C8247416   3.138   1.918   7.570  1.0742 -0.3784  0.3469
  148MOL    C8347417   3.080   1.781   7.611 -0.6035 -0.2832  1.0887
  148MOL    O8447418   3.187   1.691   7.600 -0.0825 -0.0761 -0.0260
  148MOL    C8547419   3.152   1.560   7.601 -0.5637  0.5481  0.0291
  148MOL    C8647420   3.271   1.479   7.634 -0.3730 -0.4725 -0.8476
  148MOL    C8747421   3.093   1.507   7.465  0.3655 -0.5140 -0.5215
  148MOL    H8847422   3.236   1.935   7.614  1.2831 -2.7517  0.8262
  148MOL    H8947423   3.067   1.998   7.591 -0.1999 -1.4932  0.3637
  148MOL    H9047424   2.992   1.757   7.553 -1.8733 -0.5917  3.0731
  148MOL    H9147425   3.076   1.538   7.676 -0.4300  1.2462  0.3773
  148MOL    H9247426   3.243   1.378   7.666  0.7964 -0.6709 -0.4497
  148MOL    H9347427   3.346   1.465   7.556 -2.1615 -2.4635 -2.2762
  148MOL    H9447428   3.324   1.524   7.717  1.1462 -2.3695 -0.7513
  148MOL    H9547429   3.055   1.407   7.487  1.0583 -0.1372  2.6351
  148MOL    H9647430   3.036   1.573   7.399  0.1445  2.5278  2.5625
  148MOL    H9747431   3.177   1.474   7.403 -0.2619 -0.4071 -1.4458
  148MOL    C9847432   3.041   1.786   7.760 -0.4150 -0.1447 -0.0114
  148MOL    C9947433   2.915   1.713   7.802  0.2259 -0.0518 -0.6843
  148MOL   O10047434   2.796   1.770   7.751  0.1013  0.0007 -0.3421
  148MOL   C10147435   2.733   1.714   7.639 -0.0760 -0.4821 -0.0552
  148MOL   C10247436   2.637   1.816   7.579 -0.0920  1.0677  0.5031
  148MOL   C10347437   2.670   1.583   7.680 -0.0033 -0.4012  0.2100
  148MOL   H10447438   3.128   1.767   0.001 -0.8466  1.0705  0.9866
  148MOL   H10547439   3.024   1.888   7.795  1.5707  0.2172 -0.0781
  148MOL   H10647440   2.921   1.609   7.769  1.9616  0.4727 -2.0779
  148MOL   H10747441   2.802   1.682   7.562  0.9089 -0.3115  0.7461
  148MOL   H10847442   2.560   1.781   7.510  1.5119 -1.5782 -0.0295
  148MOL   H10947443   2.704   1.881   7.523  0.4633  0.5036  0.4974
  148MOL   H11047444   2.595   1.870   7.664  1.3689  1.6265  0.8831
  148MOL   H11147445   2.607   1.563   7.593  0.3698 -0.4701 -0.0451
  148MOL   H11247446   2.627   1.588   7.780 -0.8118 -1.7952 -0.0563
  148MOL   H11347447   2.738   1.498   7.684  2.8647  1.8373  0.7497
  148MOL   C11447448   2.890   1.701   0.135  0.1115 -0.0188 -0.1142
  148MOL   C11547449   2.975   1.599   0.207  0.7688  0.0346 -0.8373
  148MOL   O11647450   3.031   1.656   0.321  0.6857  0.6220  0.0769
  148MOL   C11747451   3.159   1.708   0.300  0.3926 -1.0059 -0.2251
  148MOL   C11847452   3.254   1.587   0.328 -0.6351  0.6926 -0.3429
  148MOL   C11947453   3.176   1.823   0.394 -0.1748  0.5313  0.1524
  148MOL   H12047454   2.785   1.684   0.155 -0.2594  1.6047 -0.5841
  148MOL   H12147455   2.914   1.800   0.174  1.1898  0.3174 -1.5761
  148MOL   H12247456   3.062   1.564   0.151  0.4955 -0.6409 -0.8315
  148MOL   H12347457   3.179   1.733   0.196  0.2186  1.3853  0.2940
  148MOL   H12447458   3.358   1.598   0.299 -0.5429  1.5566  0.3223
  148MOL   H12547459   3.226   1.492   0.282 -0.5993  0.8623 -0.7097
  148MOL   H12647460   3.262   1.560   0.434  0.2696 -0.1398 -0.6133
  148MOL   H12747461   3.092   1.891   0.380  0.0225  1.0925  1.6340
  148MOL   H12847462   3.264   1.885   0.376  1.9840 -2.2934  0.5111
  148MOL   H12947463   3.172   1.788   0.497  2.0891  2.1872  0.8617
  148MOL   C13047464   2.889   1.474   0.241 -0.3814  0.1543  0.3508
  148MOL   C13147465   2.957   1.356   0.317  0.2419  0.2934 -0.2928
  148MOL   O13247466   2.987   1.246   0.233 -0.4326 -0.1577  0.4267
  148MOL   C13347467   3.120   1.256   0.183 -0.1098 -0.0303  0.6011
  148MOL   C13447468   3.217   1.198   0.283  0.4535  1.0545  0.0543
  148MOL   C13547469   3.126   1.171   0.050 -0.5827  0.2410  0.2486
  148MOL   H13647470   2.829   1.443   0.155 -0.6531  0.6255  0.3715
  148MOL   H13747471   2.806   1.519   0.296 -1.3596 -1.0779 -0.0849
  148MOL   H13847472   3.044   1.400   0.366 -0.3834  0.2181  0.9051
  148MOL   H13947473   3.139   1.360   0.154 -3.1649  0.6174  0.7460
  148MOL   H14047474   3.320   1.225   0.261  1.4220 -1.6398  1.0477
  148MOL   H14147475   3.209   1.091   0.298  1.4304  0.8021 -1.2278
  148MOL   H14247476   3.201   1.231   0.386 -0.7684  0.4756  0.0620
  148MOL   H14347477   3.077   1.223   7.788  1.3993  2.3224  0.3266
  148MOL   H14447478   3.228   1.156   0.014 -0.6896 -2.1617  0.8776
  148MOL   H14547479   3.091   1.069   0.066 -0.9892  0.0494 -1.6914
  148MOL   C14647480   2.872   1.299   0.427  0.3142  1.1804  0.1817
  148MOL   C14747481   2.844   1.381   0.557 -0.1812  0.1819  0.5323
  148MOL   O14847482   2.746   1.475   0.527 -0.4952  0.0262  0.0546
  148MOL   C14947483   2.760   1.606   0.575  0.4534  0.4070  0.6937
  148MOL   C15047484   2.721   1.611   0.729  0.1457 -0.0764  0.2630
  148MOL   C15147485   2.686   1.704   0.479 -0.7701  0.1609  0.1201
  148MOL   H15247486   2.916   1.204   0.453  2.4519  2.2933  0.7313
  148MOL   H15347487   2.774   1.270   0.389  0.6433  1.5337 -0.9579
  148MOL   H15447488   2.930   1.441   0.588  0.6129  0.1549 -1.5422
  148MOL   H15547489   2.864   1.637   0.580  0.7807 -0.2196 -1.8357
  148MOL   H15647490   2.713   1.713   0.767  1.4063 -0.1770  0.8424
  148MOL   H15747491   2.796   1.574   0.799  0.3304  1.3804  0.8681
  148MOL   H15847492   2.620   1.572   0.744 -0.2770  0.7343 -0.4833
  148MOL   H15947493   2.691   1.806   0.518 -0.9748 -0.0999  0.8308
  148MOL   H16047494   2.581   1.678   0.469 -1.1779  1.4985  0.7251
  148MOL   H16147495   2.716   1.707   0.374  1.1446  1.6613  0.6772
  148MOL   C16247496   2.799   1.290   0.674  0.5305  0.2259 -0.4862
  148MOL   C16347497   2.919   1.228   0.749  0.7061 -0.0785  0.1638
  148MOL   O16447498   3.001   1.335   0.795 -0.8154  0.8088 -0.1764
  148MOL   C16547499   3.128   1.346   0.722  0.1193 -0.9768  0.2863
  148MOL   C16647500   3.228   1.248   0.779 -0.8479  0.0060 -0.1231
  148MOL   C16747501   3.181   1.494   0.727 -0.0365 -0.2916  0.3591
  148MOL   H16847502   2.733   1.335   0.748  0.5161 -1.2912  0.4575
  148MOL   H16947503   2.741   1.210   0.627 -1.8344  1.2523  0.5981
  148MOL   H17047504   2.980   1.166   0.684  0.9285  0.0202  0.2761
  148MOL   H17147505   3.106   1.334   0.616 -1.4892 -2.3529  0.7437
  148MOL   H17247506   3.330   1.271   0.749 -0.7722 -3.9477 -3.3150
  148MOL   H17347507   3.206   1.146   0.748  0.5791 -0.2207 -0.4043
  148MOL   H17447508   3.230   1.241   0.888 -1.3938 -1.8066 -0.2238
  148MOL   H17547509   3.280   1.503   0.682  1.2153 -0.6856  2.9442
  148MOL   H17647510   3.205   1.520   0.830 -0.0934  0.5514  0.1682
  148MOL   H17747511   3.106   1.558   0.679  1.1657 -0.3018 -1.6123
  148MOL   C17847512   2.876   1.135   0.872 -0.3520 -0.0627 -0.5287
  148MOL   C17947513   2.876   0.988   0.849  0.2304 -0.0718  0.2994
  148MOL   O18047514   2.803   0.953   0.737  0.1772 -0.0195  0.6113
  148MOL   C18147515   2.777   0.814   0.710  0.4924 -0.2574  0.0570
  148MOL   C18247516   2.838   0.783   0.568 -0.3046  0.1815  0.2250
  148MOL   C18347517   2.627   0.791   0.705  0.8020 -0.0306 -0.1387
  148MOL   H18447518   2.780   1.166   0.912 -0.8084 -2.1615  0.0428
  148MOL   H18547519   2.948   1.148   0.953  0.5242 -0.2259 -1.2740
  148MOL   H18647520   2.830   0.933   0.931 -1.6173  1.1059  0.0897
  148MOL   H18747521   2.823   0.750   0.785  1.5356  1.6347  1.0610
  148MOL   H18847522   2.827   0.678   0.543  0.0036  0.1416  0.2469
  148MOL   H18947523   2.945   0.806   0.567  0.4086 -2.7738  2.2872
  148MOL   H19047524   2.795   0.836   0.483 -2.1859 -1.0593  0.3840
  148MOL   H19147525   2.580   0.795   0.803  0.9764 -1.1861  0.0073
  148MOL   H19247526   2.600   0.692   0.667 -0.6408  0.6731 -0.9772
  148MOL   H19347527   2.579   0.868   0.646 -0.7497 -1.5092 -0.8449
  148MOL   C19447528   3.024   0.937   0.824 -0.0756  0.3008 -0.1444
  148MOL   C19547529   3.135   0.930   0.937 -0.5907 -0.3369 -0.4518
  148MOL   O19647530   3.220   0.817   0.898  0.1022 -0.1747  0.0380
  148MOL   C19747531   3.330   0.841   0.820  0.1389  0.1270 -0.2556
  148MOL   C19847532   3.431   0.923   0.900 -0.5617  0.7729  0.0606
  148MOL   C19947533   3.380   0.698   0.767  0.3622  0.4429  0.2022
  148MOL   H20047534   3.014   0.835   0.789 -1.6430 -0.0565  1.3150
  148MOL   H20147535   3.066   0.993   0.740  0.5442  2.3306  1.4620
  148MOL   H20247536   3.187   1.022   0.961  0.1297 -1.2997  1.7547
  148MOL   H20347537   3.298   0.898   0.732 -2.9164 -0.5685  0.3287
  148MOL   H20447538   3.401   1.027   0.913 -0.8047  0.6454  0.5246
  148MOL   H20547539   3.453   0.870   0.993 -0.7927  1.9872  0.8299
  148MOL   H20647540   3.526   0.918   0.846 -0.7630 -1.0485 -0.1512
  148MOL   H20747541   3.417   0.652   0.858 -1.3125 -0.1551  0.5953
  148MOL   H20847542   3.302   0.640   0.718 -0.4582  1.6622  0.0252
  148MOL   H20947543   3.467   0.700   0.702  0.2228  0.1701  0.0074
  148MOL   C21047544   3.075   0.887   1.074 -0.0654  0.0454 -0.8512
  148MOL   C21147545   3.183   0.874   1.182  0.6471  0.1386 -0.7506
  148MOL   O21247546   3.223   1.010   1.206  0.0577 -0.0900  0.3596
  148MOL   C21347547   3.328   1.046   1.296 -0.3974  0.8157  0.3957
  148MOL   C21447548   3.438   1.114   1.217 -0.2408  0.0867 -0.4077
  148MOL   C21547549   3.269   1.142   1.394 -0.4073  0.0917 -0.2139
  148MOL   H21647550   3.029   0.789   1.057 -1.1222 -0.0318  2.2521
  148MOL   H21747551   3.002   0.959   1.110  1.1457  0.3412  1.0599
  148MOL   H21847552   3.277   0.832   1.147  0.6293 -0.0871 -0.5254
  148MOL   H21947553   3.364   0.958   1.349 -0.5334 -0.6828 -1.9274
  148MOL   H22047554   3.513   1.052   1.168 -1.1925 -2.3225  1.0900
  148MOL   H22147555   3.489   1.176   1.291  0.7889  0.2756 -1.2587
  148MOL   H22247556   3.396   1.199   1.164 -0.6647 -0.0164 -0.2339
  148MOL   H22347557   3.168   1.109   1.419  0.1981 -1.2816  0.5294
  148MOL   H22447558   3.262   1.244   1.359  2.5298  0.1648 -0.6974
  148MOL   H22547559   3.336   1.135   1.480 -0.9230  1.2568  0.2863
  148MOL   C22647560   3.139   0.805   1.312  0.0096  0.5517  0.3776
  148MOL   C22747561   3.123   0.657   1.280  0.0797  0.3985  0.2914
  148MOL   O22847562   2.999   0.636   1.219 -0.4457  0.3279 -0.1919
  148MOL   C22947563   2.993   0.516   1.131  0.6122  0.8641  0.8966
  148MOL   C23047564   3.061   0.532   0.986  0.1248  0.1256  0.1866
  148MOL   C23147565   2.843   0.486   1.110  0.3847  0.2476  0.2767
  148MOL   H23247566   3.046   0.843   1.354  0.2553  1.5453  0.0384
  148MOL   H23347567   3.214   0.816   1.391  0.8068 -0.0975 -0.2887
  148MOL   H23447568   3.190   0.628   1.199 -1.3204 -2.2587  0.0165
  148MOL   H23547569   3.035   0.431   1.183 -0.7805  0.0439  0.7226
  148MOL   H23647570   3.079   0.429   0.957 -3.0119 -0.0333 -1.3591
  148MOL   H23747571   2.999   0.587   0.915  0.9616  0.8609  0.0046
  148MOL   H23847572   3.154   0.590   0.992  1.2757 -1.6106 -0.5207
  148MOL   H23947573   2.836   0.400   1.043  0.6171  0.9670 -0.6920
  148MOL   H24047574   2.775   0.566   1.082  1.4205  0.3445 -2.0751
  148MOL   H24147575   2.801   0.440   1.199 -2.0799  0.5397 -0.6785
  148MOL   C24247576   3.153   0.579   1.414 -0.1761  0.2813 -0.0403
  148MOL   C24347577   3.304   0.550   1.449 -0.2562  0.2214  0.1685
  148MOL   O24447578   3.354   0.463   1.344 -0.1803  0.1620 -0.4367
  148MOL   C24547579   3.449   0.526   1.257  0.6519  0.0329 -0.5442
  148MOL   C24647580   3.586   0.524   1.329  0.5005  0.2444 -0.1591
  148MOL   C24747581   3.445   0.442   1.135  0.2052 -1.0066  0.9598
  148MOL   H24847582   3.094   0.628   1.491 -0.7095  2.5078 -1.8182
  148MOL   H24947583   3.114   0.481   1.386  0.9157 -0.1140 -0.2128
  148MOL   H25047584   3.365   0.639   1.462  0.3220 -0.2440  0.7245
  148MOL   H25147585   3.416   0.625   1.224  1.4693  1.0843  1.7021
  148MOL   H25247586   3.608   0.422   1.363 -0.1693 -0.0533 -0.6097
  148MOL   H25347587   3.679   0.546   1.278  0.5765  0.0419 -0.1079
  148MOL   H25447588   3.591   0.588   1.417 -2.7418 -0.3534  0.5107
  148MOL   H25547589   3.438   0.335   1.152 -0.4883 -1.2369 -0.5984
  148MOL   H25647590   3.360   0.470   1.073  0.6866 -0.9379  0.3215
  148MOL   H25747591   3.534   0.458   1.073 -1.0578 -0.9831 -0.8895
  148MOL   C25847592   3.323   0.485   1.585 -0.5995  0.0505 -0.1340
  148MOL   C25947593   3.263   0.555   1.716 -0.5477  0.5598 -0.0720
  148MOL   O26047594   3.341   0.675   1.739 -0.9306  0.2276 -0.6367
  148MOL   C26147595   3.273   0.800   1.739 -0.0731 -0.1808 -0.1080
  148MOL   C26247596   3.270   0.855   1.884  0.1627 -0.5420  0.0018
  148MOL   C26347597   3.342   0.902   1.644  0.9034  0.1304 -0.2854
  148MOL   H26447598   3.279   0.387   1.565 -4.4446  1.9682 -1.4795
  148MOL   H26547599   3.426   0.457   1.606 -0.7681  0.3063  1.0640
  148MOL   H26647600   3.158   0.573   1.690 -0.5381 -0.0399 -0.5249
  148MOL   H26747601   3.171   0.785   1.703 -0.9195  3.7269  0.3648
  148MOL   H26847602   3.367   0.895   1.913 -0.4436  0.7541  0.2824
  148MOL   H26947603   3.257   0.772   1.953  0.4732 -2.5755 -2.3217
  148MOL   H27047604   3.195   0.931   1.906 -0.8554 -1.5262 -0.0044
  148MOL   H27147605   3.438   0.943   1.676  0.5141  1.4792 -0.8014
  148MOL   H27247606   3.351   0.866   1.542 -3.1083 -0.7364 -0.4484
  148MOL   H27347607   3.278   0.990   1.652  0.6219 -0.0636 -0.4116
  148MOL   C27447608   3.277   0.472   1.842  0.1347 -0.2392  0.7290
  148MOL   C27547609   3.234   0.320   1.835 -0.1468 -0.3814 -0.5285
  148MOL   O27647610   3.303   0.259   1.942 -0.2208 -0.4548  0.0596
  148MOL   C27747611   3.386   0.150   1.906  0.6008  0.3928  0.0571
  148MOL   C27847612   3.379   0.045   2.013  0.7653  0.2778 -0.5305
  148MOL   C27947613   3.529   0.193   1.877 -0.8459 -0.2598 -0.7234
  148MOL   H28047614   3.381   0.472   1.874  0.4151  0.2737 -0.1700
  148MOL   H28147615   3.230   0.516   1.930  0.3525 -1.5182  1.5068
  148MOL   H28247616   3.260   0.279   1.737 -0.8041  0.5359 -1.1001
  148MOL   H28347617   3.338   0.111   1.816  0.9320 -2.9611  1.2456
  148MOL   H28447618   3.279   0.002   2.024  1.1247 -0.2578  0.7053
  148MOL   H28547619   3.434   7.777   1.980 -1.8539 -1.3035 -0.8677
  148MOL   H28647620   3.416   0.081   2.109  3.5974 -0.5652 -1.2422
  148MOL   H28747621   3.591   0.110   1.843 -1.6973 -1.0954 -0.2588
  148MOL   H28847622   3.580   0.243   1.959 -0.1468  0.9843 -1.8872
  148MOL   H28947623   3.519   0.262   1.793 -2.2541 -2.1279 -2.1360
  148MOL   C29047624   3.084   0.293   1.853  0.0982  0.4460 -0.2205
  148MOL   C29147625   3.037   0.144   1.820  0.1780 -0.1415  0.6543
  148MOL   O29247626   2.902   0.116   1.845  0.4836  0.5644  0.3007
  148MOL   C29347627   2.858   0.111   1.979  0.0876  0.2497  0.2452
  148MOL   C29447628   2.917   7.807   2.051  0.1083  0.6525 -0.0158
  148MOL   C29547629   2.702   0.104   1.977  0.8987 -0.3300  0.6083
  148MOL   H29647630   3.035   0.370   1.793  1.9930 -1.2630 -4.1387
  148MOL   H29747631   3.062   0.313   1.958  0.9291  0.5513 -0.0652
  148MOL   H29847632   3.101   0.069   1.868 -1.4633 -0.2082  2.8550
  148MOL   H29947633   2.887   0.204   2.027  1.2909 -0.3021  0.6038
  148MOL   H30047634   3.026   7.811   2.044  0.1979 -0.2659  0.8167
  148MOL   H30147635   2.896   7.819   2.157  1.8072  0.0571  0.4017
  148MOL   H30247636   2.869   7.714   2.018  0.5696  0.5667 -0.4445
  148MOL   H30347637   2.661   0.125   2.076  2.6045 -1.8285  1.6632
  148MOL   H30447638   2.667   0.178   1.906 -0.8667 -0.9674  0.7872
  148MOL   H30547639   2.659   0.009   1.947  1.9762 -0.1527 -1.6161
  148MOL   C30647640   3.050   0.107   1.675  0.0826  0.0799  0.7000
  148MOL   C30747641   2.985   0.199   1.566  0.8447  0.1904  0.1314
  148MOL   O30847642   2.936   0.116   1.467  0.3098  0.4793  0.2951
  148MOL   C30947643   2.895   0.187   1.354  0.0586  0.3768  0.2412
  148MOL   C31047644   3.013   0.194   1.259 -0.6135 -0.4437  0.5008
  148MOL   C31147645   2.767   0.114   1.305 -0.2833 -0.2028  0.4736
  148MOL   H31247646   3.000   0.012   1.660  2.2959 -1.0832  0.4906
  148MOL   H31347647   3.155   0.090   1.650 -0.1808  2.1317 -2.0650
  148MOL   H31447648   2.902   0.249   1.617  0.9886 -0.7359  1.2968
  148MOL   H31547649   2.869   0.289   1.383  0.7667  0.5029  0.4415
  148MOL   H31647650   2.979   0.202   1.155 -1.7392 -1.8345  0.7463
  148MOL   H31747651   3.069   0.102   1.272  1.5016  1.0629  2.4333
  148MOL   H31847652   3.088   0.265   1.293  0.1301 -2.0920  2.4152
  148MOL   H31947653   2.797   0.011   1.287  1.4191 -0.2701  3.4933
  148MOL   H32047654   2.715   0.166   1.224 -1.5011 -0.6314  0.9642
  148MOL   H32147655   2.684   0.113   1.375 -1.0979  0.5545 -0.4538
  148MOL   H32247656   3.050   0.277   1.528 -0.5218  1.0144 -0.5736
  149MOL     C147657   0.804   0.584   4.492 -0.7885 -0.6213  0.5496
  149MOL     C247658   0.904   0.536   4.596  0.9880 -0.0272 -0.2650
  149MOL     O347659   0.939   0.410   4.556  0.0569 -0.0063 -0.7931
  149MOL     C447660   0.992   0.329   4.661 -0.2739 -0.3062  0.1497
  149MOL     C547661   1.097   0.240   4.597  0.0448 -0.4100  0.5266
  149MOL     C647662   0.874   0.251   4.711 -0.8096 -0.1046 -0.0059
  149MOL     H747663   0.716   0.521   4.501 -1.5395  0.4912  1.0133
  149MOL     H847664   0.767   0.683   4.518 -0.0982  0.0067 -0.8272
  149MOL     H947665   0.846   0.529   4.689  0.9205  0.1578 -0.2929
  149MOL    H1047666   1.045   0.378   4.743  2.2786 -5.3266  1.6468
  149MOL    H1147667   1.052   0.180   4.518  2.8400  1.0299 -2.2619
  149MOL    H1247668   1.183   0.292   4.553 -0.2433 -0.0599  0.3764
  149MOL    H1347669   1.147   0.191   4.681  0.5225  1.3516  1.2964
  149MOL    H1447670   0.793   0.311   4.751 -2.3242 -1.4850 -0.9096
  149MOL    H1547671   0.822   0.194   4.634 -0.6820 -1.7117  1.0697
  149MOL    H1647672   0.913   0.185   4.789  2.3162 -0.8719 -2.1365
  149MOL    H1747673   0.835   0.567   4.389  1.3665  0.5352  0.9632
  149MOL    C1847674   1.028   0.622   4.604 -0.5822  0.1796 -0.3664
  149MOL    C1947675   1.018   0.752   4.692  0.0130 -0.2255 -0.2933
  149MOL    O2047676   1.122   0.843   4.651  0.2944 -0.6006 -0.4299
  149MOL    C2147677   1.104   0.923   4.537  0.0781  1.0129  0.3778
  149MOL    C2247678   1.247   0.959   4.500 -0.1230  0.4261  0.1815
  149MOL    C2347679   1.021   1.047   4.572 -0.7873  0.4757 -0.0778
  149MOL    H2447680   1.118   0.579   4.648 -0.0046  2.3429  0.6482
  149MOL    H2547681   1.065   0.651   4.506  0.9093  0.7432  0.3446
  149MOL    H2647682   0.926   0.806   4.672 -0.3746  0.2381  2.5645
  149MOL    H2747683   1.065   0.881   4.444 -0.8040  2.4699  0.0826
  149MOL    H2847684   1.305   0.982   4.589 -1.3308  0.9383  0.8499
  149MOL    H2947685   1.295   0.870   4.459 -2.7765 -0.5255 -0.9711
  149MOL    H3047686   1.262   1.036   4.424  0.1721  0.9481  0.7681
  149MOL    H3147687   1.000   1.098   4.478  1.3385  0.4817 -0.5734
  149MOL    H3247688   1.080   1.110   4.638  0.7317 -1.8049  0.8136
  149MOL    H3347689   0.926   1.033   4.623 -0.5773  0.8137  0.4028
  149MOL    C3447690   1.015   0.717   4.845  0.5250 -0.1502  0.3803
  149MOL    C3547691   1.029   0.828   4.954  0.6646  0.1568  0.2209
  149MOL    O3647692   0.975   0.764   5.074 -0.4178 -0.0294 -0.9107
  149MOL    C3747693   0.844   0.807   5.127 -0.3829 -0.4993 -0.4860
  149MOL    C3847694   0.730   0.750   5.035  0.2171  0.2348  0.1809
  149MOL    C3947695   0.837   0.765   5.271  0.2014 -0.6007 -0.2874
  149MOL    H4047696   1.077   0.630   4.865 -0.0053 -0.9017 -1.1571
  149MOL    H4147697   0.912   0.681   4.847  0.4347  0.1312  0.8194
  149MOL    H4247698   0.981   0.923   4.929 -0.3846 -0.6028 -0.7254
  149MOL    H4347699   0.843   0.916   5.116 -2.2096 -0.5010 -0.4847
  149MOL    H4447700   0.755   0.645   5.023 -1.1414 -0.0998  0.1790
  149MOL    H4547701   0.721   0.797   4.937 -0.3440  1.9240  1.0099
  149MOL    H4647702   0.632   0.742   5.082  0.4844 -2.7006  0.3257
  149MOL    H4747703   0.839   0.656   5.276  4.2916 -0.6252 -0.2542
  149MOL    H4847704   0.932   0.782   5.323 -0.9276 -1.1832  1.9981
  149MOL    H4947705   0.757   0.818   5.322  0.6945 -0.7907  0.6825
  149MOL    C5047706   1.179   0.846   4.979 -0.3329  0.1202 -0.8524
  149MOL    C5147707   1.203   0.944   5.094 -0.3561 -0.1059 -0.5609
  149MOL    O5247708   1.193   1.078   5.051  0.5888  0.0630 -0.2505
  149MOL    C5347709   1.070   1.149   5.074  0.3312  0.2038 -0.1884
  149MOL    C5447710   1.098   1.256   4.975  0.5586 -0.0379 -0.5527
  149MOL    C5547711   1.064   1.202   5.216 -0.5468 -0.0195  0.2978
  149MOL    H5647712   1.215   0.748   5.010 -0.8137 -0.4631 -2.1081
  149MOL    H5747713   1.229   0.871   4.886 -0.7997  0.0013 -1.1403
  149MOL    H5847714   1.136   0.932   5.179 -0.7772  1.1598 -0.7082
  149MOL    H5947715   0.979   1.091   5.061 -0.2100  0.9066  0.4350
  149MOL    H6047716   1.201   1.294   4.978  1.1104 -1.5543  0.0124
  149MOL    H6147717   1.031   1.340   4.989  1.7971  0.6851  1.1675
  149MOL    H6247718   1.080   1.227   4.871 -1.5692 -1.5592  0.2039
  149MOL    H6347719   0.972   1.256   5.242 -0.9118 -1.3195  1.8235
  149MOL    H6447720   1.148   1.263   5.247 -3.1808  2.3592  3.1072
  149MOL    H6547721   1.069   1.116   5.284  0.1823 -0.6657 -0.5645
  149MOL    C6647722   1.337   0.934   5.159  0.0543  0.4758  0.5557
  149MOL    C6747723   1.353   0.865   5.297  0.3871 -0.1740 -0.4304
  149MOL    O6847724   1.487   0.858   5.339 -0.1193  0.1329 -0.6334
  149MOL    C6947725   1.568   0.976   5.345  0.3425  0.9200 -0.4916
  149MOL    C7047726   1.513   1.104   5.407  0.8825  0.6410  0.2719
  149MOL    C7147727   1.707   0.937   5.397 -0.1915  0.8971 -0.2346
  149MOL    H7247728   1.406   0.895   5.084  0.1969  0.0816  0.8870
  149MOL    H7347729   1.379   1.033   5.178  0.5718  0.4415 -0.3531
  149MOL    H7447730   1.309   0.927   5.374  0.8316 -0.2439 -0.1183
  149MOL    H7547731   1.584   1.003   5.240  0.7780  1.8148 -0.2041
  149MOL    H7647732   1.405   1.116   5.393  0.6925 -0.1777  0.9874
  149MOL    H7747733   1.525   1.097   5.515 -2.2998 -1.1736  0.5938
  149MOL    H7847734   1.559   1.194   5.368  1.5552  1.0463  1.9648
  149MOL    H7947735   1.706   0.923   5.505 -0.9681 -2.2125 -0.6085
  149MOL    H8047736   1.784   1.009   5.370  1.0691  1.3463  4.2231
  149MOL    H8147737   1.725   0.841   5.349  0.5657  0.8179  0.2115
  149MOL    C8247738   1.293   0.718   5.305  0.2812 -0.5409  0.6749
  149MOL    C8347739   1.274   0.669   5.449 -0.1339  0.0031 -0.5431
  149MOL    O8447740   1.141   0.689   5.494  0.0478  0.4850  0.2270
  149MOL    C8547741   1.119   0.762   5.612  0.3753 -0.0433 -0.8258
  149MOL    C8647742   0.974   0.729   5.660  0.1604 -0.6116 -0.0453
  149MOL    C8747743   1.129   0.914   5.594  0.3594 -0.3780  0.2696
  149MOL    H8847744   1.200   0.718   5.247 -0.3918  0.6947  1.7371
  149MOL    H8947745   1.368   0.659   5.254 -0.6663 -0.1740 -1.2136
  149MOL    H9047746   1.340   0.731   5.510 -0.8233 -0.7486  0.9757
  149MOL    H9147747   1.179   0.727   5.696 -0.8829  0.2792  0.2238
  149MOL    H9247748   0.911   0.767   5.580  3.3275 -0.6297 -2.6678
  149MOL    H9347749   0.967   0.620   5.653 -1.1425 -0.4251 -2.0290
  149MOL    H9447750   0.953   0.777   5.756  3.8266 -0.0602  0.5456
  149MOL    H9547751   1.230   0.952   5.581 -0.1416  0.3285 -1.6868
  149MOL    H9647752   1.067   0.961   5.518  2.0919  2.3090  0.4588
  149MOL    H9747753   1.092   0.960   5.685  0.9245 -0.3655  0.4927
  149MOL    C9847754   1.308   0.517   5.462 -0.4960  0.2779  0.2169
  149MOL    C9947755   1.333   0.459   5.607  0.1810 -0.0757  1.6464
  149MOL   O10047756   1.420   0.351   5.613 -0.2143  0.3114 -0.4096
  149MOL   C10147757   1.552   0.370   5.652  1.0679  0.1860  0.4448
  149MOL   C10247758   1.634   0.396   5.526 -0.0899 -0.4245 -0.0434
  149MOL   C10347759   1.604   0.236   5.709  0.4340 -0.0767  0.5069
  149MOL   H10447760   1.242   0.450   5.407 -0.7818  1.1144 -0.4774
  149MOL   H10547761   1.404   0.504   5.410 -0.9900  1.8785 -1.1590
  149MOL   H10647762   1.345   0.546   5.671  0.1196  0.3066  1.1464
  149MOL   H10747763   1.559   0.444   5.732  1.1819 -1.2799  1.8343
  149MOL   H10847764   1.635   0.318   5.450  2.4570 -0.3266 -0.1650
  149MOL   H10947765   1.741   0.397   5.549 -0.0087 -0.7898 -0.3951
  149MOL   H11047766   1.612   0.496   5.492  2.4982 -0.1284 -0.9856
  149MOL   H11147767   1.606   0.161   5.630  0.2546  0.1912  0.2466
  149MOL   H11247768   1.536   0.195   5.783  0.8443 -1.9282 -0.1146
  149MOL   H11347769   1.704   0.258   5.748 -0.1096 -1.0746  2.4809
  149MOL   C11447770   1.207   0.390   5.661  0.2693  0.0625  0.0655
  149MOL   C11547771   1.203   0.375   5.813  0.5037 -0.0367 -0.7091
  149MOL   O11647772   1.193   0.511   5.849  0.4297  0.1655  0.8146
  149MOL   C11747773   1.243   0.553   5.972  0.0389  0.1181 -0.4869
  149MOL   C11847774   1.135   0.638   6.042 -0.1110  0.2968  0.3757
  149MOL   C11947775   1.372   0.626   5.964  0.5105  0.1890  0.4508
  149MOL   H12047776   1.192   0.292   5.616  1.6971  0.4084 -1.2221
  149MOL   H12147777   1.116   0.443   5.633 -0.4959 -1.1048  0.3357
  149MOL   H12247778   1.297   0.335   5.853 -0.0870  1.1399  2.0139
  149MOL   H12347779   1.249   0.464   6.035 -0.0903 -0.7527 -1.7065
  149MOL   H12447780   1.099   0.721   5.981 -0.3200  0.6969  1.0300
  149MOL   H12547781   1.182   0.690   6.126  1.7558  2.0309 -1.6617
  149MOL   H12647782   1.045   0.581   6.062 -0.6250  0.9805  0.0613
  149MOL   H12747783   1.374   0.688   5.874 -2.5263  0.3486  0.4490
  149MOL   H12847784   1.450   0.550   5.968 -0.4716 -0.8781 -0.3649
  149MOL   H12947785   1.384   0.706   6.037  1.3415  0.7711 -0.3013
  149MOL   C13047786   1.091   0.292   5.871 -0.1145 -0.0220  0.1476
  149MOL   C13147787   1.098   0.140   5.855 -0.5946 -0.1618  0.3505
  149MOL   O13247788   1.063   0.112   5.719  0.1733 -0.6546 -0.4001
  149MOL   C13347789   1.136   7.817   5.673  0.0932  0.0589  0.0803
  149MOL   C13447790   1.041   7.763   5.563  0.3846  0.1992  0.5739
  149MOL   C13547791   1.275   0.023   5.621  0.3057  0.5336  0.3946
  149MOL   H13647792   0.996   0.326   5.830 -0.7222  0.0195  1.5882
  149MOL   H13747793   1.091   0.314   5.977  1.4656 -0.9169  0.3426
  149MOL   H13847794   1.204   0.124   5.876 -0.9520 -0.7474  1.7492
  149MOL   H13947795   1.140   7.745   5.754  1.2524 -1.0803 -0.9647
  149MOL   H14047796   0.938   7.752   5.598  0.1056 -1.2567 -0.6425
  149MOL   H14147797   1.081   7.667   5.529  2.0176  1.2339 -0.4742
  149MOL   H14247798   1.034   0.005   5.474 -2.1613 -1.1246 -0.2259
  149MOL   H14347799   1.336   0.044   5.708 -0.8129  0.0021  1.3116
  149MOL   H14447800   1.329   7.765   5.569 -1.8730  0.1668 -1.4230
  149MOL   H14547801   1.272   0.105   5.548  0.4351  1.4504  1.4092
  149MOL   C14647802   1.000   0.054   5.938 -0.3139 -0.2969 -0.1052
  149MOL   C14747803   1.071   7.811   6.065 -0.2571 -0.6008 -0.1509
  149MOL   O14847804   1.144   0.093   6.124 -0.0416 -0.3802 -1.1462
  149MOL   C14947805   1.264   0.061   6.191  0.1884  0.3735  0.7258
  149MOL   C15047806   1.279   0.161   6.300 -0.1260 -0.3091 -0.7661
  149MOL   C15147807   1.387   0.068   6.096  0.2199  0.1641 -0.5024
  149MOL   H15247808   0.943   7.797   5.886 -2.3758 -1.0123  3.0970
  149MOL   H15347809   0.919   0.121   5.966 -0.5316 -1.0201  1.0162
  149MOL   H15447810   1.138   7.731   6.032  1.6289  0.1588  1.7424
  149MOL   H15547811   1.258   7.786   6.244 -1.0444 -0.6217 -1.1744
  149MOL   H15647812   1.180   0.173   6.344 -0.0128  0.6712 -0.7681
  149MOL   H15747813   1.320   0.255   6.261  0.7473 -0.8554 -1.1875
  149MOL   H15847814   1.341   0.113   6.376 -1.5970  2.9084  2.6379
  149MOL   H15947815   1.382   0.169   6.053 -1.6849 -0.1407 -1.0587
  149MOL   H16047816   1.390   0.007   6.006  0.6749 -1.4313  0.5857
  149MOL   H16147817   1.476   0.049   6.156 -0.2731 -1.6774 -0.3336
  149MOL   C16247818   0.966   7.756   6.170 -0.5233  0.8528  0.4056
  149MOL   C16347819   0.898   7.632   6.119 -0.2284  0.1949  0.0526
  149MOL   O16447820   0.985   7.525   6.131  0.5451 -0.0699  0.4079
  149MOL   C16547821   0.974   7.431   6.026  0.3745  0.4561 -0.4248
  149MOL   C16647822   1.026   7.294   6.063  0.4422 -0.1468  0.4379
  149MOL   C16747823   1.054   7.474   5.907 -0.0035  0.7218  0.0622
  149MOL   H16847824   1.016   7.744   6.266  1.8548 -0.0273 -0.9076
  149MOL   H16947825   0.891   0.013   6.185 -0.6214  1.1166 -1.3827
  149MOL   H17047826   0.858   7.639   6.017  0.3579 -2.4218 -0.3892
  149MOL   H17147827   0.871   7.424   5.991  0.2765 -1.0213  0.1202
  149MOL   H17247828   0.995   7.213   5.998 -1.6355  0.7701  0.2332
  149MOL   H17347829   0.999   7.275   6.167 -1.7123 -0.4366 -0.1343
  149MOL   H17447830   1.135   7.296   6.068  0.5490 -1.4130 -1.2214
  149MOL   H17547831   1.031   7.412   5.821  2.3108 -0.6581  0.4049
  149MOL   H17647832   1.160   7.466   5.929 -0.5773 -2.1735  2.0091
  149MOL   H17747833   1.030   7.574   5.871  1.0122  0.3119 -1.7867
  149MOL   C17847834   0.774   7.582   6.193 -0.6103 -0.6354  0.5105
  149MOL   C17947835   0.659   7.691   6.220  0.3391 -0.4371 -0.8738
  149MOL   O18047836   0.710   7.769   6.322  0.5243 -0.4997 -0.2684
  149MOL   C18147837   0.615   7.792   6.426 -0.2682  0.0771  0.1612
  149MOL   C18247838   0.630   0.117   6.478  0.4819 -0.3775 -0.0880
  149MOL   C18347839   0.639   7.688   6.541 -0.6760  0.2661  0.0134
  149MOL   H18447840   0.792   7.548   6.295 -2.2866 -0.0863  1.0037
  149MOL   H18547841   0.735   7.496   6.139  0.8848 -1.0487  0.0502
  149MOL   H18647842   0.581   7.622   6.255 -2.2654  1.7619 -2.1386
  149MOL   H18747843   0.515   7.788   6.384  0.0069 -1.3151 -0.3984
  149MOL   H18847844   0.729   0.136   6.518 -0.6284 -0.7867  2.9601
  149MOL   H18947845   0.549   0.157   6.540 -0.0805 -2.2442  0.4161
  149MOL   H19047846   0.636   0.186   6.393 -1.0698 -1.2864 -0.9652
  149MOL   H19147847   0.746   7.686   6.563 -0.4179  1.3125 -1.0788
  149MOL   H19247848   0.607   7.585   6.528  1.6058 -0.4292 -0.4143
  149MOL   H19347849   0.589   7.714   6.634 -0.1665 -1.1192  0.6859
  149MOL   C19447850   0.602   7.770   6.098 -0.1491 -0.3085 -0.9136
  149MOL   C19547851   0.530   7.692   5.983  0.8051  0.2675  0.3287
  149MOL   O19647852   0.623   7.605   5.924  0.2072 -0.0611 -0.0063
  149MOL   C19747853   0.571   7.483   5.866 -0.2934 -0.0702  0.2963
  149MOL   C19847854   0.656   7.442   5.743 -0.4350  0.3512  0.2802
  149MOL   C19947855   0.555   7.374   5.970 -0.4557 -0.5569 -0.3102
  149MOL   H20047856   0.524   0.016   6.134 -0.7511 -0.6047 -1.6479
  149MOL   H20147857   0.682   0.013   6.060 -1.0825  0.5495 -1.4784
  149MOL   H20247858   0.447   7.640   6.029 -0.6788  1.6281 -0.7549
  149MOL   H20347859   0.471   7.496   5.825 -0.4043 -0.7735  0.3265
  149MOL   H20447860   0.756   7.405   5.763 -0.7432 -0.2357  0.7570
  149MOL   H20547861   0.596   7.356   5.713  1.0443  0.5398 -3.4358
  149MOL   H20647862   0.665   7.508   5.657  0.5536  1.3934  1.1684
  149MOL   H20747863   0.510   7.286   5.923 -0.1580 -0.6253 -0.4676
  149MOL   H20847864   0.644   7.327   6.012 -1.6211 -0.8413  1.9213
  149MOL   H20947865   0.495   7.398   6.058 -2.9722 -1.4323 -1.7323
  149MOL   C21047866   0.457   7.783   5.879 -0.3373  0.5826  0.9701
  149MOL   C21147867   0.326   0.034   5.920  0.1747  0.4449 -0.1196
  149MOL   O21247868   0.280   0.106   5.801 -0.0941  0.1519 -0.1908
  149MOL   C21347869   0.331   0.239   5.782 -0.2425  0.5101 -0.0905
  149MOL   C21447870   0.353   0.256   5.625  0.0681  0.2355 -0.3562
  149MOL   C21547871   0.249   0.351   5.838  0.0516 -0.7851 -0.0648
  149MOL   H21647872   0.446   7.733   5.783  0.9377  1.1165  0.5212
  149MOL   H21747873   0.531   0.037   5.847  1.1711 -1.5065 -0.5115
  149MOL   H21847874   0.345   0.110   5.995 -1.8974 -0.6204  1.5345
  149MOL   H21947875   0.430   0.258   5.822  0.1810 -0.8724 -0.4412
  149MOL   H22047876   0.260   0.258   5.570  0.5463 -1.2398 -1.2444
  149MOL   H22147877   0.411   0.169   5.593  2.2428  1.2894  0.5812
  149MOL   H22247878   0.398   0.350   5.594 -1.7561  1.0445 -0.6023
  149MOL   H22347879   0.153   0.356   5.787 -1.7230  1.3196  3.2918
  149MOL   H22447880   0.299   0.446   5.817  0.1042 -0.8600 -0.2808
  149MOL   H22547881   0.248   0.329   5.945 -0.5028  0.0288  0.1109
  149MOL   C22647882   0.204   7.778   5.962  1.1219  0.1035  0.1978
  149MOL   C22747883   0.061   0.027   5.969 -0.8905 -0.1265  0.2742
  149MOL   O22847884   0.071   0.148   6.047  0.0955 -0.5052 -0.4602
  149MOL   C22947885   7.765   0.225   6.064 -0.2415  0.3571  0.0711
  149MOL   C23047886   7.790   0.371   6.031 -0.2872 -0.1010 -0.0329
  149MOL   C23147887   7.727   0.225   6.209 -0.1952  0.1820  0.1663
  149MOL   H23247888   0.226   7.743   6.063  1.8916  1.0530  0.3659
  149MOL   H23347889   0.192   7.689   5.901  1.3665 -0.9442  1.6311
  149MOL   H23447890   0.026   0.054   5.869  0.5156 -0.8819 -0.4271
  149MOL   H23547891   7.682   0.186   6.004 -1.5261  1.9188  0.8052
  149MOL   H23647892   7.802   0.388   5.924  2.0422 -3.7492 -0.4267
  149MOL   H23747893   7.708   0.437   6.059 -1.2646 -1.2019 -0.2585
  149MOL   H23847894   0.061   0.415   6.071  0.3456 -0.3696 -1.1649
  149MOL   H23947895   7.633   0.276   6.231  1.0604  1.8551  1.7462
  149MOL   H24047896   7.801   0.265   6.278 -0.2417  0.4957  0.0309
  149MOL   H24147897   7.712   0.122   6.241  0.4360  0.2327  0.6320
  149MOL   C24247898   7.788   7.754   6.048 -0.6141 -0.5120  0.0484
  149MOL   C24347899   7.748   7.617   5.974  0.0525 -0.4547  0.0894
  149MOL   O24447900   7.685   7.658   5.853 -0.0151  0.0289 -0.1152
  149MOL   C24547901   7.686   7.561   5.745  0.0292 -0.8619 -0.0625
  149MOL   C24647902   7.597   7.619   5.644  0.4710  0.1993  0.3910
  149MOL   C24747903   0.001   7.522   5.679  0.1470 -0.1263 -0.0612
  149MOL   H24847904   0.001   7.744   6.151 -0.6812  0.4091  0.1618
  149MOL   H24947905   7.693   7.808   6.049 -0.6433 -0.5070 -1.5323
  149MOL   H25047906   0.017   7.561   5.945  1.7809  1.9215  0.5871
  149MOL   H25147907   7.630   7.479   5.789 -0.8656 -1.1404 -1.6919
  149MOL   H25247908   7.579   7.567   5.549 -1.2751  2.5562 -0.6247
  149MOL   H25347909   7.498   7.620   5.689  0.2364 -0.2135 -0.1075
  149MOL   H25447910   7.615   7.720   5.609  0.5678 -0.4543 -1.5423
  149MOL   H25547911   7.817   7.473   5.582  0.6829  1.7664 -1.0831
  149MOL   H25647912   0.056   7.614   5.658  2.5319 -2.0890 -2.8537
  149MOL   H25747913   0.070   7.470   5.745  1.1111  1.8863  0.5793
  149MOL   C25847914   7.651   7.538   6.064 -0.1069  0.8903 -0.1423
  149MOL   C25947915   7.720   7.441   6.174  0.3067 -0.7469  0.3195
  149MOL   O26047916   7.778   7.347   6.088 -0.0828 -0.0727  0.0450
  149MOL   C26147917   0.083   7.298   6.136 -0.7122 -0.2631 -0.5014
  149MOL   C26247918   0.123   7.172   6.048  1.0655 -0.7498  0.1648
  149MOL   C26347919   0.191   7.405   6.126 -0.3097  0.3433 -1.1678
  149MOL   H26447920   7.582   7.609   6.110 -0.9442  0.2976 -0.4614
  149MOL   H26547921   7.582   7.479   6.003  2.1161  1.0474 -2.8879
  149MOL   H26647922   7.786   7.501   6.235  1.4672  0.5569 -2.1185
  149MOL   H26747923   0.080   7.282   6.244 -0.9231  1.8079 -0.1845
  149MOL   H26847924   0.145   7.187   5.942  1.7622 -0.9608  0.2783
  149MOL   H26947925   0.039   7.103   6.049 -1.7528  2.4833 -2.4205
  149MOL   H27047926   0.210   7.125   6.093  0.0877 -0.8422  2.0209
  149MOL   H27147927   0.197   7.430   6.020 -1.6873 -0.5310 -1.4601
  149MOL   H27247928   0.180   7.497   6.183  2.1185 -0.0997  0.1039
  149MOL   H27347929   0.290   7.367   6.151 -0.6695 -1.6795 -2.6423
  149MOL   C27447930   7.617   7.366   6.259  0.7643 -0.7673  0.2012
  149MOL   C27547931   7.557   7.444   6.380  0.4313 -1.2104 -0.2696
  149MOL   O27647932   7.437   7.512   6.338 -0.2124 -1.1155  0.2513
  149MOL   C27747933   7.392   7.626   6.410 -0.7861  0.8629 -0.1770
  149MOL   C27847934   7.237   7.633   6.405 -0.3436  0.5570  0.0515
  149MOL   C27947935   7.446   7.757   6.345 -0.0554  0.7377 -0.2142
  149MOL   H28047936   7.533   7.327   6.203  0.3747 -3.1826  2.3839
  149MOL   H28147937   7.669   7.279   6.298 -0.9307 -2.5991 -1.5237
  149MOL   H28247938   7.621   7.529   6.402 -0.9474 -0.2342  0.0129
  149MOL   H28347939   7.434   7.622   6.510  0.5088 -2.3713 -0.7838
  149MOL   H28447940   7.188   7.632   6.308 -1.2674 -2.3546  0.4957
  149MOL   H28547941   7.188   7.553   6.460 -1.1165  0.9951  0.0073
  149MOL   H28647942   7.211   7.727   6.454 -1.6478  0.3828 -0.2990
  149MOL   H28747943   7.555   7.760   6.348 -0.0318  1.5180 -1.4174
  149MOL   H28847944   7.423   0.019   6.412  0.6536  0.0245  0.9247
  149MOL   H28947945   7.404   7.776   6.246  2.3953  0.5033 -1.3312
  149MOL   C29047946   7.537   7.344   6.504  0.4688 -0.4024  0.9916
  149MOL   C29147947   7.656   7.310   6.576 -0.1774  0.0725 -0.3725
  149MOL   O29247948   7.720   7.437   6.608  0.1354  0.1535  0.1811
  149MOL   C29347949   0.036   7.418   6.662 -0.5609 -0.1236  0.1032
  149MOL   C29447950   0.053   7.511   6.774 -0.0906 -0.6223 -0.0303
  149MOL   C29547951   0.131   7.444   6.544 -0.1360  0.0562  0.4231
  149MOL   H29647952   7.502   7.255   6.450 -2.5223  0.7952  0.8324
  149MOL   H29747953   7.456   7.379   6.567 -0.1178  3.5461 -1.7765
  149MOL   H29847954   7.723   7.272   6.498 -1.9583 -0.5533 -1.6296
  149MOL   H29947955   0.052   7.317   6.700 -0.7057 -0.2775 -0.2372
  149MOL   H30047956   0.154   7.500   6.813  0.0386 -0.5628 -0.3516
  149MOL   H30147957   0.053   7.614   6.738 -1.1517  0.1578  2.0976
  149MOL   H30247958   7.794   7.501   6.848 -2.8635 -1.3396 -2.9794
  149MOL   H30347959   0.235   7.463   6.572  0.0881  0.6141 -0.7445
  149MOL   H30447960   0.116   7.352   6.488 -0.7475 -0.5752  1.6019
  149MOL   H30547961   0.091   7.519   6.476  0.1027  0.1762  0.4167
  149MOL   C30647962   7.622   7.226   6.697  0.1319  0.4994 -0.4802
  149MOL   C30747963   7.524   7.109   6.669  0.4364 -0.0862 -0.1741
  149MOL   O30847964   7.522   7.027   6.784 -0.9732  0.2033 -0.3831
  149MOL   C30947965   7.391   6.991   6.828  0.0863  0.0248 -0.0734
  149MOL   C31047966   7.325   6.878   6.748 -0.4116  0.6207  0.2486
  149MOL   C31147967   7.423   6.950   6.977 -0.0560  0.2277 -0.2535
  149MOL   H31247968   7.571   7.288   6.771  0.1191  0.0662 -0.1282
  149MOL   H31347969   7.710   7.178   6.740 -0.5151  1.6812  2.3371
  149MOL   H31447970   7.425   7.153   6.654  1.1333  1.1956 -1.2029
  149MOL   H31547971   7.325   7.078   6.829 -0.2654 -0.2155  2.5011
  149MOL   H31647972   7.327   6.903   6.642  0.0056 -1.8103 -0.3504
  149MOL   H31747973   7.224   6.852   6.781  0.1026 -1.1049  0.4850
  149MOL   H31847974   7.387   6.789   6.744 -0.7923  0.3466  0.4643
  149MOL   H31947975   7.493   6.869   6.996  1.0462  1.4486  0.9741
  149MOL   H32047976   7.331   6.922   7.028  1.4058 -0.7856  1.8658
  149MOL   H32147977   7.470   7.039   7.018 -0.3669 -0.7560  2.2804
  149MOL   H32247978   7.546   7.049   6.581 -1.0165 -1.7766  0.5796
  150MOL     C147979   0.492   1.669   2.581 -0.0002  0.8825  0.0058
  150MOL     C247980   0.599   1.555   2.600 -0.3326 -0.2747 -0.2356
  150MOL     O347981   0.626   1.536   2.737 -0.2548  0.1557 -0.1694
  150MOL     C447982   0.695   1.638   2.818 -0.5399  0.5532 -0.1863
  150MOL     C547983   0.845   1.629   2.784  0.7705  0.0158 -0.5460
  150MOL     C647984   0.654   1.599   2.960  0.3249 -0.3417 -0.4538
  150MOL     H747985   0.456   1.700   2.483 -0.0382 -0.7831 -0.5128
  150MOL     H847986   0.401   1.654   2.639 -1.5144  2.4613 -1.8783
  150MOL     H947987   0.683   1.587   2.539 -1.5112  3.4504 -0.0077
  150MOL    H1047988   0.665   1.741   2.798  0.5704  0.6112 -1.6516
  150MOL    H1147989   0.906   1.689   2.852 -0.4376  0.3945  0.2241
  150MOL    H1247990   0.879   1.525   2.781  0.8928 -0.0090  1.2140
  150MOL    H1347991   0.864   1.662   2.682  3.9950  1.3777  0.4114
  150MOL    H1447992   0.686   1.673   3.033 -2.1640 -3.7472  4.4308
  150MOL    H1547993   0.546   1.587   2.973  0.5492 -2.3282 -0.2932
  150MOL    H1647994   0.703   1.509   2.997 -2.2820 -1.8792 -0.6121
  150MOL    H1747995   0.537   1.762   2.618 -1.1984  2.8562 -3.3249
  150MOL    C1847996   0.549   1.416   2.556 -0.3282 -0.9877  0.0981
  150MOL    C1947997   0.495   1.411   2.412 -0.1909  0.6824 -0.0805
  150MOL    O2047998   0.449   1.281   2.368  0.0550 -0.3807  0.2046
  150MOL    C2147999   0.337   1.226   2.428  0.9388 -0.2669 -0.2713
  150MOL    C2248000   0.351   1.077   2.396  0.2603  0.5050 -0.1561
  150MOL    C2348001   0.205   1.281   2.376  0.3299  0.3460  0.3436
  150MOL    H2448002   0.634   1.348   2.564 -1.6106 -3.0235 -2.6232
  150MOL    H2548003   0.471   1.393   2.629  0.7691  2.8983  2.5946
  150MOL    H2648004   0.409   1.476   2.426  1.7261  3.3154 -0.0747
  150MOL    H2748005   0.345   1.230   2.537 -1.8313  0.2455 -0.0301
  150MOL    H2848006   0.288   1.014   2.459 -0.0006 -0.7131 -1.6167
  150MOL    H2948007   0.344   1.047   2.292  0.9527 -1.3094  0.2946
  150MOL    H3048008   0.448   1.042   2.432  0.8137  1.9060 -0.2638
  150MOL    H3148009   0.120   1.253   2.437 -1.4910  1.0840 -1.7951
  150MOL    H3248010   0.189   1.247   2.274 -0.3196 -1.7245  1.1191
  150MOL    H3348011   0.205   1.388   2.356 -0.9107 -0.1149 -2.2774
  150MOL    C3448012   0.601   1.468   2.320  0.4376 -0.0628  0.2831
  150MOL    C3548013   0.600   1.459   2.172  0.6129  0.2237 -0.7443
  150MOL    O3648014   0.468   1.495   2.125  0.1879  0.3916 -0.7851
  150MOL    C3748015   0.370   1.406   2.068  0.1827  0.0157 -0.1447
  150MOL    C3848016   0.234   1.469   2.042  0.7321  0.7191 -0.0005
  150MOL    C3948017   0.424   1.367   1.930 -0.8183 -0.2505 -0.6183
  150MOL    H4048018   0.704   1.449   2.352  0.4764  0.2021  0.3140
  150MOL    H4148019   0.590   1.574   2.337  2.8042 -0.2765  3.5690
  150MOL    H4248020   0.625   1.361   2.131  1.1262 -1.0486  2.4473
  150MOL    H4348021   0.356   1.321   2.135 -0.3182 -0.1691 -0.4805
  150MOL    H4448022   0.177   1.484   2.134 -1.1025 -2.7373 -0.4778
  150MOL    H4548023   0.169   1.396   1.993  1.7396 -0.3420  0.2187
  150MOL    H4648024   0.234   1.557   1.978  0.9567 -0.3436 -1.4853
  150MOL    H4748025   0.509   1.299   1.942 -1.0925 -0.3507  0.8087
  150MOL    H4848026   0.353   1.314   1.866 -0.0364 -0.7904 -1.0648
  150MOL    H4948027   0.457   1.447   1.864 -1.0597  0.3035 -0.0617
  150MOL    C5048028   0.704   1.563   2.105 -0.3721  0.0784  0.1697
  150MOL    C5148029   0.778   1.501   1.980  0.0657  0.2607  0.5918
  150MOL    O5248030   0.874   1.418   2.036  0.1927  0.0414  0.4331
  150MOL    C5348031   0.932   1.313   1.976  0.4706 -0.2355 -1.4691
  150MOL    C5448032   0.831   1.209   1.949 -0.0414 -0.4686  0.3111
  150MOL    C5548033   1.030   1.263   2.073 -0.3383  0.0863 -0.8733
  150MOL    H5648034   0.655   1.654   2.070 -0.3002 -0.0823 -0.3459
  150MOL    H5748035   0.773   1.592   2.185  1.4799  0.8086 -1.6345
  150MOL    H5848036   0.714   1.434   1.922  1.5757  0.2801 -1.1346
  150MOL    H5948037   0.984   1.347   1.886  1.6568 -0.8213 -1.0144
  150MOL    H6048038   0.769   1.238   1.864  1.9300  1.1986 -0.5789
  150MOL    H6148039   0.755   1.188   2.025 -0.0793  1.1504  0.7483
  150MOL    H6248040   0.879   1.112   1.943  1.2035  0.0866  1.2080
  150MOL    H6348041   1.087   1.345   2.117  0.5571 -0.8801 -0.2106
  150MOL    H6448042   1.101   1.194   2.028  1.0213 -1.5584  3.5739
  150MOL    H6548043   0.987   1.207   2.155  1.5318  0.5438  0.4463
  150MOL    C6648044   0.844   1.599   1.875  1.0316 -0.0320 -0.1535
  150MOL    C6748045   0.759   1.639   1.753  0.5783 -0.1285 -0.2163
  150MOL    O6848046   0.847   1.685   1.647  0.0263 -0.0463 -0.7061
  150MOL    C6948047   0.928   1.592   1.576  0.0010 -0.1589  0.4443
  150MOL    C7048048   0.877   1.602   1.426 -0.1832 -0.0588 -0.0313
  150MOL    C7148049   1.074   1.633   1.576 -0.1372  0.1679 -0.5685
  150MOL    H7248050   0.877   1.687   1.931 -1.1429  0.9932 -0.4322
  150MOL    H7348051   0.942   1.564   1.842 -0.1753 -2.8606 -0.8755
  150MOL    H7448052   0.696   1.556   1.721 -1.9180  1.1136  1.3059
  150MOL    H7548053   0.908   1.491   1.611  1.3421 -0.5812  0.0289
  150MOL    H7648054   0.951   1.548   1.367  0.7166 -0.4574  1.4334
  150MOL    H7748055   0.781   1.554   1.408 -0.0159 -0.3000 -0.2862
  150MOL    H7848056   0.854   1.707   1.404  0.8621  0.1311 -0.2199
  150MOL    H7948057   1.134   1.558   1.525  0.3065  1.2521 -1.6720
  150MOL    H8048058   1.100   1.647   1.680  0.4076  2.6186 -1.0086
  150MOL    H8148059   1.088   1.730   1.528  2.2584 -0.3210 -0.8989
  150MOL    C8248060   0.675   1.767   1.778  0.5352 -0.0956 -0.3774
  150MOL    C8348061   0.566   1.783   1.673 -0.5633 -0.5751 -0.5815
  150MOL    O8448062   0.476   1.674   1.687 -0.3391  0.3938  0.5654
  150MOL    C8548063   0.403   1.630   1.575  0.8056 -1.0181 -0.5247
  150MOL    C8648064   0.259   1.622   1.623 -0.0196  0.3990 -0.4797
  150MOL    C8748065   0.458   1.505   1.524  0.0253 -0.5046  0.2398
  150MOL    H8848066   0.630   1.773   1.877  1.7117  3.5151  0.0070
  150MOL    H8948067   0.743   1.852   1.787  0.5548 -0.4741  3.6446
  150MOL    H9048068   0.616   1.773   1.576 -0.2230 -0.9329 -0.3707
  150MOL    H9148069   0.408   1.700   1.491 -0.1386 -1.4933 -0.9877
  150MOL    H9248070   0.240   1.558   1.709 -1.4717 -1.4389 -2.0889
  150MOL    H9348071   0.233   1.722   1.657  2.6525  0.3335  1.8928
  150MOL    H9448072   0.190   1.584   1.547  1.7047 -0.1115 -1.8336
  150MOL    H9548073   0.467   1.444   1.614  1.1387 -2.0622 -0.9174
  150MOL    H9648074   0.386   1.465   1.452 -1.6774  2.0833  0.4369
  150MOL    H9748075   0.549   1.520   1.466  1.2915 -2.8816  1.5658
  150MOL    C9848076   0.476   1.911   1.684 -0.4957  0.2817 -0.0154
  150MOL    C9948077   0.530   2.049   1.644 -0.6599  0.1559  0.4853
  150MOL   O10048078   0.615   2.038   1.529  0.2822 -0.5681  0.3599
  150MOL   C10148079   0.534   2.056   1.411  0.1499 -0.3149 -0.8765
  150MOL   C10248080   0.598   1.974   1.304 -0.0971  0.0748 -0.1441
  150MOL   C10348081   0.542   2.206   1.373  0.3596 -0.3954 -0.0925
  150MOL   H10448082   0.400   1.873   1.616  0.1538 -0.7212 -0.1959
  150MOL   H10548083   0.432   1.921   1.783  0.4957  0.1591  0.4463
  150MOL   H10648084   0.445   2.114   1.622  0.1447  1.1775  0.3432
  150MOL   H10748085   0.432   2.022   1.424 -0.1307  1.0373  0.6567
  150MOL   H10848086   0.688   2.019   1.261 -0.9919  2.3155  0.2351
  150MOL   H10948087   0.527   1.965   1.222  1.4326  0.4459 -1.5438
  150MOL   H11048088   0.628   1.875   1.339  4.6483  0.9704 -1.3184
  150MOL   H11148089   0.472   2.222   1.291  0.6487  0.2364 -0.2246
  150MOL   H11248090   0.633   2.236   1.320 -0.5030  2.3002 -0.1551
  150MOL   H11348091   0.512   2.265   1.460  1.2525 -0.3480  0.1899
  150MOL   C11448092   0.617   2.115   1.753 -0.0138  0.5354  0.0162
  150MOL   C11548093   0.561   2.128   1.904  0.2123  0.7641 -0.5392
  150MOL   O11648094   0.553   2.008   1.978  0.3949  0.7691 -0.9627
  150MOL   C11748095   0.419   1.985   2.036 -0.6182  0.6948  0.1056
  150MOL   C11848096   0.374   2.085   2.149  0.1883 -0.0542 -0.5550
  150MOL   C11948097   0.412   1.840   2.097  0.3929 -0.2802  0.7440
  150MOL   H12048098   0.650   2.213   1.718 -0.0814  0.3883 -0.4605
  150MOL   H12148099   0.701   2.046   1.757 -1.4193 -1.2418 -0.2534
  150MOL   H12248100   0.468   2.186   1.909  0.0232  0.3846  0.4183
  150MOL   H12348101   0.352   1.988   1.951  1.4625 -1.1805 -1.6532
  150MOL   H12448102   0.391   2.191   2.127  1.0716 -0.2802 -0.9707
  150MOL   H12548103   0.424   2.067   2.245 -0.3313  0.1368 -0.2442
  150MOL   H12648104   0.270   2.079   2.183  0.1378  0.0059 -0.6985
  150MOL   H12748105   0.428   1.763   2.022 -0.6039 -0.4884  0.7371
  150MOL   H12848106   0.316   1.815   2.143 -1.1175  0.9928 -1.5932
  150MOL   H12948107   0.478   1.825   2.183  1.9105 -6.2587 -1.2169
  150MOL   C13048108   0.667   2.203   1.986 -0.1403 -0.1986 -0.2514
  150MOL   C13148109   0.723   2.348   1.944  0.4370 -0.0701  0.4550
  150MOL   O13248110   0.828   2.412   2.022  0.1268  0.3783 -0.6520
  150MOL   C13348111   0.936   2.327   2.057 -0.0342  0.4859  0.0961
  150MOL   C13448112   1.008   2.279   1.931 -0.2318 -0.5514  1.1931
  150MOL   C13548113   1.020   2.411   2.151  0.5971 -0.4901 -0.1529
  150MOL   H13648114   0.749   2.131   1.981 -1.7860 -2.1733  0.6493
  150MOL   H13748115   0.642   2.201   2.092  1.6723 -0.5413  0.1927
  150MOL   H13848116   0.757   2.340   1.840  1.0636  2.8896  0.3789
  150MOL   H13948117   0.893   2.247   2.118  0.8855  0.2754  0.4737
  150MOL   H14048118   1.116   2.264   1.936 -0.1170 -0.7369 -1.0977
  150MOL   H14148119   0.997   2.348   1.847 -0.9368 -0.9113  0.9824
  150MOL   H14248120   0.967   2.187   1.890 -0.0404 -1.4367  2.9676
  150MOL   H14348121   1.103   2.354   2.193 -0.0199 -1.6461 -0.5102
  150MOL   H14448122   1.057   2.500   2.099 -0.6772  0.1733  0.0563
  150MOL   H14548123   0.957   2.445   2.233  0.8781  0.7199 -0.4238
  150MOL   C14648124   0.600   2.443   1.938  0.2191 -0.6387  0.0740
  150MOL   C14748125   0.628   2.567   1.843  0.7273 -0.0522 -0.3624
  150MOL   O14848126   0.644   2.521   1.712  0.1143 -0.1695 -0.4633
  150MOL   C14948127   0.729   2.598   1.632  0.0840 -0.1196  0.1722
  150MOL   C15048128   0.720   2.527   1.489  0.1728 -0.1373 -0.5931
  150MOL   C15148129   0.877   2.609   1.676  0.6745  0.3188  0.4219
  150MOL   H15248130   0.567   2.471   2.038 -0.6824 -1.8377  0.1167
  150MOL   H15348131   0.525   2.375   1.898  0.2198 -1.6313  1.7262
  150MOL   H15448132   0.719   2.616   1.876 -0.6468  2.1931  0.2151
  150MOL   H15548133   0.688   2.698   1.620  1.5183  0.4723  0.0972
  150MOL   H15648134   0.796   2.560   1.418  0.2078 -0.4275 -0.6884
  150MOL   H15748135   0.619   2.533   1.449 -0.4938 -1.4793  0.8319
  150MOL   H15848136   0.743   2.421   1.501  1.6904  0.0836 -1.4004
  150MOL   H15948137   0.928   2.513   1.688 -0.6984 -0.4132  0.4558
  150MOL   H16048138   0.871   2.659   1.773 -0.4040  0.9247  0.0439
  150MOL   H16148139   0.939   2.674   1.613 -0.6475 -0.7164 -2.0234
  150MOL   C16248140   0.524   2.681   1.871  0.0896 -0.2939  0.2931
  150MOL   C16348141   0.386   2.670   1.802 -0.3811  0.9245 -0.1777
  150MOL   O16448142   0.320   2.557   1.864 -0.1494  0.4294  0.0982
  150MOL   C16548143   0.212   2.497   1.791  0.0020  0.0501  0.1875
  150MOL   C16648144   0.112   2.446   1.891  0.6688  0.3220  0.1244
  150MOL   C16748145   0.269   2.398   1.691  0.2114 -0.1755 -0.2965
  150MOL   H16848146   0.509   2.699   1.978  0.0892 -0.1601  0.2711
  150MOL   H16948147   0.571   2.771   1.830  0.3303 -1.0712 -1.1575
  150MOL   H17048148   0.405   2.656   1.695 -0.7210  0.1566 -0.1407
  150MOL   H17148149   0.164   2.578   1.737  0.8585 -0.1951 -0.9618
  150MOL   H17248150   0.167   2.382   1.960 -0.1559 -1.8131 -1.1262
  150MOL   H17348151   0.033   2.387   1.845  1.7132  0.5615 -2.0605
  150MOL   H17448152   0.073   2.529   1.949 -0.6794 -1.7021  2.2199
  150MOL   H17548153   0.186   2.353   1.637 -0.0002  1.8254 -1.6664
  150MOL   H17648154   0.323   2.321   1.747  1.4300 -0.6415 -2.0944
  150MOL   H17748155   0.330   2.437   1.610  1.4708 -1.0544  0.2155
  150MOL   C17848156   0.315   2.804   1.815  0.4050 -0.6267  1.0391
  150MOL   C17948157   0.315   2.898   1.679 -0.0474 -0.0303 -0.4132
  150MOL   O18048158   0.250   3.022   1.712 -0.4033 -0.0482 -0.2874
  150MOL   C18148159   0.112   3.023   1.730  0.3503  0.5392 -0.0085
  150MOL   C18248160   0.041   2.960   1.611 -0.1904 -0.0303  0.4985
  150MOL   C18348161   0.072   3.166   1.759 -0.2219  0.2441  0.3470
  150MOL   H18448162   0.356   2.861   1.899  1.4656 -0.0467  0.1546
  150MOL   H18548163   0.214   2.779   1.845 -0.2752  1.2790  0.4040
  150MOL   H18648164   0.271   2.830   1.606  1.4021 -0.1468 -1.1979
  150MOL   H18748165   0.078   2.968   1.819 -0.8313  0.8760 -0.2495
  150MOL   H18848166   7.753   2.978   1.612 -0.0692  0.7289  2.1363
  150MOL   H18948167   0.054   2.852   1.600 -0.7108  0.0805 -1.3350
  150MOL   H19048168   0.080   3.003   1.519 -1.0228  0.3545  0.3203
  150MOL   H19148169   0.129   3.214   1.838  0.1000  1.9427 -0.8902
  150MOL   H19248170   7.787   3.179   1.784 -0.2690  1.9886 -0.6929
  150MOL   H19348171   0.083   3.231   1.672  0.0684  0.7782  0.7823
  150MOL   C19448172   0.449   2.948   1.617  0.2074  0.7078  0.3873
  150MOL   C19548173   0.434   3.006   1.474 -0.5109 -0.0572 -1.0365
  150MOL   O19648174   0.560   2.979   1.410 -0.4090 -0.1681  0.8941
  150MOL   C19748175   0.568   2.859   1.336 -0.6632 -0.1304 -0.3767
  150MOL   C19848176   0.487   2.874   1.207  0.6267  0.6373 -0.3034
  150MOL   C19948177   0.720   2.843   1.314 -0.0591 -0.0633  0.2593
  150MOL   H20048178   0.500   3.020   1.682  2.3494  1.0311 -1.6094
  150MOL   H20148179   0.510   2.858   1.607 -0.2644  0.2968  1.1538
  150MOL   H20248180   0.351   2.960   1.421  0.5404 -0.5825 -2.2458
  150MOL   H20348181   0.530   2.771   1.389  0.9849  0.2954  1.5379
  150MOL   H20448182   0.483   2.781   1.152 -0.3443  0.9940 -0.8552
  150MOL   H20548183   0.379   2.879   1.225  0.9692  0.2933  2.0639
  150MOL   H20648184   0.529   2.952   1.143  0.8399  0.7197 -0.0628
  150MOL   H20748185   0.734   2.764   1.240 -0.0949  1.1419 -1.0610
  150MOL   H20848186   0.772   2.927   1.267 -0.7627  0.1228 -0.1946
  150MOL   H20948187   0.778   2.813   1.402  0.0939  0.0853  0.2103
  150MOL   C21048188   0.426   3.158   1.480  0.0654  0.6006  0.2237
  150MOL   C21148189   0.374   3.222   1.348  0.7145 -0.3851  0.0584
  150MOL   O21248190   0.239   3.166   1.336  0.6680  0.2352  0.3422
  150MOL   C21348191   0.188   3.142   1.204 -0.3027  0.2668  0.0032
  150MOL   C21448192   0.086   3.039   1.224  0.0217 -0.1038  0.0718
  150MOL   C21548193   0.125   3.270   1.142  0.1982  0.6102 -0.3265
  150MOL   H21648194   0.524   3.198   1.506  0.1162 -0.0695  1.0791
  150MOL   H21748195   0.361   3.184   1.563 -2.2150  0.2632 -1.4258
  150MOL   H21848196   0.436   3.189   1.265 -0.3573 -2.8907  0.2033
  150MOL   H21948197   0.265   3.100   1.139 -0.6988  0.3644 -0.5376
  150MOL   H22048198   0.009   3.066   1.296  1.6294 -0.3361  1.9125
  150MOL   H22148199   0.136   2.953   1.268 -1.0895 -0.2297  1.1005
  150MOL   H22248200   0.034   3.003   1.135 -0.7877 -0.1347  0.5491
  150MOL   H22348201   0.068   3.322   1.219 -0.0559  3.8241 -2.5675
  150MOL   H22448202   0.079   3.254   1.045 -0.6505 -0.6103  0.2658
  150MOL   H22548203   0.216   3.321   1.111  1.6146 -1.6791 -0.0758
  150MOL   C22648204   0.366   3.376   1.364 -0.6210 -0.0843 -0.0435
  150MOL   C22748205   0.507   3.444   1.350  1.1165  0.1079 -0.1379
  150MOL   O22848206   0.479   3.580   1.389  0.1639  0.7888  0.5647
  150MOL   C22948207   0.505   3.612   1.530 -0.8747  0.1311 -0.4421
  150MOL   C23048208   0.419   3.733   1.564 -0.2161 -0.0792 -0.1185
  150MOL   C23148209   0.648   3.640   1.553 -0.1376  0.3412  0.2334
  150MOL   H23248210   0.312   3.396   1.457  1.8434 -0.3866  1.5139
  150MOL   H23348211   0.305   3.418   1.285 -3.2121 -0.3376  1.7657
  150MOL   H23448212   0.586   3.402   1.412  1.4867  1.2516  0.1733
  150MOL   H23548213   0.479   3.525   1.590  0.0683  0.4180  0.3894
  150MOL   H23648214   0.437   3.757   1.669  0.8806 -0.6160 -0.1713
  150MOL   H23748215   0.441   3.818   1.498  2.8421 -1.2126 -0.6399
  150MOL   H23848216   0.314   3.714   1.546 -0.4907  0.9224  0.3873
  150MOL   H23948217   0.670   3.681   1.652  0.6192  1.3528 -0.3374
  150MOL   H24048218   0.681   3.715   1.480  1.2175  0.3774  0.8599
  150MOL   H24148219   0.709   3.552   1.529  0.2401  1.0047 -1.3412
  150MOL   C24248220   0.545   3.454   1.199  0.6126 -0.0573  0.5631
  150MOL   C24348221   0.685   3.517   1.185 -0.1211  0.3864 -0.3324
  150MOL   O24448222   0.713   3.520   1.041  0.0319 -0.4933  0.3609
  150MOL   C24548223   0.645   3.626   0.972  0.9845  0.0654  0.1470
  150MOL   C24648224   0.752   3.695   0.896 -0.0287  0.3248 -0.2121
  150MOL   C24748225   0.533   3.584   0.873 -0.2033  0.2281 -0.3851
  150MOL   H24848226   0.534   3.354   1.157 -0.2216 -0.8291  2.5460
  150MOL   H24948227   0.475   3.515   1.143 -1.9012 -0.6967  2.9093
  150MOL   H25048228   0.694   3.617   1.228  0.6170  0.1955 -0.0301
  150MOL   H25148229   0.603   3.698   1.042 -0.7379 -1.2819  0.5336
  150MOL   H25248230   0.824   3.733   0.969  0.5279  0.6311 -0.9061
  150MOL   H25348231   0.819   3.643   0.826  1.5647 -0.6744  1.9858
  150MOL   H25448232   0.715   3.779   0.837  1.7940  2.2932  1.3613
  150MOL   H25548233   0.520   3.670   0.807 -0.7987  2.5507  2.6230
  150MOL   H25648234   0.568   3.500   0.813 -1.9844 -0.6079 -0.2856
  150MOL   H25748235   0.442   3.557   0.926 -0.1243  1.1003  0.2094
  150MOL   C25848236   0.796   3.422   1.240 -0.5373  0.8310  0.2711
  150MOL   C25948237   0.940   3.474   1.207 -0.3549  0.3089 -1.1675
  150MOL   O26048238   1.041   3.384   1.241 -0.2877  0.5080  0.0733
  150MOL   C26148239   1.077   3.282   1.153 -0.6390  0.1553 -0.0351
  150MOL   C26248240   1.206   3.323   1.084  0.0356  0.5862  0.1474
  150MOL   C26348241   1.102   3.158   1.236  0.1477 -0.6621 -0.1578
  150MOL   H26448242   0.786   3.418   1.349  2.3770  0.9523  0.5972
  150MOL   H26548243   0.782   3.320   1.204  3.5488  0.0468  0.6180
  150MOL   H26648244   0.944   3.486   1.099 -0.6940 -0.2407 -1.2420
  150MOL   H26748245   0.993   3.273   1.084  0.0633 -0.5031 -0.8147
  150MOL   H26848246   1.231   3.260   1.000  0.0768 -0.7088  1.1174
  150MOL   H26948247   1.282   3.339   1.160 -0.1469  0.2237  0.4087
  150MOL   H27048248   1.195   3.421   1.038 -2.0194 -0.8858 -2.6563
  150MOL   H27148249   1.179   3.092   1.196 -1.0317 -3.4322  2.0020
  150MOL   H27248250   1.135   3.186   1.337  1.6815 -2.6353 -0.0912
  150MOL   H27348251   1.008   3.106   1.254 -0.6499  0.6212 -0.5273
  150MOL   C27448252   0.955   3.613   1.275  0.0597  0.8699  0.2172
  150MOL   C27548253   1.095   3.678   1.257 -0.0011 -0.3889  0.2436
  150MOL   O27648254   1.074   3.815   1.290  0.7281  0.2988  0.6443
  150MOL   C27748255   1.057   3.896   1.174  0.0363  0.0526  0.4101
  150MOL   C27848256   1.187   3.961   1.135  0.3011  0.4189  0.5098
  150MOL   C27948257   0.953   4.005   1.205  0.1630 -0.5887  0.0119
  150MOL   H28048258   0.886   3.685   1.232 -0.6654 -0.5014 -0.9352
  150MOL   H28148259   0.932   3.604   1.381 -1.3959 -2.2992 -0.3070
  150MOL   H28248260   1.134   3.661   1.157  0.3369  0.1211  0.2875
  150MOL   H28348261   1.016   3.846   1.087  0.5852  1.0874 -0.4610
  150MOL   H28448262   1.181   4.033   1.053  1.0825 -1.6529 -1.4192
  150MOL   H28548263   1.241   4.005   1.219 -1.5764  2.6781  0.5936
  150MOL   H28648264   1.250   3.880   1.098  0.9985  1.2656 -0.1828
  150MOL   H28748265   0.973   4.045   1.304 -0.6422  2.1016 -0.8595
  150MOL   H28848266   0.857   3.954   1.210  0.2345 -0.6742  0.4811
  150MOL   H28948267   0.936   4.093   1.142  3.5432  0.3090  0.2179
  150MOL   C29048268   1.206   3.628   1.355 -0.6273 -0.4097  0.1151
  150MOL   C29148269   1.349   3.674   1.331  0.1746 -0.3356 -0.7159
  150MOL   O29248270   1.431   3.628   1.434 -0.2567 -0.5281 -0.1203
  150MOL   C29348271   1.412   3.699   1.556 -0.2556  0.0650  0.0369
  150MOL   C29448272   1.529   3.795   1.579 -0.4201  0.0488  0.0048
  150MOL   C29548273   1.410   3.611   1.681  0.5805  0.0245 -0.3022
  150MOL   H29648274   1.206   3.519   1.344  0.9019 -0.2822 -1.2273
  150MOL   H29748275   1.166   3.636   1.456 -1.1976  0.3234 -0.1664
  150MOL   H29848276   1.348   3.783   1.327  1.0856 -0.2580  0.6774
  150MOL   H29948277   1.321   3.759   1.559  0.3932  1.0719 -0.4565
  150MOL   H30048278   1.563   3.851   1.491 -1.7371 -2.4714 -2.1706
  150MOL   H30148279   1.522   3.854   1.671  0.5249  0.4312 -0.1593
  150MOL   H30248280   1.616   3.731   1.588 -0.3830 -0.2125 -2.0111
  150MOL   H30348281   1.369   3.667   1.765  0.1898  0.2962 -0.6744
  150MOL   H30448282   1.339   3.530   1.661  0.0713  0.1426  0.9652
  150MOL   H30548283   1.498   3.555   1.715 -0.0632  0.4658  2.2025
  150MOL   C30648284   1.414   3.628   1.195 -0.1501 -0.0200 -0.3992
  150MOL   C30748285   1.548   3.688   1.170 -0.2557 -0.2869 -0.1196
  150MOL   O30848286   1.589   3.630   1.049  0.5571 -0.6320 -0.4699
  150MOL   C30948287   1.718   3.669   1.014 -0.8409  0.4079 -0.2819
  150MOL   C31048288   1.807   3.568   1.074  0.3079  0.7892 -0.2987
  150MOL   C31148289   1.729   3.695   0.865 -0.1039 -0.3371 -0.1361
  150MOL   H31248290   1.352   3.633   1.105 -3.3524 -1.3795  1.6221
  150MOL   H31348291   1.421   3.519   1.202 -0.9887 -0.0991 -0.7246
  150MOL   H31448292   1.533   3.796   1.166  1.0226 -0.1200 -0.7830
  150MOL   H31548293   1.742   3.765   1.058 -0.4798  0.3342 -0.3204
  150MOL   H31648294   1.778   3.467   1.044  0.0795  1.4399 -2.3872
  150MOL   H31748295   1.785   3.569   1.180 -2.1240 -0.4293 -0.7441
  150MOL   H31848296   1.913   3.592   1.061  0.3063  1.1865  0.4444
  150MOL   H31948297   1.746   3.602   0.811  1.8846 -2.0639  3.2955
  150MOL   H32048298   1.811   3.767   0.860 -0.4461 -0.0420 -1.9025
  150MOL   H32148299   1.634   3.735   0.831 -0.6308  0.1395  1.8394
  150MOL   H32248300   1.607   3.663   1.259 -0.8569 -3.0270 -0.4796
  151MOL     C148301   2.671   3.660   1.023  0.1596 -0.4280 -0.7264
  151MOL     C248302   2.524   3.633   1.056 -0.0942  0.2699 -0.1801
  151MOL     O348303   2.491   3.728   1.155  0.1691  0.1628 -0.2424
  151MOL     C448304   2.536   3.715   1.288  0.3155  0.4608  0.0297
  151MOL     C548305   2.476   3.598   1.374 -0.2461  0.0734 -0.4973
  151MOL     C648306   2.496   3.847   1.359 -0.6105  0.0201  0.5775
  151MOL     H748307   2.712   3.603   0.939 -2.5397 -1.9058 -1.0940
  151MOL     H848308   2.701   3.763   1.005  1.9232 -0.8886 -0.5392
  151MOL     H948309   2.515   3.530   1.091  1.1916  0.4209  0.6229
  151MOL    H1048310   2.645   3.713   1.290  0.3108 -1.4040 -0.6094
  151MOL    H1148311   2.503   3.610   1.479 -1.8227 -0.1448 -0.0549
  151MOL    H1248312   2.368   3.586   1.370 -0.1924 -0.0337 -1.7309
  151MOL    H1348313   2.514   3.499   1.350  3.1241  0.9931  0.8029
  151MOL    H1448314   2.389   3.864   1.356 -0.5095  0.5561 -0.5167
  151MOL    H1548315   2.532   3.876   1.458 -1.8043  3.6279  0.0354
  151MOL    H1648316   2.527   3.930   1.295  0.2299 -0.9766 -0.3474
  151MOL    H1748317   2.734   3.637   1.109 -0.2813  1.5834  0.1553
  151MOL    C1848318   2.428   3.652   0.936 -0.1109 -0.6231  0.0836
  151MOL    C1948319   2.287   3.606   0.979  0.0877 -0.4535  0.1715
  151MOL    O2048320   2.276   3.467   0.944 -0.4111 -0.3048  0.3371
  151MOL    C2148321   2.171   3.391   0.999  0.1108 -0.4733  0.3249
  151MOL    C2248322   2.236   3.262   1.052  0.4414  0.3759  0.0971
  151MOL    C2348323   2.060   3.367   0.899  0.4876  0.1401  0.5136
  151MOL    H2448324   2.433   3.748   0.885  1.8919 -0.9434 -0.3999
  151MOL    H2548325   2.463   3.590   0.853  1.8984  0.6518 -0.0570
  151MOL    H2648326   2.287   3.616   1.087 -1.3631 -2.4165  0.3864
  151MOL    H2748327   2.126   3.432   1.090  0.2013  0.0876  0.1212
  151MOL    H2848328   2.299   3.290   1.137  1.6958 -0.4114 -0.5501
  151MOL    H2948329   2.161   3.190   1.086 -0.6116  0.1396 -2.6344
  151MOL    H3048330   2.304   3.216   0.980  0.1365 -0.5522  0.3870
  151MOL    H3148331   1.976   3.311   0.941 -0.7359  1.7199  0.2436
  151MOL    H3248332   2.103   3.309   0.817  1.6660 -0.7776  1.7781
  151MOL    H3348333   2.018   3.459   0.859 -2.8357 -1.7723 -0.6898
  151MOL    C3448334   2.181   3.699   0.918  0.2302 -0.1313  0.0549
  151MOL    C3548335   2.172   3.837   0.989  0.0079  0.1643  0.0484
  151MOL    O3648336   2.091   3.896   0.893  0.1966  0.0194  0.3818
  151MOL    C3748337   2.113   4.035   0.858 -0.1246 -0.2201 -0.0381
  151MOL    C3848338   2.241   4.057   0.779 -0.0547  0.4305  0.2906
  151MOL    C3948339   1.989   4.076   0.785 -0.5743  0.3694  0.1265
  151MOL    H4048340   2.085   3.648   0.928  0.8608 -1.5853 -1.1854
  151MOL    H4148341   2.205   3.689   0.812 -0.8980  0.0347 -0.2165
  151MOL    H4248342   2.270   3.884   0.991  1.2944 -2.3314 -1.8948
  151MOL    H4348343   2.111   4.096   0.948  0.2145 -1.1957  0.6472
  151MOL    H4448344   2.228   3.988   0.695 -0.7199  0.3372  0.4694
  151MOL    H4548345   2.332   4.020   0.826 -0.5984  1.0144  1.8269
  151MOL    H4648346   2.260   4.154   0.732 -1.0026  1.1444  1.3424
  151MOL    H4748347   1.978   4.184   0.771 -0.1623  0.3976  0.0024
  151MOL    H4848348   1.990   4.036   0.684 -1.8115 -0.1329  0.3153
  151MOL    H4948349   1.905   4.030   0.836  0.5013 -0.7178  0.9504
  151MOL    C5048350   2.121   3.835   1.136  0.1993 -0.2654  0.5406
  151MOL    C5148351   2.099   3.970   1.200 -0.1434 -0.9221 -0.5952
  151MOL    O5248352   2.229   4.045   1.197 -0.6857  0.4985  0.3877
  151MOL    C5348353   2.216   4.179   1.243  0.0652 -0.2688  0.2115
  151MOL    C5448354   2.256   4.264   1.123 -0.1099  0.8974 -0.6410
  151MOL    C5548355   2.301   4.195   1.369 -0.7068 -0.1125  0.2816
  151MOL    H5648356   2.026   3.781   1.141 -0.9484  1.7260  0.5327
  151MOL    H5748357   2.194   3.777   1.193  1.4964  1.1228  0.3196
  151MOL    H5848358   2.039   4.034   1.135 -0.1888 -0.3428  0.0114
  151MOL    H5948359   2.113   4.206   1.267 -0.0524 -0.4152 -0.1290
  151MOL    H6048360   2.359   4.241   1.094 -0.1445 -1.3601  0.9155
  151MOL    H6148361   2.263   4.367   1.156 -1.3935  1.0755 -0.8976
  151MOL    H6248362   2.186   4.260   1.039 -0.1895 -0.2892 -0.5262
  151MOL    H6348363   2.296   4.111   1.439  1.8493  0.6610  1.4520
  151MOL    H6448364   2.276   4.285   1.424  0.0730 -0.6268  1.4933
  151MOL    H6548365   2.407   4.198   1.344 -1.3074  0.4931 -2.3387
  151MOL    C6648366   2.056   3.955   1.349 -0.3967  0.2699  0.2754
  151MOL    C6748367   1.912   3.893   1.383 -0.7025  0.7078 -1.2080
  151MOL    O6848368   1.913   3.749   1.361 -0.2446 -0.0933 -0.2510
  151MOL    C6948369   1.974   3.665   1.454  0.6197 -0.2303  0.6379
  151MOL    C7048370   1.871   3.641   1.570  0.5854  0.2799 -0.6483
  151MOL    C7148371   2.008   3.539   1.381 -0.4091  0.0912  0.0736
  151MOL    H7248372   2.135   3.903   1.402 -0.5090  1.1127  1.2960
  151MOL    H7348373   2.065   4.048   1.405 -0.7573 -0.4321  1.5206
  151MOL    H7448374   1.890   3.909   1.488 -1.0918  2.3662 -1.5333
  151MOL    H7548375   2.061   3.702   1.509 -0.2295 -1.9730  3.2959
  151MOL    H7648376   1.906   3.564   1.639  1.0617  0.4475 -0.7018
  151MOL    H7748377   1.853   3.727   1.634  1.0388 -0.1703  0.0929
  151MOL    H7848378   1.777   3.610   1.524 -1.3734  0.6353  2.9388
  151MOL    H7948379   2.072   3.567   1.297  0.6379 -0.1199  0.7903
  151MOL    H8048380   1.931   3.473   1.342  1.2694 -1.4136 -0.8299
  151MOL    H8148381   2.075   3.487   1.450  0.3146  1.8675  0.7303
  151MOL    C8248382   1.800   3.945   1.297 -0.5156 -0.5547  0.1627
  151MOL    C8348383   1.776   4.091   1.302  0.2954 -0.4223  0.1175
  151MOL    O8448384   1.694   4.125   1.190  0.3830  0.4708  0.1542
  151MOL    C8548385   1.750   4.155   1.066 -0.2303 -0.1299 -0.2744
  151MOL    C8648386   1.795   4.300   1.063  0.7503  0.0377  0.1906
  151MOL    C8748387   1.637   4.135   0.970  0.6285  0.0746 -0.6319
  151MOL    H8848388   1.827   3.918   1.194 -2.9808  1.7499 -1.1606
  151MOL    H8948389   1.709   3.893   1.326 -0.9917 -0.5269 -1.2244
  151MOL    H9048390   1.870   4.145   1.307  0.9267 -1.2054 -2.3789
  151MOL    H9148391   1.828   4.087   1.032  0.8820  0.7204  0.5672
  151MOL    H9248392   1.862   4.329   1.144 -0.7777 -2.1032  2.2770
  151MOL    H9348393   1.846   4.328   0.971  1.4651 -1.1406  0.2103
  151MOL    H9448394   1.711   4.369   1.061 -0.1642 -1.0934 -0.9341
  151MOL    H9548395   1.602   4.032   0.965 -1.6464  0.7537  0.6652
  151MOL    H9648396   1.558   4.197   1.012  1.4093 -0.9851  2.5820
  151MOL    H9748397   1.669   4.167   0.871 -1.2099 -0.0140 -1.2659
  151MOL    C9848398   1.691   4.122   1.420 -0.2762 -0.0235  0.5983
  151MOL    C9948399   1.679   4.272   1.446  0.6802  0.4533  0.4761
  151MOL   O10048400   1.769   4.321   1.544  0.0156 -0.3400  0.8818
  151MOL   C10148401   1.879   4.393   1.491 -0.0494 -0.2156  0.0783
  151MOL   C10248402   1.997   4.353   1.578  0.0484 -0.3378 -0.2798
  151MOL   C10348403   1.836   4.541   1.486 -0.5142 -1.2435 -0.7976
  151MOL   H10448404   1.594   4.079   1.392  0.1276 -0.7652  0.3229
  151MOL   H10548405   1.719   4.072   1.513  1.0018 -1.1559 -0.3704
  151MOL   H10648406   1.700   4.314   1.347 -1.5436 -0.9030 -0.6285
  151MOL   H10748407   1.921   4.357   1.397  3.5276  0.4414  1.3628
  151MOL   H10848408   2.092   4.391   1.540  1.2167 -1.8393  1.0640
  151MOL   H10948409   2.020   4.246   1.573  0.7050 -0.1994 -0.1799
  151MOL   H11048410   1.973   4.368   1.683 -0.0994 -1.4768 -0.1423
  151MOL   H11148411   1.744   4.553   1.427  0.2220 -1.0732 -1.9263
  151MOL   H11248412   1.906   4.611   1.441 -2.0133  1.5220  0.9994
  151MOL   H11348413   1.814   4.575   1.587  0.2620  0.9744 -1.3453
  151MOL   C11448414   1.538   4.312   1.490 -0.8916  0.2108  0.6326
  151MOL   C11548415   1.507   4.310   1.643  0.0333  1.5456 -0.7101
  151MOL   O11648416   1.382   4.382   1.662  0.3602  0.1717  1.2744
  151MOL   C11748417   1.397   4.507   1.726 -0.8404 -0.7595  1.1634
  151MOL   C11848418   1.261   4.550   1.785 -0.4026  0.0781  0.2859
  151MOL   C11948419   1.445   4.621   1.635 -0.2825 -0.4595  0.1373
  151MOL   H12048420   1.470   4.242   1.441  1.1483 -1.6711  0.4262
  151MOL   H12148421   1.528   4.412   1.446 -0.8084 -0.1958 -0.3210
  151MOL   H12248422   1.583   4.368   1.696  0.9371  0.2289 -0.5405
  151MOL   H12348423   1.453   4.504   1.819 -0.7138  1.7811  1.2062
  151MOL   H12448424   1.189   4.566   1.705 -0.0110  2.4659  0.3553
  151MOL   H12548425   1.268   4.647   1.835  0.3609 -1.3655  3.0651
  151MOL   H12648426   1.212   4.482   1.854 -1.5154 -0.0575 -0.6215
  151MOL   H12748427   1.547   4.607   1.600  0.3541  1.2608  1.2635
  151MOL   H12848428   1.449   4.717   1.685 -1.2559 -0.1383 -0.3975
  151MOL   H12948429   1.379   4.634   1.549 -0.6961 -1.1716  0.3396
  151MOL   C13048430   1.490   4.173   1.703 -0.3162 -0.2444 -0.0725
  151MOL   C13148431   1.463   4.169   1.855  0.1318  0.3410 -0.1089
  151MOL   O13248432   1.551   4.078   1.919 -0.0302  0.1645 -0.2141
  151MOL   C13348433   1.686   4.118   1.936  0.1649  0.2712  0.7388
  151MOL   C13448434   1.711   4.193   2.067  0.0576  0.2847 -0.2865
  151MOL   C13548435   1.779   4.007   1.919  0.1842  0.5463  0.3241
  151MOL   H13648436   1.582   4.119   1.680 -0.0623 -0.1153  0.6049
  151MOL   H13748437   1.412   4.125   1.644 -0.8158  0.5964 -0.1041
  151MOL   H13848438   1.494   4.258   1.908 -2.6796  0.9054  0.6805
  151MOL   H13948439   1.711   4.188   1.857  3.8886 -1.3435  0.3801
  151MOL   H14048440   1.640   4.276   2.069  0.2434  0.4510 -0.4519
  151MOL   H14148441   1.810   4.240   2.063  0.1958 -0.0811 -1.5842
  151MOL   H14248442   1.714   4.123   2.150 -0.5853  1.6890  0.9224
  151MOL   H14348443   1.792   3.960   2.017 -0.3153  0.0767  0.1630
  151MOL   H14448444   1.743   3.938   1.844 -1.2087  2.8672 -1.1850
  151MOL   H14548445   1.875   4.049   1.889  0.2839  2.3752  3.0242
  151MOL   C14648446   1.317   4.142   1.887 -0.3136 -0.1729 -0.5697
  151MOL   C14748447   1.276   4.164   2.033  0.2450 -0.7879 -0.6683
  151MOL   O14848448   1.266   4.303   2.059  0.0529 -0.5820 -0.1499
  151MOL   C14948449   1.259   4.350   2.198  0.1836  0.7087  1.0288
  151MOL   C15048450   1.158   4.462   2.202 -0.4507 -0.3264  0.2974
  151MOL   C15148451   1.398   4.395   2.233 -0.1113 -0.0351 -0.7112
  151MOL   H15248452   1.316   4.033   1.875 -1.4934 -0.3498  1.0688
  151MOL   H15348453   1.256   4.198   1.816 -0.5558  0.5408  0.2000
  151MOL   H15448454   1.345   4.119   2.105  0.3572 -0.1090 -0.3427
  151MOL   H15548455   1.225   4.268   2.261 -1.0520 -1.3671 -2.1982
  151MOL   H15648456   1.187   4.551   2.147  1.6247 -2.1642 -1.6834
  151MOL   H15748457   1.136   4.488   2.306  0.0648 -0.4152  0.4320
  151MOL   H15848458   1.064   4.423   2.163  0.1304  0.5804 -2.1112
  151MOL   H15948459   1.463   4.312   2.261 -0.4868 -0.3524 -0.7874
  151MOL   H16048460   1.384   4.454   2.323  0.5817  0.0372 -0.6439
  151MOL   H16148461   1.454   4.442   2.152  1.1646 -1.5860 -0.7588
  151MOL   C16248462   1.134   4.100   2.055 -0.0512 -0.3932 -0.2143
  151MOL   C16348463   1.133   3.946   2.068 -0.4915  0.2253 -0.1711
  151MOL   O16448464   1.212   3.906   2.181  1.0078  0.3507 -0.3478
  151MOL   C16548465   1.325   3.823   2.142  0.4321 -0.7725  0.0122
  151MOL   C16648466   1.280   3.671   2.127  0.1596 -0.3515 -0.1531
  151MOL   C16748467   1.441   3.849   2.247 -0.5105  0.3331 -0.8171
  151MOL   H16848468   1.087   4.143   2.143 -0.7481 -1.6586  0.0317
  151MOL   H16948469   1.066   4.134   1.977 -1.0300  0.3368  0.9488
  151MOL   H17048470   1.173   3.898   1.979 -0.9304  0.1611 -0.3392
  151MOL   H17148471   1.365   3.858   2.047  0.7242  0.0405  0.4239
  151MOL   H17248472   1.233   3.641   2.220 -0.0234 -0.2382 -0.2071
  151MOL   H17348473   1.367   3.607   2.116 -1.0819 -2.0183 -0.4873
  151MOL   H17448474   1.214   3.640   2.046 -0.4578 -1.1244  0.6358
  151MOL   H17548475   1.407   3.853   2.351  1.7212 -0.6506 -0.0087
  151MOL   H17648476   1.478   3.951   2.238  0.1308  0.3549  1.6205
  151MOL   H17748477   1.531   3.789   2.234 -1.6248 -1.5423 -0.2133
  151MOL   C17848478   0.989   3.895   2.084  0.2652 -0.6304  0.9662
  151MOL   C17948479   0.908   3.887   1.959 -0.0726 -0.2053  0.2467
  151MOL   O18048480   0.965   3.777   1.888 -0.6288 -0.4071  0.6543
  151MOL   C18148481   0.939   3.783   1.751  0.8356 -0.3413 -0.5260
  151MOL   C18248482   0.960   3.633   1.704 -0.4706 -0.6452 -0.4801
  151MOL   C18348483   1.036   3.873   1.672 -0.3661 -0.0416 -0.1532
  151MOL   H18448484   0.935   3.951   2.162  0.9927  1.1038  0.2452
  151MOL   H18548485   0.989   3.793   2.121  1.1180 -0.7630  0.6090
  151MOL   H18648486   0.923   3.976   1.898  0.3458 -1.5260 -1.6240
  151MOL   H18748487   0.838   3.821   1.734  1.2816 -0.0265 -2.6162
  151MOL   H18848488   0.942   3.628   1.596  0.4824 -0.1023 -0.6679
  151MOL   H18948489   0.900   3.565   1.765 -1.0265  1.1329  0.9785
  151MOL   H19048490   1.067   3.618   1.719 -0.6901 -1.4342  0.3437
  151MOL   H19148491   1.029   3.981   1.664  0.7524  0.2538  2.3564
  151MOL   H19248492   1.027   3.843   1.568 -2.6555 -2.0719  0.5798
  151MOL   H19348493   1.138   3.858   1.708 -0.3890 -1.5746 -0.6597
  151MOL   C19448494   0.759   3.853   1.990 -1.4890  0.7934  0.0843
  151MOL   C19548495   0.661   3.966   1.993  0.3346 -0.1029 -0.0102
  151MOL   O19648496   0.541   3.932   2.056  0.4343  0.3606 -0.4739
  151MOL   C19748497   0.516   3.961   2.197 -0.4619  0.6895 -1.0204
  151MOL   C19848498   0.369   3.992   2.217  0.3341  0.3984  0.3379
  151MOL   C19948499   0.554   3.836   2.294 -0.8683  0.0749 -0.1439
  151MOL   H20048500   0.727   3.785   1.911 -2.1488  2.4002 -1.0573
  151MOL   H20148501   0.754   3.797   2.084 -1.5494  0.7905  0.0796
  151MOL   H20248502   0.708   4.053   2.041 -1.0229  1.4027 -1.3629
  151MOL   H20348503   0.568   4.054   2.220  0.7428  0.3512 -2.2831
  151MOL   H20448504   0.325   3.892   2.215  1.0748  0.0886 -1.3835
  151MOL   H20548505   0.357   4.040   2.314 -1.7157  1.1197 -0.2581
  151MOL   H20648506   0.331   4.059   2.140 -0.0424  0.7168  0.7965
  151MOL   H20748507   0.508   3.747   2.250 -0.2045 -0.2721 -0.1450
  151MOL   H20848508   0.660   3.811   2.305 -1.4810 -1.5723  2.5035
  151MOL   H20948509   0.507   3.855   2.390  0.5428  2.0640  0.1870
  151MOL   C21048510   0.619   4.023   1.853  0.2594  0.2610 -0.4299
  151MOL   C21148511   0.557   4.166   1.865 -0.3146  0.7032 -0.1530
  151MOL   O21248512   0.655   4.254   1.926  0.7326  0.0380 -0.3678
  151MOL   C21348513   0.602   4.371   1.992  0.2212  0.3290  0.6793
  151MOL   C21448514   0.541   4.324   2.132  0.3365 -0.5317  1.0069
  151MOL   C21548515   0.719   4.469   2.014 -0.6034 -0.3110 -0.5720
  151MOL   H21648516   0.555   3.948   1.807  0.4216 -0.3862  0.3836
  151MOL   H21748517   0.708   4.036   1.792  1.3339  0.9499  1.2216
  151MOL   H21848518   0.464   4.159   1.920 -2.0026 -0.4931 -3.0423
  151MOL   H21948519   0.529   4.434   1.940 -0.8538 -1.9538 -0.6529
  151MOL   H22048520   0.445   4.273   2.125 -0.0716 -0.0537  2.6821
  151MOL   H22148521   0.516   4.410   2.195  2.5660  1.1599 -0.3624
  151MOL   H22248522   0.629   4.270   2.168  0.2715 -1.3954 -0.1007
  151MOL   H22348523   0.770   4.488   1.920 -1.3901  0.0598 -0.9295
  151MOL   H22448524   0.797   4.425   2.077  0.5752  2.8293  0.2419
  151MOL   H22548525   0.677   4.565   2.042  1.2941  0.1243  0.8694
  151MOL   C22648526   0.521   4.237   1.736  0.4905 -0.0634 -0.2061
  151MOL   C22748527   0.427   4.165   1.631  0.2025  0.3081  0.2662
  151MOL   O22848528   0.514   4.078   1.556 -0.1448 -1.3425  0.1024
  151MOL   C22948529   0.614   4.126   1.463 -0.2595 -0.4506 -0.2131
  151MOL   C23048530   0.568   4.102   1.317  0.1656  0.1736  0.2203
  151MOL   C23148531   0.741   4.054   1.491 -0.7383 -0.0414  0.0149
  151MOL   H23248532   0.614   4.273   1.692 -0.5848  0.4773 -2.0991
  151MOL   H23348533   0.471   4.332   1.758 -0.7694 -1.1250  1.6404
  151MOL   H23448534   0.353   4.105   1.684  0.3646  0.7541  1.0122
  151MOL   H23548535   0.623   4.234   1.470  0.9162 -0.6191  0.9335
  151MOL   H23648536   0.644   4.120   1.242 -1.5169  1.0745 -1.3092
  151MOL   H23748537   0.547   3.995   1.306  0.2397  0.1280  0.5250
  151MOL   H23848538   0.477   4.156   1.290  0.5952  0.5393 -0.5057
  151MOL   H23948539   0.737   3.951   1.455 -0.2786 -0.3891  0.9552
  151MOL   H24048540   0.770   4.052   1.596 -0.2572  0.4760 -0.1085
  151MOL   H24148541   0.815   4.113   1.437 -0.9838  1.2303  1.0421
  151MOL   C24248542   0.339   4.260   1.545 -0.9171 -0.5620  0.9504
  151MOL   C24348543   0.218   4.314   1.632 -0.1521  0.1127 -0.0852
  151MOL   O24448544   0.128   4.198   1.657  0.3201 -0.8495 -0.3959
  151MOL   C24548545   0.043   4.220   1.774 -0.3941  0.8860 -0.2241
  151MOL   C24648546   7.722   4.181   1.723  0.6031  0.4955  0.4729
  151MOL   C24748547   0.093   4.131   1.889  0.0534  0.0628  0.3338
  151MOL   H24848548   0.394   4.348   1.509 -3.9783  0.8398 -0.5602
  151MOL   H24948549   0.301   4.207   1.458  0.5839  2.7923 -1.9024
  151MOL   H25048550   0.253   4.351   1.728 -2.9953 -0.3037  1.1503
  151MOL   H25148551   0.033   4.323   1.808 -0.2216  0.7921  0.1120
  151MOL   H25248552   7.709   4.235   1.629  1.6582 -0.5440 -0.2798
  151MOL   H25348553   7.727   4.076   1.696  1.1215  0.5758  0.2457
  151MOL   H25448554   7.636   4.184   1.791  0.3406  0.5042  0.1440
  151MOL   H25548555   0.086   4.024   1.869  1.2312 -0.3117  1.9257
  151MOL   H25648556   0.197   4.162   1.896 -0.3961  1.8122 -0.4311
  151MOL   H25748557   0.047   4.150   1.986  0.3629  0.1384  0.4661
  151MOL   C25848558   0.132   4.417   1.552 -0.3622 -0.4361 -0.2816
  151MOL   C25948559   0.199   4.549   1.536  0.2214  0.2168  0.0142
  151MOL   O26048560   0.223   4.603   1.665 -0.2548  0.0895  0.0293
  151MOL   C26148561   0.323   4.701   1.676 -0.2602  0.6039  0.2876
  151MOL   C26248562   0.268   4.800   1.783 -0.5141 -0.4723  0.1543
  151MOL   C26348563   0.465   4.644   1.724 -0.0185  1.0046  0.3781
  151MOL   H26448564   0.110   4.376   1.453 -1.5442 -2.2006  0.6712
  151MOL   H26548565   0.037   4.431   1.604  0.6609 -0.1883  1.5352
  151MOL   H26648566   0.296   4.528   1.490  0.0053 -0.6676 -0.0439
  151MOL   H26748567   0.348   4.758   1.586  1.3057 -0.7795 -0.1923
  151MOL   H26848568   0.248   4.739   1.870 -1.4906  1.3713  1.2672
  151MOL   H26948569   0.173   4.852   1.765  0.0379  1.0077  1.4144
  151MOL   H27048570   0.337   4.877   1.817 -1.3494  0.2310  0.2724
  151MOL   H27148571   0.542   4.722   1.730  1.8162 -0.9510  3.9139
  151MOL   H27248572   0.460   4.617   1.830  1.9547  0.8069  0.4357
  151MOL   H27348573   0.503   4.556   1.674 -0.9806  0.5400  0.4515
  151MOL   C27448574   0.112   4.646   1.452  0.5397  0.5463 -1.0036
  151MOL   C27548575   0.172   4.654   1.316 -0.1137  0.0258  0.5262
  151MOL   O27648576   0.132   4.540   1.247 -0.2298 -0.4171  0.1245
  151MOL   C27748577   0.219   4.487   1.149  0.0291  0.4281  0.0837
  151MOL   C27848578   0.128   4.441   1.031  0.1852 -0.8673 -0.2807
  151MOL   C27948579   0.295   4.361   1.194  0.0164  0.5859 -0.3563
  151MOL   H28048580   0.007   4.624   1.437  0.5622 -1.3385  1.2401
  151MOL   H28148581   0.108   4.742   1.504 -0.4741 -0.1506  0.2269
  151MOL   H28248582   0.280   4.644   1.317 -0.2172 -1.6647 -1.4417
  151MOL   H28348583   0.281   4.564   1.104 -0.4175  0.7696  0.0418
  151MOL   H28448584   0.160   4.351   0.979 -0.7811  0.1865 -2.7422
  151MOL   H28548585   0.029   4.413   1.068 -0.1077 -0.7020 -0.9307
  151MOL   H28648586   0.107   4.530   0.972  1.2081  0.3286  1.1149
  151MOL   H28748587   0.360   4.381   1.279  1.3935  1.4802 -1.5880
  151MOL   H28848588   0.368   4.327   1.120  0.5441 -1.8099  1.2317
  151MOL   H28948589   0.217   4.290   1.219  1.9347 -1.6473 -0.6141
  151MOL   C29048590   0.129   4.773   1.239  0.1264 -0.3973 -0.1373
  151MOL   C29148591   0.169   4.916   1.288  0.6110  0.1534 -1.1790
  151MOL   O29248592   0.095   4.945   1.402 -0.4510 -0.3711  0.6027
  151MOL   C29348593   7.801   5.027   1.384 -0.0995  0.3096 -0.3227
  151MOL   C29448594   0.003   5.179   1.359 -0.6101  0.1687  0.2559
  151MOL   C29548595   7.720   4.990   1.514  0.0317 -0.5207 -0.0193
  151MOL   H29648596   0.021   4.773   1.236  0.0275  0.7671  2.4426
  151MOL   H29748597   0.168   4.767   1.137 -0.5753  1.8943 -0.5699
  151MOL   H29848598   0.145   4.984   1.206 -0.8919  3.2819  1.7340
  151MOL   H29948599   7.751   4.991   1.293 -1.3830  1.4252 -0.0771
  151MOL   H30048600   0.059   5.187   1.265 -0.4312 -1.6779  0.1854
  151MOL   H30148601   7.734   5.237   1.337 -0.6138  0.1649  0.2626
  151MOL   H30248602   0.056   5.225   1.442 -1.7102 -0.6988  1.4575
  151MOL   H30348603   7.767   5.014   1.609  1.0509  3.3728 -1.3955
  151MOL   H30448604   7.631   5.053   1.505  0.5520  0.1978 -0.1833
  151MOL   H30548605   7.689   4.886   1.501  0.2065 -0.3996 -1.5208
  151MOL   C30648606   0.325   4.931   1.303 -0.0476  0.4032  0.4850
  151MOL   C30748607   0.368   5.082   1.331 -0.1679 -0.2161  0.2641
  151MOL   O30848608   0.512   5.102   1.351 -0.2845 -0.9015  0.3590
  151MOL   C30948609   0.554   5.133   1.481 -0.9977 -0.4283  0.2589
  151MOL   C31048610   0.554   4.998   1.563 -0.0778  0.3366 -0.7256
  151MOL   C31148611   0.686   5.207   1.468  0.6121  0.1441 -0.7839
  151MOL   H31248612   0.380   4.914   1.210 -0.2816 -1.5619  0.6912
  151MOL   H31348613   0.367   4.858   1.372 -1.6431  0.1487  1.1946
  151MOL   H31448614   0.320   5.154   1.265  0.9586 -1.3129 -1.7967
  151MOL   H31548615   0.480   5.197   1.530  0.5774  1.4364  0.2652
  151MOL   H31648616   0.617   4.925   1.513 -0.1688 -0.1963 -0.0587
  151MOL   H31748617   0.453   4.961   1.542 -0.8742  3.2790 -2.4411
  151MOL   H31848618   0.578   4.999   1.669  0.0056  0.8104 -0.7448
  151MOL   H31948619   0.725   5.233   1.566  0.0446  1.5288 -0.9114
  151MOL   H32048620   0.673   5.293   1.402  0.1566  1.9836  1.6501
  151MOL   H32148621   0.756   5.139   1.418  0.6387  1.2211 -2.2231
  151MOL   H32248622   0.315   5.103   1.423 -0.7732  0.7627 -0.3024
  152MOL     C148623   4.720   1.442   3.049 -0.4026  0.1162  0.2465
  152MOL     C248624   4.732   1.587   3.106  0.6801  0.2371  0.0713
  152MOL     O348625   4.612   1.659   3.096 -0.0589 -0.8329 -0.0243
  152MOL     C448626   4.563   1.708   2.981  0.6328 -0.1415 -0.5501
  152MOL     C548627   4.491   1.842   3.001  0.1197 -0.6398 -0.2338
  152MOL     C648628   4.466   1.611   2.922  1.0828  0.3474  0.1033
  152MOL     H748629   4.664   1.375   3.114  3.4880 -0.7061  2.8665
  152MOL     H848630   4.684   1.431   2.946 -1.4961 -2.8713  0.9209
  152MOL     H948631   4.818   1.641   3.065  1.1222 -1.6555 -1.5671
  152MOL    H1048632   4.647   1.713   2.912  1.1972 -1.8939 -0.0060
  152MOL    H1148633   4.459   1.874   2.902  0.9328 -4.1373 -1.7179
  152MOL    H1248634   4.401   1.820   3.058 -0.3545  0.6101 -0.4848
  152MOL    H1348635   4.564   1.907   3.048 -0.1448 -1.4005  1.2755
  152MOL    H1448636   4.382   1.648   2.864 -0.5988 -1.0092  1.5970
  152MOL    H1548637   4.534   1.555   2.859  1.0132  0.8206 -0.3948
  152MOL    H1648638   4.430   1.539   2.996  3.1301 -0.2589  0.5396
  152MOL    H1748639   4.817   1.395   3.059 -1.1252 -1.6284 -0.7461
  152MOL    C1848640   4.776   1.586   3.251  0.1355  0.2974 -0.0834
  152MOL    C1948641   4.924   1.566   3.282  0.6516 -0.2887 -0.3860
  152MOL    O2048642   4.948   1.513   3.408 -0.7388 -0.7707  0.1399
  152MOL    C2148643   4.915   1.372   3.431  0.1116  0.1111 -0.1313
  152MOL    C2248644   4.902   1.361   3.578 -0.1481 -0.2617  0.4271
  152MOL    C2348645   5.014   1.267   3.373 -1.1308  0.4170 -0.8192
  152MOL    H2448646   4.752   1.684   3.292 -1.6894  0.1666 -0.7743
  152MOL    H2548647   4.712   1.515   3.303  0.2163 -1.2677 -2.0454
  152MOL    H2648648   4.959   1.490   3.212  1.1515  0.4330 -0.9198
  152MOL    H2748649   4.815   1.352   3.393  0.4089 -0.4933 -0.5905
  152MOL    H2848650   4.862   1.262   3.600 -0.2661 -0.6719 -1.5199
  152MOL    H2948651   4.990   1.394   3.633 -0.1421  2.8832 -1.3412
  152MOL    H3048652   4.830   1.440   3.599 -1.5610 -0.7193 -2.4028
  152MOL    H3148653   4.964   1.171   3.387  3.1923 -1.7375  0.8603
  152MOL    H3248654   5.110   1.268   3.425 -2.5314  0.8313  1.8700
  152MOL    H3348655   5.030   1.286   3.267  0.1488  0.0347 -0.7035
  152MOL    C3448656   5.000   1.700   3.267  0.6558  0.6393  0.5321
  152MOL    C3548657   5.147   1.683   3.214 -0.3243 -0.2017 -0.0876
  152MOL    O3648658   5.125   1.631   3.080  0.6494 -0.4198  0.0293
  152MOL    C3748659   5.239   1.565   3.028 -0.7758  0.0965  0.1217
  152MOL    C3848660   5.215   1.414   3.057  0.1432  0.2000 -0.7780
  152MOL    C3948661   5.265   1.596   2.883 -0.7382 -0.8498  0.9347
  152MOL    H4048662   4.991   1.761   3.357  0.7086 -0.1169  1.0507
  152MOL    H4148663   4.950   1.766   3.196 -2.4418  0.8024  2.7670
  152MOL    H4248664   5.204   1.609   3.271  0.5615  0.1254 -0.5310
  152MOL    H4348665   5.335   1.591   3.073 -0.0962 -2.5233  0.3128
  152MOL    H4448666   5.224   1.394   3.164 -3.6576 -0.3713 -0.4932
  152MOL    H4548667   5.292   1.348   3.018 -0.9744 -1.3732 -0.4006
  152MOL    H4648668   5.115   1.380   3.030 -0.9414  1.9576  0.9088
  152MOL    H4748669   5.181   1.554   2.827 -0.7991 -0.8293  1.0089
  152MOL    H4848670   5.284   1.700   2.855 -3.0324 -0.8533 -0.8747
  152MOL    H4948671   5.352   1.533   2.867 -1.7998 -1.8370 -1.1220
  152MOL    C5048672   5.230   1.814   3.210  0.2089 -0.2836  0.4763
  152MOL    C5148673   5.320   1.845   3.330  0.4924 -0.1531 -0.1740
  152MOL    O5248674   5.228   1.882   3.432 -0.2793  0.1617 -0.0329
  152MOL    C5348675   5.250   1.862   3.564 -1.1682  1.1197 -0.0812
  152MOL    C5448676   5.175   1.737   3.601  0.5918 -0.4875 -0.5106
  152MOL    C5548677   5.201   1.981   3.644 -0.3205 -0.0552 -0.2436
  152MOL    H5648678   5.292   1.805   3.121 -0.2699  1.0355  0.0073
  152MOL    H5748679   5.156   1.894   3.208 -1.6942 -2.0207 -0.1788
  152MOL    H5848680   5.382   1.762   3.364  1.5003  1.1581  1.2557
  152MOL    H5948681   5.358   1.852   3.578 -1.1687  1.7700  0.3920
  152MOL    H6048682   5.070   1.766   3.589  1.1042  0.5641 -2.7652
  152MOL    H6148683   5.193   1.708   3.705  2.2575 -0.9063 -0.9038
  152MOL    H6248684   5.193   1.650   3.538  0.5758 -2.3270  1.9573
  152MOL    H6348685   5.238   2.071   3.595  0.9095 -0.8267 -0.7643
  152MOL    H6448686   5.247   1.978   3.744 -0.5484  2.1074 -0.0515
  152MOL    H6548687   5.093   1.993   3.635 -0.1206  1.1972 -1.0316
  152MOL    C6648688   5.400   1.976   3.296  0.2340 -0.4878 -0.1974
  152MOL    C6748689   5.519   2.016   3.381 -0.1135 -0.0788 -0.5065
  152MOL    O6848690   5.556   2.146   3.329  0.0113  0.1934 -0.0897
  152MOL    C6948691   5.475   2.256   3.352  0.2489  0.7081 -0.0429
  152MOL    C7048692   5.562   2.359   3.428 -0.0091  0.2530  0.3182
  152MOL    C7148693   5.421   2.312   3.224 -0.6851 -0.4264  0.3042
  152MOL    H7248694   5.441   1.965   3.196 -1.2708  2.9422 -1.2779
  152MOL    H7348695   5.323   2.052   3.292 -1.8775 -2.5879 -0.3676
  152MOL    H7448696   5.492   2.038   3.484 -0.2333  4.2004 -1.3478
  152MOL    H7548697   5.400   2.235   3.427 -1.4910  0.9474 -1.6790
  152MOL    H7648698   5.503   2.431   3.485  0.8906  1.0983  0.2097
  152MOL    H7748699   5.624   2.308   3.501 -1.4186 -1.2333  0.4975
  152MOL    H7848700   5.628   2.417   3.363 -3.1342  1.5488 -1.8210
  152MOL    H7948701   5.492   2.372   3.167 -0.3292 -2.3089 -1.2722
  152MOL    H8048702   5.342   2.386   3.239 -2.2135 -1.8270 -0.7789
  152MOL    H8148703   5.381   2.229   3.166  0.8164  0.5393 -2.2047
  152MOL    C8248704   5.635   1.918   3.353 -0.4671 -0.2544  0.0728
  152MOL    C8348705   5.761   1.950   3.433  0.1315 -0.2749  0.5331
  152MOL    O8448706   5.729   1.898   3.561 -0.3354 -0.2960 -0.0026
  152MOL    C8548707   5.793   1.970   3.666 -0.1889 -0.0973  0.4127
  152MOL    C8648708   5.880   1.866   3.741 -0.4441 -0.0781 -0.7319
  152MOL    C8748709   5.678   2.030   3.753  0.0663  0.4524 -0.3613
  152MOL    H8848710   5.602   1.816   3.372  0.4891 -0.6959 -0.5527
  152MOL    H8948711   5.667   1.929   3.249  0.4025 -0.7891  0.2729
  152MOL    H9048712   5.774   2.058   3.434  2.9020 -0.5802  0.5337
  152MOL    H9148713   5.860   2.046   3.629 -1.0015 -0.5652 -2.0776
  152MOL    H9248714   5.853   1.761   3.734  3.5017 -1.1869 -0.8071
  152MOL    H9348715   5.985   1.874   3.712 -0.3354  1.7499  0.0639
  152MOL    H9448716   5.883   1.903   3.843 -0.4261  0.9146 -1.0836
  152MOL    H9548717   5.616   1.957   3.804  0.8406 -0.9483 -1.3961
  152MOL    H9648718   5.726   2.088   3.832 -0.3903  1.1397 -0.5877
  152MOL    H9748719   5.613   2.090   3.689 -2.1906 -0.3086  1.1554
  152MOL    C9848720   5.878   1.879   3.367  0.2581 -0.2281 -0.3666
  152MOL    C9948721   5.988   1.969   3.312  0.7394  0.3484 -0.7706
  152MOL   O10048722   5.915   2.057   3.218  0.0604 -0.3978  0.2465
  152MOL   C10148723   5.973   2.174   3.171 -0.6167  0.0680  0.4375
  152MOL   C10248724   5.882   2.295   3.210 -1.0591  0.3038  0.5459
  152MOL   C10348725   5.989   2.151   3.029  0.5998  0.1652 -0.6029
  152MOL   H10448726   5.919   1.828   3.454 -1.7278 -1.8341 -0.3321
  152MOL   H10548727   5.847   1.808   3.291 -1.7478  0.2200  0.0093
  152MOL   H10648728   6.019   2.041   3.388 -1.5959 -0.0529  0.6151
  152MOL   H10748729   6.071   2.197   3.214 -0.0777 -0.1481 -0.6656
  152MOL   H10848730   5.890   2.330   3.313 -1.6325  3.3154 -0.3624
  152MOL   H10948731   5.774   2.282   3.198 -1.2251  2.2057 -0.2504
  152MOL   H11048732   5.909   2.378   3.145  0.2888 -0.2019  0.4403
  152MOL   H11148733   6.042   2.230   2.975 -0.1591  1.7495  0.9029
  152MOL   H11248734   5.888   2.144   2.987  0.7119 -2.6468 -0.4978
  152MOL   H11348735   6.044   2.061   3.003  0.0881 -0.5024  0.5976
  152MOL   C11448736   6.104   1.897   3.247 -0.2833 -0.8934  0.0712
  152MOL   C11548737   6.195   1.803   3.335 -0.1690 -0.0791 -0.4421
  152MOL   O11648738   6.285   1.738   3.241  0.0676 -0.3561  0.2198
  152MOL   C11748739   6.229   1.624   3.173 -0.6484  0.3378 -0.7282
  152MOL   C11848740   6.238   1.498   3.273  0.1613  0.1014 -0.7912
  152MOL   C11948741   6.301   1.600   3.037 -0.1836 -0.8558  0.4021
  152MOL   H12048742   6.166   1.972   3.197 -2.9005  0.0936 -1.8243
  152MOL   H12148743   6.070   1.832   3.166 -0.7062 -0.0373 -0.4447
  152MOL   H12248744   6.126   1.731   3.380  1.1311 -1.1863 -0.1843
  152MOL   H12348745   6.122   1.637   3.155 -0.7037 -1.4995 -1.9334
  152MOL   H12448746   6.162   1.427   3.238 -0.9103  0.4496  0.7935
  152MOL   H12548747   6.199   1.517   3.373  1.5133  0.0386 -0.2515
  152MOL   H12648748   6.340   1.461   3.284  0.0105 -0.4211 -1.0890
  152MOL   H12748749   6.266   1.675   2.967  1.3976  2.2684  2.8176
  152MOL   H12848750   6.282   1.504   2.991 -2.0729 -0.4254  0.2614
  152MOL   H12948751   6.408   1.614   3.055  0.0068 -3.0802  1.1025
  152MOL   C13048752   6.274   1.893   3.432  0.3357 -0.1193 -0.7234
  152MOL   C13148753   6.371   1.820   3.536 -0.4596 -0.9999 -0.0014
  152MOL   O13248754   6.413   1.929   3.620 -0.1943 -0.2766 -0.2098
  152MOL   C13348755   6.354   1.956   3.745 -0.7542  0.1584  0.3767
  152MOL   C13448756   6.467   1.968   3.849  0.5700  0.6515 -0.7818
  152MOL   C13548757   6.278   2.089   3.740 -0.1560  0.3767 -0.2520
  152MOL   H13648758   6.202   1.944   3.495  0.9552 -0.4385  0.2532
  152MOL   H13748759   6.327   1.964   3.368 -0.9627  0.2109 -1.4543
  152MOL   H13848760   6.311   1.742   3.582  0.9585 -2.1496 -0.0447
  152MOL   H13948761   6.277   1.883   3.770 -1.7780  0.2335 -2.3931
  152MOL   H14048762   6.440   1.993   3.952  3.0143  0.6871 -0.1221
  152MOL   H14148763   6.546   2.038   3.823  0.3884  2.6489  3.5293
  152MOL   H14248764   6.517   1.871   3.859 -1.9552 -0.5460  0.8758
  152MOL   H14348765   6.338   2.169   3.696  1.5837 -2.2071 -2.7969
  152MOL   H14448766   6.185   2.079   3.684  0.4257 -0.2792 -1.1099
  152MOL   H14548767   6.250   2.119   3.841  0.0238  2.4620 -0.7893
  152MOL   C14648768   6.498   1.770   3.461 -0.6346 -0.0168  0.1554
  152MOL   C14748769   6.604   1.712   3.552  0.1508 -0.4805 -0.1967
  152MOL   O14848770   6.579   1.577   3.571 -0.5180  0.4497 -0.2661
  152MOL   C14948771   6.614   1.519   3.699 -0.1084  0.8643  0.1993
  152MOL   C15048772   6.664   1.371   3.689  0.3065  0.0284  0.2601
  152MOL   C15148773   6.487   1.525   3.784 -0.6331  0.8150 -0.3136
  152MOL   H15248774   6.550   1.853   3.413  0.1244  0.0040  0.9924
  152MOL   H15348775   6.471   1.703   3.380  0.6735  0.7027 -0.8860
  152MOL   H15448776   6.607   1.773   3.643  2.2708 -1.7685  0.6553
  152MOL   H15548777   6.691   1.579   3.749 -1.0934  1.7969  0.6185
  152MOL   H15648778   6.731   1.367   3.603 -0.5991  1.4917 -0.5396
  152MOL   H15748779   6.577   1.309   3.668  1.9571 -1.9037 -1.0150
  152MOL   H15848780   6.708   1.344   3.784  1.6437 -0.9980 -0.6426
  152MOL   H15948781   6.494   1.620   3.837 -2.6876 -0.3916  2.2389
  152MOL   H16048782   6.484   1.451   3.863  3.0004 -1.0276 -1.8081
  152MOL   H16148783   6.399   1.515   3.720  1.0959 -1.0330 -2.4539
  152MOL   C16248784   6.740   1.721   3.481 -0.1550 -0.0792 -0.2020
  152MOL   C16348785   6.853   1.762   3.580 -0.0637  0.0009 -0.1444
  152MOL   O16448786   6.984   1.735   3.528 -0.1795 -0.2121  0.8540
  152MOL   C16548787   7.050   1.617   3.570 -0.1670  0.3292  0.0523
  152MOL   C16648788   7.120   1.645   3.700  0.0528  0.9142  0.0937
  152MOL   C16748789   7.156   1.585   3.460 -0.5768  0.2117 -0.2647
  152MOL   H16848790   6.759   1.618   3.449 -0.5608  0.1878 -1.3094
  152MOL   H16948791   6.745   1.785   3.394 -2.1283 -0.6058 -0.7333
  152MOL   H17048792   6.840   1.702   3.670 -2.0235  0.9097  0.2041
  152MOL   H17148793   6.990   1.527   3.584 -1.1365  0.4703 -2.9376
  152MOL   H17248794   7.166   1.550   3.727 -0.2235  0.6903 -0.2291
  152MOL   H17348795   7.048   1.675   3.777 -1.2427 -2.6403  0.3318
  152MOL   H17448796   7.184   1.733   3.697  0.7467  0.4100 -0.0065
  152MOL   H17548797   7.220   1.672   3.450  0.8996 -0.7722  0.4296
  152MOL   H17648798   7.091   1.577   3.373 -0.3062  0.1610 -0.4602
  152MOL   H17748799   7.215   1.495   3.475 -0.2732  0.7381  1.8810
  152MOL   C17848800   6.855   1.912   3.615  0.1847  1.3635 -1.3192
  152MOL   C17948801   6.927   1.945   3.745 -0.5277  0.4875  0.2008
  152MOL   O18048802   6.961   2.088   3.738  0.3212  0.6999 -0.5597
  152MOL   C18148803   7.093   2.121   3.717  0.0695  1.0037  0.1269
  152MOL   C18248804   7.093   2.274   3.718 -0.8613  0.0988 -0.6054
  152MOL   C18348805   7.158   2.062   3.583 -0.3326 -0.5321 -0.0574
  152MOL   H18448806   6.752   1.948   3.621 -0.1561  0.0294  1.6048
  152MOL   H18548807   6.896   1.974   3.535  0.8098  1.3179 -1.0383
  152MOL   H18648808   7.016   1.884   3.761  0.2296  0.5164 -3.5688
  152MOL   H18748809   7.154   2.094   3.803 -1.3770  2.8429  1.7649
  152MOL   H18848810   7.036   2.320   3.637 -1.4865  1.2328  0.4606
  152MOL   H18948811   7.196   2.301   3.694 -0.4923  2.5057  3.2402
  152MOL   H19048812   7.077   2.320   3.816  1.8396  1.5231 -0.7610
  152MOL   H19148813   7.140   1.955   3.572 -0.7716 -0.4479 -0.1861
  152MOL   H19248814   7.261   2.096   3.579  0.1594 -2.0596 -0.9820
  152MOL   H19348815   7.104   2.116   3.505 -0.3306  2.4210  1.9360
  152MOL   C19448816   6.842   1.897   3.868 -0.0602 -0.8087 -0.2697
  152MOL   C19548817   6.928   1.873   3.992 -0.9342 -0.3955  0.9871
  152MOL   O19648818   6.851   1.799   4.090  0.0729  0.3321  0.3598
  152MOL   C19748819   6.871   1.652   4.087  1.0418  0.2892 -0.1210
  152MOL   C19848820   7.002   1.602   4.156 -0.2138  0.1719 -0.0528
  152MOL   C19948821   6.748   1.580   4.143 -0.1102  0.1319 -0.5919
  152MOL   H20048822   6.762   1.968   3.885  0.0011 -1.2900  2.1168
  152MOL   H20148823   6.794   1.804   3.839  1.0992 -1.9337  1.3451
  152MOL   H20248824   7.014   1.814   3.963  1.9068  3.5107  1.0717
  152MOL   H20348825   6.885   1.631   3.980 -0.0120  0.4266 -0.2855
  152MOL   H20448826   7.008   1.652   4.252 -2.8262 -0.4029  0.4414
  152MOL   H20548827   6.995   1.495   4.174  2.5132 -0.1799 -0.8648
  152MOL   H20648828   7.093   1.625   4.100 -0.7558  2.0752 -0.1756
  152MOL   H20748829   6.657   1.622   4.100  0.8476  2.7725 -0.1602
  152MOL   H20848830   6.768   1.475   4.121  0.0352  0.3582 -1.5592
  152MOL   H20948831   6.734   1.593   4.250 -2.2015  1.1296 -0.9558
  152MOL   C21048832   6.980   1.994   4.070  0.0261 -0.0582 -0.0305
  152MOL   C21148833   7.074   1.962   4.186  0.3098  0.5474  0.0744
  152MOL   O21248834   7.199   1.940   4.119  0.2238 -0.4660 -0.0725
  152MOL   C21348835   7.280   1.839   4.170 -0.8505  0.8963  0.7094
  152MOL   C21448836   7.356   1.773   4.059  0.6988 -0.4526 -0.3193
  152MOL   C21548837   7.370   1.882   4.285  0.1546  0.6668 -0.0557
  152MOL   H21648838   6.892   2.044   4.112  1.4918  2.6756 -0.0755
  152MOL   H21748839   7.023   2.072   4.007 -0.3987  0.5604  0.4373
  152MOL   H21848840   7.041   1.874   4.241  2.3675 -0.7633 -0.6998
  152MOL   H21948841   7.218   1.756   4.203 -0.9736  0.6878 -0.0400
  152MOL   H22048842   7.445   1.832   4.036  1.0382 -0.3842  1.1246
  152MOL   H22148843   7.302   1.750   3.967  1.5402 -0.9223 -0.6968
  152MOL   H22248844   7.391   1.674   4.086  2.8506 -0.0953 -1.6725
  152MOL   H22348845   7.435   1.799   4.313  2.6763  2.2811 -1.0025
  152MOL   H22448846   7.322   1.927   4.372 -1.0994  1.5034 -1.1625
  152MOL   H22548847   7.440   1.952   4.240 -1.9202  1.4585 -2.1561
  152MOL   C22648848   7.095   2.084   4.281  0.0502 -0.5025  0.7936
  152MOL   C22748849   6.967   2.143   4.338  0.0560  0.1244  0.1754
  152MOL   O22848850   6.998   2.237   4.443  0.0826 -0.4206 -0.1953
  152MOL   C22948851   6.957   2.367   4.433  0.2692  0.4865  0.7046
  152MOL   C23048852   7.040   2.445   4.328  0.5081  0.4735 -0.3138
  152MOL   C23148853   6.969   2.426   4.575  0.7400  0.3296  0.7095
  152MOL   H23248854   7.147   2.162   4.226 -1.4372 -0.3283 -0.4061
  152MOL   H23348855   7.166   2.062   4.360  0.9712  2.5913  0.9036
  152MOL   H23448856   6.912   2.190   4.257 -0.0692 -2.3967 -1.2507
  152MOL   H23548857   6.850   2.378   4.412  0.4097 -0.7768 -0.7641
  152MOL   H23648858   7.010   2.550   4.324 -1.7889 -0.2274 -1.9892
  152MOL   H23748859   7.147   2.448   4.349  0.3876 -2.4156  0.9869
  152MOL   H23848860   7.023   2.399   4.231  0.5907  0.4842 -0.3330
  152MOL   H23948861   6.944   2.532   4.568 -1.3376 -0.2855 -1.8991
  152MOL   H24048862   7.069   2.407   4.615  1.8443 -0.0882 -2.1674
  152MOL   H24148863   6.893   2.382   4.639 -1.5172  3.1631  0.0341
  152MOL   C24248864   6.880   2.042   4.409 -0.3364  0.1172  0.0338
  152MOL   C24348865   6.736   2.097   4.440  0.1360 -0.1043 -0.0525
  152MOL   O24448866   6.696   2.026   4.562  0.5658 -0.4291  0.1544
  152MOL   C24548867   6.731   2.098   4.677 -0.6714  0.1538  0.0908
  152MOL   C24648868   6.613   2.191   4.718 -0.0317  0.1555  0.3798
  152MOL   C24748869   6.774   1.997   4.785  0.2311  0.0081  0.2358
  152MOL   H24848870   6.867   1.948   4.357  0.1145  0.0686  0.0103
  152MOL   H24948871   6.931   2.022   4.504 -1.0139  1.4270  0.6947
  152MOL   H25048872   6.735   2.204   4.460 -0.9459  0.4308 -2.7044
  152MOL   H25148873   6.811   2.170   4.666 -2.1007  2.1186  1.9994
  152MOL   H25248874   6.626   2.229   4.820 -2.3231 -0.4275  0.9211
  152MOL   H25348875   6.600   2.266   4.640  0.0135  0.2339  0.4471
  152MOL   H25448876   6.524   2.128   4.719  2.6698 -3.8397 -1.1817
  152MOL   H25548877   6.869   1.959   4.747 -0.3677 -0.9371 -0.3261
  152MOL   H25648878   6.788   2.036   4.886 -2.1769 -1.7453  1.2981
  152MOL   H25748879   6.692   1.928   4.804 -0.0867 -0.1011 -1.4215
  152MOL   C25848880   6.639   2.059   4.333 -0.8132 -0.0845 -0.0020
  152MOL   C25948881   6.504   2.130   4.335 -0.8800  0.4065 -0.8846
  152MOL   O26048882   6.420   2.071   4.241  0.0313  0.2716 -0.2039
  152MOL   C26148883   6.379   1.938   4.271 -0.2341 -0.3231 -0.1372
  152MOL   C26248884   6.229   1.940   4.304 -0.1586  0.0921  0.3074
  152MOL   C26348885   6.400   1.841   4.159  0.0191  0.0643 -0.2424
  152MOL   H26448886   6.689   2.082   4.239 -2.3752 -0.7520 -1.0268
  152MOL   H26548887   6.623   1.952   4.342  0.5531 -0.2625  0.2953
  152MOL   H26648888   6.464   2.106   4.434 -0.4702 -1.4773 -1.1561
  152MOL   H26748889   6.416   1.891   4.362  1.8312 -2.1449 -1.8641
  152MOL   H26848890   6.206   2.025   4.369 -0.8281  0.2004 -0.0560
  152MOL   H26948891   6.199   1.850   4.357 -1.6230  0.2015 -0.2987
  152MOL   H27048892   6.162   1.953   4.218  0.4371 -0.7063 -0.2816
  152MOL   H27148893   6.505   1.841   4.130  0.5241  0.3137  1.5046
  152MOL   H27248894   6.379   1.743   4.200  1.7748 -0.3999 -0.4033
  152MOL   H27348895   6.333   1.855   4.075  0.2511  1.4058 -0.2233
  152MOL   C27448896   6.507   2.281   4.311 -0.0984  0.5430 -0.2559
  152MOL   C27548897   6.387   2.357   4.358  0.7183  0.1760 -0.9195
  152MOL   O27648898   6.395   2.377   4.502 -0.1741 -0.5700 -0.2196
  152MOL   C27748899   6.272   2.380   4.569  0.6980 -0.3068  0.0647
  152MOL   C27848900   6.285   2.475   4.693 -0.2324  0.7559 -0.0551
  152MOL   C27948901   6.223   2.235   4.605  0.0824  0.0120  0.4333
  152MOL   H28048902   6.600   2.325   4.346  0.4580  0.3373 -1.4313
  152MOL   H28148903   6.512   2.296   4.203 -2.4774 -0.5115 -0.5442
  152MOL   H28248904   6.300   2.303   4.321 -1.1066  2.3628  0.0664
  152MOL   H28348905   6.198   2.428   4.504  1.3694 -1.0446 -1.2564
  152MOL   H28448906   6.193   2.469   4.752 -1.0037 -2.5557 -1.4615
  152MOL   H28548907   6.354   2.440   4.770 -0.1085  1.4843  0.1679
  152MOL   H28648908   6.307   2.576   4.659  0.7789  1.1185  1.5791
  152MOL   H28748909   6.295   2.175   4.660  1.8908  1.3981 -0.3756
  152MOL   H28848910   6.188   2.179   4.518 -0.4980  0.7680  0.1681
  152MOL   H28948911   6.131   2.235   4.664  1.2102  0.2988  2.2135
  152MOL   C29048912   6.374   2.489   4.297 -0.4387  0.1873  0.0106
  152MOL   C29148913   6.294   2.483   4.166 -0.0799  0.7925  0.1965
  152MOL   O29248914   6.154   2.463   4.194  0.0538 -0.2104  0.4834
  152MOL   C29348915   6.076   2.402   4.089  0.8711 -0.1604 -0.1346
  152MOL   C29448916   5.937   2.454   4.088  0.0400 -0.0022  1.1613
  152MOL   C29548917   6.082   2.249   4.119  0.0934  0.3914 -0.1557
  152MOL   H29648918   6.476   2.521   4.273 -0.0304 -3.2279 -3.2425
  152MOL   H29748919   6.325   2.563   4.360 -1.7604  1.0816 -1.9995
  152MOL   H29848920   6.327   2.396   4.108 -1.1603 -1.0091  2.2544
  152MOL   H29948921   6.121   2.411   3.990 -1.5313  0.5211 -1.2009
  152MOL   H30048922   5.889   2.434   4.184 -2.8098 -0.3687 -0.2777
  152MOL   H30148923   5.950   2.560   4.069  1.1248 -0.1475  1.0247
  152MOL   H30248924   5.877   2.409   4.009  2.2063 -1.0695  0.0812
  152MOL   H30348925   6.181   2.218   4.087 -0.5649 -1.0880 -0.7953
  152MOL   H30448926   6.061   2.228   4.223  0.4230 -1.9175 -0.5471
  152MOL   H30548927   6.005   2.192   4.067 -1.1105  1.2904  0.5907
  152MOL   C30648928   6.299   2.609   4.076 -0.1984 -0.5752 -0.0504
  152MOL   C30748929   6.444   2.629   4.029 -0.1221  0.5692  0.9859
  152MOL   O30848930   6.490   2.523   3.946 -0.0603 -0.0357  0.2396
  152MOL   C30948931   6.629   2.509   3.926 -0.9549  0.2880  0.2136
  152MOL   C31048932   6.712   2.478   4.056 -0.1442 -0.0724  0.1121
  152MOL   C31148933   6.648   2.401   3.814  0.2788  0.4661 -1.0265
  152MOL   H31248934   6.273   2.701   4.130 -0.6028 -0.9838  0.4469
  152MOL   H31348935   6.230   2.616   3.992 -0.7729  0.0393  0.4643
  152MOL   H31448936   6.441   2.723   3.974 -2.6335  0.8458  1.5240
  152MOL   H31548937   6.669   2.601   3.882 -0.2475  0.5406  1.3657
  152MOL   H31648938   6.655   2.421   4.130 -1.0325 -0.8045 -1.1128
  152MOL   H31748939   6.733   2.574   4.104 -0.9601 -0.8037  1.9570
  152MOL   H31848940   6.808   2.431   4.037  0.4254  0.3876  1.7429
  152MOL   H31948941   6.635   2.304   3.862 -0.6363  2.2532  2.4629
  152MOL   H32048942   6.751   2.380   3.784  0.3751 -1.1843  0.4007
  152MOL   H32148943   6.574   2.414   3.735 -1.6608  0.8497  0.8224
  152MOL   H32248944   6.509   2.638   4.116  1.1206  0.4300  0.0979
  153MOL     C148945   4.933   6.804   7.721  0.1806 -0.4143 -0.5814
  153MOL     C248946   4.972   6.666   7.677  0.0218  0.4349  0.1385
  153MOL     O348947   4.953   6.647   7.538 -0.3737  0.1659  0.2970
  153MOL     C448948   4.827   6.604   7.497 -0.2972 -0.3834 -0.0789
  153MOL     C548949   4.803   6.448   7.504  0.2385 -0.1218  0.1246
  153MOL     C648950   4.799   6.657   7.360 -0.2858  0.2550 -0.5301
  153MOL     H748951   4.824   6.813   7.725  0.0613 -2.0652  0.1059
  153MOL     H848952   4.978   6.822   7.818 -0.7190  1.5452 -0.5149
  153MOL     H948953   4.922   6.590   7.737  3.0795  0.1443  2.4723
  153MOL    H1048954   4.752   6.647   7.563  0.4729  1.9499 -0.6761
  153MOL    H1148955   4.820   6.415   7.607  1.4279  0.7185  0.2051
  153MOL    H1248956   4.701   6.431   7.470  0.3174  3.0674 -1.8395
  153MOL    H1348957   4.869   6.390   7.440  0.3631  1.2632 -1.0128
  153MOL    H1448958   4.703   6.635   7.313  0.5144  0.9077 -2.5404
  153MOL    H1548959   4.822   6.764   7.362  1.6494 -0.1685  1.4779
  153MOL    H1648960   4.878   6.622   7.293 -0.0567  1.2203 -0.7786
  153MOL    H1748961   4.972   6.877   7.650  0.2232 -0.8679 -1.0337
  153MOL    C1848962   5.121   6.641   7.697 -0.4773 -0.1862  0.1787
  153MOL    C1948963   5.173   6.591   0.020 -0.7835 -1.0493  0.1128
  153MOL    O2048964   5.311   6.599   0.002 -0.5583  0.7107 -0.2563
  153MOL    C2148965   5.369   6.728   0.013 -0.5617  0.7482  0.1616
  153MOL    C2248966   5.465   6.742   7.716  0.5608 -0.2479  1.0266
  153MOL    C2348967   5.433   6.764   0.147 -0.2325  0.2683  0.1678
  153MOL    H2448968   5.154   6.558   7.634 -0.6678 -0.3951  0.3523
  153MOL    H2548969   5.173   6.734   7.678  2.5999 -1.7812  0.4945
  153MOL    H2648970   5.142   6.664   0.095 -0.9491 -1.3670  0.3490
  153MOL    H2748971   5.297   6.808   7.820  0.7568  1.8509 -0.3921
  153MOL    H2848972   5.426   6.711   7.619 -0.9534 -3.9767  2.7272
  153MOL    H2948973   5.494   6.847   7.716 -2.3868  0.6089  2.3854
  153MOL    H3048974   5.544   6.671   7.742  3.4588  2.7677  0.7884
  153MOL    H3148975   5.471   6.866   0.143  2.1997 -0.6764 -1.4782
  153MOL    H3248976   5.513   6.692   0.161  0.0010  0.6021  0.5643
  153MOL    H3348977   5.366   6.767   0.234  0.8160 -0.1797  0.9950
  153MOL    C3448978   5.122   6.459   0.066  0.5221  0.7922  0.4922
  153MOL    C3548979   5.160   6.416   0.214 -0.1528 -0.8240 -0.7652
  153MOL    O3648980   5.082   6.495   0.303 -0.3111 -0.0319  0.7209
  153MOL    C3748981   5.150   6.589   0.379  0.4477 -0.9337  0.3065
  153MOL    C3848982   5.040   6.693   0.388 -0.1116  0.6101  1.0200
  153MOL    C3948983   5.186   6.535   0.515  0.2446 -0.4917 -0.4223
  153MOL    H4048984   5.155   6.386   7.813 -2.8515 -0.7583  0.4245
  153MOL    H4148985   5.015   6.459   0.049  0.4681 -0.2011  0.8082
  153MOL    H4248986   5.266   6.437   0.234 -0.6516  2.0878 -0.9188
  153MOL    H4348987   5.232   6.629   0.319 -1.3680  2.1298 -0.2420
  153MOL    H4448988   5.006   6.740   0.295 -1.8557 -1.1012  0.7494
  153MOL    H4548989   5.084   6.778   0.440  1.7717 -0.1836  0.7854
  153MOL    H4648990   4.959   6.670   0.456 -1.1866 -0.5763 -0.6058
  153MOL    H4748991   5.241   6.441   0.517  0.4047 -0.3782  0.6889
  153MOL    H4848992   5.241   6.607   0.576  1.2026 -1.2450 -0.3817
  153MOL    H4948993   5.099   6.520   0.578  1.0260 -2.6277  0.1956
  153MOL    C5048994   5.131   6.264   0.239  0.3437  0.2682 -0.0876
  153MOL    C5148995   5.216   6.170   0.152  0.1865  0.2921 -0.3143
  153MOL    O5248996   5.151   6.128   0.031 -0.1288  0.2289  0.5138
  153MOL    C5348997   5.234   6.097   7.735  0.6889  0.2202  0.6169
  153MOL    C5448998   5.301   6.216   7.664 -0.2429  0.4287  0.8670
  153MOL    C5548999   5.132   6.020   7.640  0.0522 -0.3069  0.0179
  153MOL    H5649000   5.152   6.236   0.342 -0.5843 -1.7775 -0.4256
  153MOL    H5749001   5.024   6.260   0.217  0.1460 -0.1656  0.9036
  153MOL    H5849002   5.312   6.215   0.126  0.3581 -0.5615 -1.1926
  153MOL    H5949003   5.303   6.018   7.768  0.3878 -0.8980 -1.3144
  153MOL    H6049004   5.386   6.181   7.605 -2.0724 -0.1724 -1.4589
  153MOL    H6149005   5.349   6.275   7.742  0.0881  1.3502 -0.0204
  153MOL    H6249006   5.237   6.284   7.608  0.8069 -2.0875 -3.6376
  153MOL    H6349007   5.083   5.935   7.687 -1.4920  0.2087 -0.6364
  153MOL    H6449008   5.179   5.986   7.547  0.4086 -0.4805  0.2606
  153MOL    H6549009   5.053   6.086   7.603 -0.6602 -0.9581  0.3600
  153MOL    C6649010   5.248   6.035   0.224  0.1604  0.0533  0.0083
  153MOL    C6749011   5.356   6.057   0.339 -0.0631 -0.4833 -0.3882
  153MOL    O6849012   5.486   6.079   0.285  0.5417  0.0673  0.7465
  153MOL    C6949013   5.559   6.165   0.373 -0.0300  0.3217  0.0718
  153MOL    C7049014   5.701   6.142   0.336  0.3047  0.4737 -0.2106
  153MOL    C7149015   5.531   6.314   0.346 -0.5126  0.8921  0.3128
  153MOL    H7249016   5.158   6.002   0.277  1.1210 -1.0633  1.0010
  153MOL    H7349017   5.287   5.958   0.158 -2.9472 -2.0790  0.5319
  153MOL    H7449018   5.324   6.140   0.402  0.2841  0.3166 -1.2576
  153MOL    H7549019   5.539   6.139   0.477 -1.1413 -2.9467 -0.9166
  153MOL    H7649020   5.735   6.151   0.232  0.6951 -1.1566 -0.2349
  153MOL    H7749021   5.764   6.207   0.395  1.2514  0.2908 -1.0151
  153MOL    H7849022   5.717   6.041   0.373  0.7066  0.6555  0.1097
  153MOL    H7949023   5.422   6.322   0.339 -0.2793  3.0708 -1.1482
  153MOL    H8049024   5.555   6.349   0.245 -0.2917  1.8724  0.7027
  153MOL    H8149025   5.569   6.377   0.426 -0.2650  2.4554 -1.0008
  153MOL    C8249026   5.377   5.938   0.434  0.0019  0.1875 -0.5296
  153MOL    C8349027   5.251   5.879   0.498  0.7505 -0.6643  0.5574
  153MOL    O8449028   5.162   5.981   0.533 -0.3824 -0.8279  0.3482
  153MOL    C8549029   5.132   6.020   0.667 -0.2975 -0.3572 -0.7236
  153MOL    C8649030   4.989   6.075   0.660 -0.4918 -0.8843 -0.3467
  153MOL    C8749031   5.246   6.122   0.713  0.3939  0.9474  0.3590
  153MOL    H8849032   5.426   5.858   0.378 -0.5833 -0.6839  0.1727
  153MOL    H8949033   5.448   5.961   0.514 -0.9164 -0.9345  0.6278
  153MOL    H9049034   5.266   5.830   0.594  2.0926 -1.6636 -0.1563
  153MOL    H9149035   5.140   5.932   0.730 -1.4016 -0.3623 -0.5831
  153MOL    H9249036   4.919   6.013   0.604 -1.9111  0.3946 -0.0081
  153MOL    H9349037   4.954   6.108   0.758  1.6505 -1.0820  0.5054
  153MOL    H9449038   4.988   6.164   0.598 -1.6140 -1.5346 -1.3010
  153MOL    H9549039   5.231   6.158   0.815 -1.4409  0.8704  0.1393
  153MOL    H9649040   5.348   6.084   0.712 -0.4629 -1.4494 -0.5796
  153MOL    H9749041   5.245   6.209   0.648 -0.7482  0.4375 -0.3115
  153MOL    C9849042   5.172   5.779   0.419  0.1842  0.6140 -0.5470
  153MOL    C9949043   5.123   5.656   0.499 -0.3090  0.2525  0.4751
  153MOL   O10049044   5.245   5.589   0.524 -0.2031 -0.3664  0.2521
  153MOL   C10149045   5.228   5.512   0.644  0.2273  0.1524 -0.4117
  153MOL   C10249046   5.272   5.599   0.762 -0.3229  0.6099 -0.1558
  153MOL   C10349047   5.322   5.397   0.631 -0.0019  0.5256 -0.0435
  153MOL   H10449048   5.093   5.819   0.356  0.4834 -0.1639 -1.4377
  153MOL   H10549049   5.244   5.737   0.348  0.6224 -1.6449  1.1924
  153MOL   H10649050   5.087   5.698   0.593 -2.5261 -2.2602  0.8327
  153MOL   H10749051   5.127   5.477   0.669  0.7180 -0.8539  0.2029
  153MOL   H10849052   5.365   5.656   0.758  0.3514 -0.3833  0.9324
  153MOL   H10949053   5.292   5.534   0.847  0.2836 -0.4007 -1.0682
  153MOL   H11049054   5.193   5.673   0.782  0.3260  1.6550 -1.3840
  153MOL   H11149055   5.422   5.438   0.613 -0.5333  1.2805 -1.3945
  153MOL   H11249056   5.303   5.327   0.550 -0.1066  2.1170 -1.4296
  153MOL   H11349057   5.341   5.341   0.722 -0.9802 -2.3124 -1.5355
  153MOL   C11449058   5.018   5.575   0.429 -0.2819  0.0476 -0.3390
  153MOL   C11549059   4.877   5.625   0.423 -0.8077  0.1749 -0.6750
  153MOL   O11649060   4.811   5.531   0.336 -0.3713 -0.2203  0.1355
  153MOL   C11749061   4.754   5.585   0.218  0.0755  0.3029 -0.5225
  153MOL   C11849062   4.640   5.494   0.174 -0.3310  0.3050  0.0947
  153MOL   C11949063   4.860   5.602   0.109 -0.0065 -0.1274 -0.0117
  153MOL   H12049064   5.013   5.476   0.475 -1.1198  0.2903  0.0894
  153MOL   H12149065   5.051   5.547   0.329 -0.1812  0.7183 -0.4916
  153MOL   H12249066   4.880   5.719   0.368 -4.0518 -1.2895 -3.6048
  153MOL   H12349067   4.722   5.687   0.241  0.3070  0.8992 -2.6986
  153MOL   H12449068   4.601   5.534   0.080  2.3340  1.6890 -0.4718
  153MOL   H12549069   4.563   5.494   0.251 -0.4075  0.3513  0.0182
  153MOL   H12649070   4.685   5.395   0.164  1.1145  1.0595 -1.0480
  153MOL   H12749071   4.893   5.499   0.100  0.6266 -0.0191  0.9351
  153MOL   H12849072   4.944   5.657   0.153  0.0796 -0.0838 -0.2305
  153MOL   H12949073   4.825   5.640   0.013 -1.7529 -1.7838 -0.0452
  153MOL   C13049074   4.799   5.650   0.549 -0.6444 -0.2829 -0.3602
  153MOL   C13149075   4.764   5.547   0.655  0.5276  0.3164  0.3951
  153MOL   O13249076   4.880   5.523   0.732  0.1653 -0.3823 -0.7532
  153MOL   C13349077   4.858   5.500   0.866  0.1251  0.2151 -0.3204
  153MOL   C13449078   4.963   5.393   0.896 -0.5473 -0.4492 -0.1438
  153MOL   C13549079   4.867   5.627   0.948  0.5745 -0.2118  0.5434
  153MOL   H13649080   4.707   5.689   0.506  1.1110  4.7788  0.1022
  153MOL   H13749081   4.837   5.743   0.592 -0.2309  0.5095 -2.3939
  153MOL   H13849082   4.690   5.600   0.714  2.2402  0.3386  2.5892
  153MOL   H13949083   4.761   5.456   0.886  1.2721 -2.5915 -0.6584
  153MOL   H14049084   4.944   5.338   0.988  1.5341 -1.5417 -0.3439
  153MOL   H14149085   5.066   5.429   0.898 -0.6874 -0.0665  0.0537
  153MOL   H14249086   4.954   5.320   0.815 -0.5290 -0.3433 -0.2403
  153MOL   H14349087   4.952   5.683   0.911 -1.5096  1.6617 -1.5509
  153MOL   H14449088   4.783   5.682   0.907  1.2151 -0.0735 -0.5894
  153MOL   H14549089   4.861   5.613   1.056 -0.4025 -1.9022  0.2867
  153MOL   C14649090   4.708   5.418   0.583 -0.6943  0.0784  0.2018
  153MOL   C14749091   4.630   5.316   0.678 -0.0520  0.3989  0.1398
  153MOL   O14849092   4.512   5.388   0.712 -0.1172  0.0535 -0.1226
  153MOL   C14949093   4.455   5.355   0.842  0.1727 -0.0116 -0.2546
  153MOL   C15049094   4.300   5.329   0.821 -0.2092  0.2085 -0.8095
  153MOL   C15149095   4.496   5.449   0.967 -0.4727 -0.5585  0.1296
  153MOL   H15249096   4.789   5.376   0.524 -0.1852  2.7801 -1.1380
  153MOL   H15349097   4.648   5.461   0.502 -0.2792 -0.6574 -0.5029
  153MOL   H15449098   4.699   5.294   0.760  0.9524 -0.2374 -0.8750
  153MOL   H15549099   4.499   5.268   0.890 -1.7044 -1.5418 -1.2381
  153MOL   H15649100   4.258   5.276   0.906 -1.2532  1.6921 -0.3822
  153MOL   H15749101   4.294   5.257   0.739 -1.0462 -0.6401 -0.0088
  153MOL   H15849102   4.249   5.424   0.809  1.6314  1.0135 -2.6338
  153MOL   H15949103   4.431   5.436   1.054  0.2183 -0.9209  0.5929
  153MOL   H16049104   4.500   5.555   0.943  0.7022 -0.5004  0.5578
  153MOL   H16149105   4.592   5.418   1.008 -0.1025 -1.1853 -1.1920
  153MOL   C16249106   4.582   5.185   0.609  0.4500  0.3471  0.2324
  153MOL   C16349107   4.667   5.060   0.653  0.4745  0.1077 -0.0999
  153MOL   O16449108   4.621   5.031   0.788 -0.2000  0.2929 -0.1419
  153MOL   C16549109   4.725   5.000   0.876 -0.0943  0.2753  0.0768
  153MOL   C16649110   4.707   4.855   0.933  0.1520 -0.0308  0.6530
  153MOL   C16749111   4.736   5.105   0.988 -0.4060  0.4625  0.4722
  153MOL   H16849112   4.476   5.164   0.621  0.3066  1.5445  1.1373
  153MOL   H16949113   4.584   5.197   0.501 -4.4633  1.4908  0.1459
  153MOL   H17049114   4.773   5.088   0.644  0.6714  0.5007  3.1247
  153MOL   H17149115   4.821   4.991   0.825  0.6573  1.9611  1.1878
  153MOL   H17249116   4.628   4.861   1.008 -0.9430 -0.4466 -0.4312
  153MOL   H17349117   4.793   4.823   0.991 -0.3976 -1.9359  0.4237
  153MOL   H17449118   4.675   4.779   0.861 -0.4975  2.1233 -1.4292
  153MOL   H17549119   4.635   5.110   1.030  0.0860  2.1323  1.4995
  153MOL   H17649120   4.755   5.203   0.944 -0.6680  0.3010  0.0017
  153MOL   H17749121   4.816   5.071   1.054 -1.7396 -0.3409  1.7144
  153MOL   C17849122   4.645   4.935   0.568  0.0887  0.6754 -0.4923
  153MOL   C17949123   4.675   4.956   0.419  0.8528  0.1774 -0.5515
  153MOL   O18049124   4.814   4.973   0.398 -0.4165 -0.2137  0.1342
  153MOL   C18149125   4.869   5.097   0.353  0.1908  0.0431  0.2222
  153MOL   C18249126   4.843   5.119   0.198 -0.6272 -0.0503 -0.0811
  153MOL   C18349127   5.017   5.083   0.374  0.1403 -0.8025 -0.3081
  153MOL   H18449128   4.543   4.900   0.580 -0.3565  2.1934  0.2005
  153MOL   H18549129   4.711   4.859   0.609  0.1882  0.1609 -1.5850
  153MOL   H18649130   4.615   5.030   0.366 -3.1459 -2.9199 -0.5732
  153MOL   H18749131   4.834   5.183   0.408 -0.1948  0.4994 -0.7166
  153MOL   H18849132   4.736   5.138   0.183  0.1419  3.0002 -2.2136
  153MOL   H18949133   4.874   5.034   0.138 -1.0375  0.5157 -1.1133
  153MOL   H19049134   4.889   5.210   0.159 -1.2239 -0.2743 -1.3241
  153MOL   H19149135   5.077   5.164   0.332 -0.0744 -0.0314  0.8534
  153MOL   H19249136   5.064   4.994   0.331  1.6986 -0.1428 -0.0234
  153MOL   H19349137   5.044   5.082   0.479 -0.5819 -1.5392 -0.1250
  153MOL   C19449138   4.650   4.832   0.319  0.3362  0.0509  0.0418
  153MOL   C19549139   4.504   4.786   0.319  0.3554 -0.0554 -0.4525
  153MOL   O19649140   4.504   4.658   0.256  0.4764 -0.6754  0.0191
  153MOL   C19749141   4.459   4.551   0.331  0.3190  0.1998  0.0714
  153MOL   C19849142   4.431   4.440   0.230 -0.3758  0.4417 -0.1641
  153MOL   C19949143   4.562   4.505   0.434 -0.2399  0.0167 -0.5602
  153MOL   H20049144   4.667   4.875   0.220  3.2476 -1.6096 -0.2353
  153MOL   H20149145   4.715   4.745   0.333 -1.1311 -1.3703 -1.6010
  153MOL   H20249146   4.475   4.762   0.421  0.2038 -0.2623 -0.5424
  153MOL   H20349147   4.367   4.581   0.381  1.5960  0.4997  2.2928
  153MOL   H20449148   4.364   4.472   0.150 -1.1951 -0.6992  0.0460
  153MOL   H20549149   4.522   4.398   0.189  1.5057  1.7680  2.5242
  153MOL   H20649150   4.373   4.361   0.278  0.6242  0.2864  0.8151
  153MOL   H20749151   4.665   4.502   0.398 -0.6877  1.9448 -2.1180
  153MOL   H20849152   4.569   4.552   0.533  0.3975 -0.4836 -0.3628
  153MOL   H20949153   4.539   4.400   0.453  1.6071 -0.5069 -1.0507
  153MOL   C21049154   4.395   4.870   0.253  0.2391 -0.5970  0.8500
  153MOL   C21149155   4.251   4.843   0.304  0.4100  0.1080  0.5882
  153MOL   O21249156   4.220   4.945   0.398  0.0780  0.0196 -0.8761
  153MOL   C21349157   4.206   4.913   0.535  0.6667 -0.1290 -0.1754
  153MOL   C21449158   4.184   5.044   0.610  0.0803 -0.5620 -1.0729
  153MOL   C21549159   4.090   4.816   0.564 -0.4564 -0.2131  0.5818
  153MOL   H21649160   4.408   4.849   0.146 -0.8631 -0.2605  0.6455
  153MOL   H21749161   4.414   4.977   0.266  1.3423 -0.6459 -0.2232
  153MOL   H21849162   4.245   4.749   0.358  4.7758  0.0415  1.1529
  153MOL   H21949163   4.304   4.881   0.570  0.6337 -1.8659 -1.6013
  153MOL   H22049164   4.208   5.020   0.714  0.0634 -5.0281 -2.0062
  153MOL   H22149165   4.081   5.076   0.593 -0.0294  0.1304  0.7313
  153MOL   H22249166   4.245   5.122   0.565 -0.0277  0.5463  0.6300
  153MOL   H22349167   4.110   4.715   0.527  1.1437  0.6496 -0.9746
  153MOL   H22449168   3.988   4.836   0.529 -0.1363  1.5639  0.6081
  153MOL   H22549169   4.076   4.824   0.672  0.1061  2.0249  0.5170
  153MOL   C22649170   4.138   4.858   0.204  0.3913 -0.3440 -0.0872
  153MOL   C22749171   4.089   4.725   0.125 -0.3007  0.1575  0.2219
  153MOL   O22849172   4.092   4.612   0.208  0.5454  0.2123  0.1239
  153MOL   C22949173   3.974   4.531   0.209  0.3817 -0.1291  0.7268
  153MOL   C23049174   3.861   4.597   0.287  0.5697 -0.1840  0.0967
  153MOL   C23149175   4.008   4.391   0.276 -0.8627 -0.4658  0.0126
  153MOL   H23249176   4.151   4.948   0.144 -1.5037 -1.7417 -2.7237
  153MOL   H23349177   4.055   4.886   0.270  2.0586  0.3597  1.7494
  153MOL   H23449178   3.985   4.732   0.092 -0.3050 -0.2373  0.1503
  153MOL   H23549179   3.941   4.516   0.106 -0.8857 -1.7182  1.3505
  153MOL   H23649180   3.899   4.626   0.385  1.2907 -0.8414  0.0065
  153MOL   H23749181   3.824   4.689   0.241 -1.9064 -1.1901  0.0107
  153MOL   H23849182   3.783   4.522   0.296 -0.9000  1.2758 -0.0903
  153MOL   H23949183   4.055   4.403   0.374  1.2827 -0.6525 -0.9708
  153MOL   H24049184   4.087   4.337   0.224  0.5466  0.8881  0.6748
  153MOL   H24149185   3.919   4.331   0.291 -2.0469  0.9933 -0.9880
  153MOL   C24249186   4.183   4.710   0.002  0.9595 -0.2606 -0.7019
  153MOL   C24349187   4.156   4.821   7.710  0.0248  0.2150  0.4084
  153MOL   O24449188   4.013   4.804   7.678 -0.2031 -0.4506  0.4449
  153MOL   C24549189   3.951   4.918   7.615 -0.2110  0.0627 -0.0954
  153MOL   C24649190   3.853   4.847   7.524 -0.0412 -0.7282 -0.8661
  153MOL   C24749191   3.895   5.005   7.727  0.3818 -0.8041 -0.2922
  153MOL   H24849192   4.290   4.711   0.027  0.4675  1.0786  1.4437
  153MOL   H24949193   4.159   4.615   7.774  1.4681 -0.1032 -1.2726
  153MOL   H25049194   4.167   4.921   7.754 -1.7541  1.0118 -0.8825
  153MOL   H25149195   4.024   4.976   7.559 -0.2108  0.1910  0.0387
  153MOL   H25249196   3.821   4.897   7.433  0.9881  0.7270 -0.4456
  153MOL   H25349197   3.884   4.749   7.488 -0.3297 -0.5766 -1.5406
  153MOL   H25449198   3.759   4.830   7.576  1.1093 -0.0615  1.4956
  153MOL   H25549199   3.824   4.944   7.783  0.4369  1.0846  1.9195
  153MOL   H25649200   3.974   5.038   7.795 -0.6156  0.6034  0.2144
  153MOL   H25749201   3.837   5.088   7.685  2.9135  0.2754 -1.7575
  153MOL   C25849202   4.260   4.807   7.595 -0.2640  0.3715  0.2010
  153MOL   C25949203   4.392   4.882   7.610 -1.0480  1.2705 -0.3409
  153MOL   O26049204   4.480   4.831   7.704 -0.0360 -0.3355 -0.0085
  153MOL   C26149205   4.602   4.768   7.661 -0.6422  0.1161 -0.2895
  153MOL   C26249206   4.703   4.793   7.775  0.3472 -0.8544  0.7757
  153MOL   C26349207   4.574   4.619   7.633  0.3920  0.1437  0.6781
  153MOL   H26449208   4.280   4.701   7.585  0.8319  0.6939 -1.1480
  153MOL   H26549209   4.223   4.837   7.497 -0.6364 -0.0835  0.2058
  153MOL   H26649210   4.438   4.867   7.512 -1.0874  0.0607 -0.1793
  153MOL   H26749211   4.652   4.814   7.575  0.8339  1.2888  1.1663
  153MOL   H26849212   4.708   4.900   7.796 -0.5072 -0.6363 -0.0909
  153MOL   H26949213   4.802   4.761   7.743  1.9762  3.0784  1.6395
  153MOL   H27049214   4.674   4.726   0.036 -1.3262  0.0151  0.9044
  153MOL   H27149215   4.485   4.617   7.570  1.2976  1.6007 -0.7035
  153MOL   H27249216   4.656   4.566   7.585 -0.6881 -0.4391 -0.5411
  153MOL   H27349217   4.555   4.567   7.727  0.7532  0.0100  0.6757
  153MOL   C27449218   4.377   5.033   7.620 -0.5172  0.8356  0.2669
  153MOL   C27549219   4.500   5.107   7.575  0.3131  0.1566 -0.5380
  153MOL   O27649220   4.488   5.136   7.439  0.3832 -0.0173 -0.3350
  153MOL   C27749221   4.569   5.066   7.348 -0.5300  0.4108 -0.0954
  153MOL   C27849222   4.726   5.091   7.357  0.5243 -0.2493  0.2274
  153MOL   C27949223   4.498   5.095   7.218  0.0708 -0.4513  0.0331
  153MOL   H28049224   4.296   5.055   7.551 -0.1992  1.6840  0.1657
  153MOL   H28149225   4.347   5.069   7.718 -0.1618  2.3285 -0.1615
  153MOL   H28249226   4.584   5.042   7.600  1.4729  1.8353 -0.0413
  153MOL   H28349227   4.563   4.959   7.370  1.1875  0.2782 -0.2216
  153MOL   H28449228   4.766   5.188   7.327  1.6855 -0.3431  1.4107
  153MOL   H28549229   4.760   5.070   7.458  2.4864  1.5686 -0.0314
  153MOL   H28649230   4.765   5.013   7.292 -1.5995 -1.9740  0.9682
  153MOL   H28749231   4.527   5.025   7.140 -0.4328 -0.5102 -0.1057
  153MOL   H28849232   4.502   5.193   7.172  0.7590 -0.7170 -0.4768
  153MOL   H28949233   4.394   5.074   7.244 -0.0020  0.2074  0.2668
  153MOL   C29049234   4.532   5.242   7.642  0.5517 -0.3638 -0.0313
  153MOL   C29149235   4.655   5.327   7.596  0.2908 -0.1121  0.4255
  153MOL   O29249236   4.637   5.463   7.648 -0.8682  0.6934 -0.2614
  153MOL   C29349237   4.571   5.552   7.558  0.0470  0.1719  0.7165
  153MOL   C29449238   4.679   5.622   7.478 -0.0851  0.5455 -0.6410
  153MOL   C29549239   4.488   5.646   7.648  0.2267  0.0435 -0.8171
  153MOL   H29649240   4.541   5.220   7.749 -0.8441 -1.5673 -0.1393
  153MOL   H29749241   4.440   5.300   7.635  2.0320  1.9730 -0.4489
  153MOL   H29849242   4.658   5.334   7.487 -0.2696  2.4481  0.5353
  153MOL   H29949243   4.514   5.486   7.493  1.6708  0.4798 -1.0812
  153MOL   H30049244   4.740   5.684   7.544 -2.9229  1.8517  0.8115
  153MOL   H30149245   4.743   5.550   7.427  0.9216  0.0724  1.2239
  153MOL   H30249246   4.637   5.676   7.394  0.4740 -0.3058 -1.4832
  153MOL   H30349247   4.419   5.589   7.710  1.2787 -0.3828 -0.0272
  153MOL   H30449248   4.534   5.726   7.707  1.9267 -1.3565 -0.1929
  153MOL   H30549249   4.418   5.690   7.577 -0.8074 -1.1398 -0.5405
  153MOL   C30649250   4.789   5.286   7.647  0.3194  0.5570  0.2846
  153MOL   C30749251   4.903   5.358   7.578 -0.2865  0.2733  0.6808
  153MOL   O30849252   5.040   5.314   7.609 -0.3028  0.1628 -0.1991
  153MOL   C30949253   5.137   5.412   7.600 -0.3328 -0.1029 -1.0862
  153MOL   C31049254   5.183   5.449   7.741 -0.7037  0.3230  0.6194
  153MOL   C31149255   5.242   5.336   7.514  0.2340 -1.7396 -0.3834
  153MOL   H31249256   4.796   5.179   7.631 -0.3372  0.4668  0.5950
  153MOL   H31349257   4.800   5.305   7.754  0.5013  1.5925  0.0952
  153MOL   H31449258   4.886   5.362   7.470  0.0784 -1.6332  0.5312
  153MOL   H31549259   5.100   5.502   7.552 -1.2537  0.5387  0.7653
  153MOL   H31649260   5.197   5.355   7.794  0.2064  0.7440  1.1384
  153MOL   H31749261   5.118   5.507   7.806 -0.6322  2.2907 -0.9900
  153MOL   H31849262   5.275   5.506   7.732  1.5324 -3.0486  1.3635
  153MOL   H31949263   5.298   5.264   7.573 -0.1791 -4.0963 -2.7524
  153MOL   H32049264   5.319   5.407   7.483  0.6934 -2.2297 -0.3548
  153MOL   H32149265   5.214   5.284   7.423  3.1398 -1.1271 -1.6974
  153MOL   H32249266   4.883   5.460   7.611 -0.1825  0.9057 -1.1620
  154MOL     C149267   3.634   3.063   6.106  0.6769 -1.0696 -0.0985
  154MOL     C249268   3.727   2.975   6.030  0.3717  0.1645 -0.3151
  154MOL     O349269   3.851   3.039   6.020  0.3374 -0.5217 -0.0786
  154MOL     C449270   3.880   3.102   5.891  0.4162  0.0637  0.5154
  154MOL     C549271   4.018   3.052   5.852 -0.0898 -0.2103 -0.0118
  154MOL     C649272   3.893   3.257   5.912 -0.3591 -0.0479  0.5963
  154MOL     H749273   3.533   3.029   6.128 -0.3348  1.4201 -0.7064
  154MOL     H849274   3.677   3.096   6.201 -0.8964 -0.9017  0.5806
  154MOL     H949275   3.681   2.973   5.931 -0.0127  2.0186 -0.1998
  154MOL    H1049276   3.806   3.083   5.813  1.4466 -1.3937 -0.1229
  154MOL    H1149277   4.065   3.124   5.785  0.4457  0.7411  1.3803
  154MOL    H1249278   4.081   3.040   5.939 -0.2975  1.4253  0.3823
  154MOL    H1349279   4.012   2.956   5.801  2.0674 -1.3112  1.7486
  154MOL    H1449280   3.922   3.309   5.821 -0.3958 -0.7099  0.2052
  154MOL    H1549281   3.795   3.284   5.950 -0.3228  2.6815 -1.1315
  154MOL    H1649282   3.966   3.285   5.988  1.7082  1.6121 -1.9032
  154MOL    H1749283   3.616   3.160   6.060  0.8307  0.3609  2.7333
  154MOL    C1849284   3.747   2.841   6.095  0.1842 -0.3383 -0.1047
  154MOL    C1949285   3.827   2.730   6.019  0.1640 -0.2865  0.8225
  154MOL    O2049286   3.743   2.692   5.905  0.0401 -0.2903 -0.0617
  154MOL    C2149287   3.801   2.696   5.775  0.1299  0.6942  0.0510
  154MOL    C2249288   3.681   2.666   5.683  0.1650  0.4123  0.6614
  154MOL    C2349289   3.911   2.591   5.756  0.0328 -0.1484 -0.0461
  154MOL    H2449290   3.791   2.845   6.195 -1.1698 -0.9946  0.5390
  154MOL    H2549291   3.655   2.787   6.117  0.5873 -1.0568 -0.1538
  154MOL    H2649292   3.923   2.773   5.990  0.0182 -1.2433 -1.1554
  154MOL    H2749293   3.836   2.799   5.763  3.2327 -0.0396  2.1943
  154MOL    H2849294   3.702   2.681   5.577 -1.3008 -0.2704  0.2620
  154MOL    H2949295   3.645   2.564   5.696  0.1406  0.2090 -0.9169
  154MOL    H3049296   3.599   2.734   5.703 -0.5816 -0.0430 -0.7662
  154MOL    H3149297   3.933   2.580   5.650 -2.3146  0.7421 -0.6515
  154MOL    H3249298   3.877   2.494   5.792 -1.7093  0.3708 -0.2591
  154MOL    H3349299   4.006   2.611   5.806 -0.8248 -3.9587  3.3503
  154MOL    C3449300   3.857   2.604   6.096  0.1009  0.6466  0.1488
  154MOL    C3549301   3.987   2.596   6.192  0.5085  0.3872 -0.1969
  154MOL    O3649302   3.960   2.489   6.289 -0.2048  0.0810 -0.2258
  154MOL    C3749303   3.885   2.524   6.405  0.2826 -1.2081  0.0871
  154MOL    C3849304   3.810   2.400   6.458 -0.2303 -0.5032  0.3119
  154MOL    C3949305   3.978   2.567   6.522  0.4615 -0.4282  0.5289
  154MOL    H4049306   3.886   2.530   6.021 -0.0850  0.8213 -0.0940
  154MOL    H4149307   3.771   2.562   6.147  0.5021 -0.9061 -0.4218
  154MOL    H4249308   4.018   2.684   6.247 -0.0628  0.5490 -0.1337
  154MOL    H4349309   3.814   2.601   6.375  1.8288  0.9116  1.7139
  154MOL    H4449310   3.715   2.377   6.409 -0.1375  0.7680 -0.4849
  154MOL    H4549311   3.778   2.411   6.561 -3.0765 -1.9894 -0.3475
  154MOL    H4649312   3.872   2.311   6.445 -0.4949 -0.6477 -0.0000
  154MOL    H4749313   3.955   2.514   6.615 -2.8204 -0.4773 -0.2671
  154MOL    H4849314   4.084   2.556   6.496  0.4735 -1.8182  1.1445
  154MOL    H4949315   3.971   2.676   6.528  0.4349 -0.4962  2.0123
  154MOL    C5049316   4.119   2.552   6.126 -0.6573  0.1674 -0.0205
  154MOL    C5149317   4.247   2.584   6.209  0.0853  0.5501 -0.0195
  154MOL    O5249318   4.261   2.726   6.200  0.8767 -0.3731  0.2278
  154MOL    C5349319   4.358   2.778   6.290  0.8161 -0.5376  0.3593
  154MOL    C5449320   4.271   2.815   6.404  0.4860  0.3190 -0.6817
  154MOL    C5549321   4.410   2.905   6.220 -0.0873  0.4500 -0.0911
  154MOL    H5649322   4.116   2.445   6.103  1.4793 -0.0643  0.6762
  154MOL    H5749323   4.118   2.599   6.028  0.9878 -0.8446 -0.5557
  154MOL    H5849324   4.228   2.552   6.311 -0.1336 -0.2215 -0.2943
  154MOL    H5949325   4.439   2.712   6.320  0.3068 -0.0716  2.8215
  154MOL    H6049326   4.203   2.896   6.377  2.1466  2.4653  1.3791
  154MOL    H6149327   4.331   2.858   6.484  0.3413  0.5510 -0.6977
  154MOL    H6249328   4.209   2.737   6.447 -0.1370  0.9619 -0.3963
  154MOL    H6349329   4.334   2.967   6.172 -0.0967 -0.4795 -1.3054
  154MOL    H6449330   4.496   2.887   6.155  0.5772  2.3299  0.2320
  154MOL    H6549331   4.449   2.972   6.296  0.0863 -0.3622  0.5405
  154MOL    C6649332   4.374   2.518   6.143  0.2093  0.0699 -0.5369
  154MOL    C6749333   4.367   2.356   6.130 -0.0560 -0.0588 -0.0423
  154MOL    O6849334   4.347   2.296   6.264 -0.0632  0.1091  0.0687
  154MOL    C6949335   4.220   2.243   6.294 -0.3891  0.7238  0.0691
  154MOL    C7049336   4.217   2.105   6.223 -0.4564 -1.1124 -0.4677
  154MOL    C7149337   4.186   2.231   6.447 -0.2441 -0.3171 -0.0364
  154MOL    H7249338   4.389   2.555   6.042 -0.7817  0.5870 -0.5030
  154MOL    H7349339   4.467   2.533   6.197 -0.4477  0.0386  0.6360
  154MOL    H7449340   4.285   2.329   6.064 -1.5402  2.7364  0.5915
  154MOL    H7549341   4.140   2.307   6.256 -0.3088  0.6637 -0.2021
  154MOL    H7649342   4.294   2.041   6.265  0.9966  1.0927  0.2754
  154MOL    H7749343   4.117   2.064   6.239  0.4754 -3.1270  0.3707
  154MOL    H7849344   4.245   2.099   6.118 -1.8219  0.3459 -0.9371
  154MOL    H7949345   4.174   2.332   6.486 -2.7334 -0.6867  0.2040
  154MOL    H8049346   4.260   2.177   6.506 -0.5404 -1.0911 -0.3700
  154MOL    H8149347   4.089   2.183   6.459 -1.3614  2.2767  1.6126
  154MOL    C8249348   4.495   2.284   6.074 -0.3085 -0.3171 -0.7623
  154MOL    C8349349   4.563   2.343   5.950 -0.0566  0.0117 -0.4688
  154MOL    O8449350   4.684   2.280   5.917  0.0797  0.2733 -0.4017
  154MOL    C8549351   4.800   2.307   5.998  0.7493 -0.0787  0.1998
  154MOL    C8649352   4.884   2.413   5.925  0.4065  0.7571 -0.3727
  154MOL    C8749353   4.864   2.167   6.012  0.2204  0.5450  0.1785
  154MOL    H8849354   4.561   2.287   6.160  1.7757  1.0428 -2.3381
  154MOL    H8949355   4.473   2.180   6.047 -2.5210 -0.0858  0.0261
  154MOL    H9049356   4.595   2.443   5.980 -0.1049 -0.4013  1.0068
  154MOL    H9149357   4.759   2.332   6.096  0.4346  1.7074 -0.3757
  154MOL    H9249358   4.878   2.393   5.818  0.8286 -0.5073 -0.1643
  154MOL    H9349359   4.848   2.515   5.941  1.0640  1.1221 -1.1635
  154MOL    H9449360   4.986   2.425   5.962 -0.2445  1.5059  1.2553
  154MOL    H9549361   4.802   2.097   6.069 -1.7749  2.3456  0.2718
  154MOL    H9649362   4.893   2.128   5.914 -0.2358 -0.1167  0.2964
  154MOL    H9749363   4.948   2.161   6.081 -1.2351  1.1489  2.0689
  154MOL    C9849364   4.474   2.324   5.827 -0.1988  0.9274 -1.1418
  154MOL    C9949365   4.490   2.433   5.724  0.1036 -0.0871 -0.0712
  154MOL   O10049366   4.389   2.529   5.766  0.7353 -0.0160 -0.6766
  154MOL   C10149367   4.432   2.663   5.731 -0.6810  0.7229  0.0656
  154MOL   C10249368   4.534   2.722   5.830  0.4764  0.8773  0.4479
  154MOL   C10349369   4.311   2.750   5.721 -0.5260  0.0838 -0.2582
  154MOL   H10449370   4.497   2.225   5.788  1.5296  0.1023  1.8315
  154MOL   H10549371   4.372   2.308   5.862  0.4531 -1.7184 -0.3805
  154MOL   H10649372   4.594   2.465   5.734 -0.1166  1.1815 -1.7997
  154MOL   H10749373   4.478   2.673   5.633  0.5305  0.8832  0.6354
  154MOL   H10849374   4.553   2.827   5.808  1.3615  0.5771 -0.2313
  154MOL   H10949375   4.624   2.661   5.833  1.1875  1.8581 -0.8513
  154MOL   H11049376   4.508   2.706   5.935  0.1298  1.2024  0.4135
  154MOL   H11149377   4.275   2.774   5.821  2.7622 -2.5114  1.6444
  154MOL   H11249378   4.239   2.700   5.656  1.2157  0.1223 -2.2873
  154MOL   H11349379   4.336   2.845   5.673  3.2845 -0.1323  1.1711
  154MOL   C11449380   4.454   2.400   5.582  0.4383 -0.1728  0.2104
  154MOL   C11549381   4.566   2.329   5.503 -0.0119  0.6603 -0.1167
  154MOL   O11649382   4.537   2.187   5.504 -0.0397  0.0732  0.5219
  154MOL   C11749383   4.651   2.107   5.490 -0.4322 -0.7112  0.7690
  154MOL   C11849384   4.618   1.962   5.448 -0.0661  0.0981  0.3999
  154MOL   C11949385   4.721   2.092   5.632 -0.3686  0.0476  0.0004
  154MOL   H12049386   4.433   2.494   5.531 -1.0064  0.5058  1.9840
  154MOL   H12149387   4.358   2.348   5.573 -0.8095  2.0398  0.4561
  154MOL   H12249388   4.664   2.327   5.551  0.0973 -1.3928 -0.3526
  154MOL   H12349389   4.728   2.139   5.420 -1.0038  0.4054  0.6391
  154MOL   H12449390   4.706   1.902   5.425 -0.5291  0.1837 -1.7379
  154MOL   H12549391   4.553   1.975   5.361  0.2396  0.4695  0.2212
  154MOL   H12649392   4.542   1.922   5.514 -0.7857 -0.0293 -0.4940
  154MOL   H12749393   4.765   2.186   5.664  0.1379 -0.4686  0.8287
  154MOL   H12849394   4.794   2.013   5.616 -0.5369 -0.1963  0.4269
  154MOL   H12949395   4.644   2.062   5.703 -0.8778  1.1925 -0.0576
  154MOL   C13049396   4.592   2.376   5.359 -0.7716 -0.7687  0.3609
  154MOL   C13149397   4.656   2.520   5.333  0.2312 -0.1709  0.2273
  154MOL   O13249398   4.719   2.538   5.203  0.2614  0.2831 -0.1882
  154MOL   C13349399   4.651   2.493   5.084 -0.8361 -0.2426 -0.5071
  154MOL   C13449400   4.530   2.580   5.057  0.2152 -0.0486 -0.2955
  154MOL   C13549401   4.742   2.489   4.963  0.0068  0.2244 -0.7377
  154MOL   H13649402   4.495   2.375   5.310 -0.9240  1.4220  0.5650
  154MOL   H13749403   4.659   2.309   5.306  0.2894  1.2096 -0.8814
  154MOL   H13849404   4.585   2.603   5.338  1.7110  1.3116 -2.3823
  154MOL   H13949405   4.613   2.393   5.105 -0.9982 -0.5128 -2.0344
  154MOL   H14049406   4.475   2.553   4.966  0.6853 -0.7279 -0.3786
  154MOL   H14149407   4.555   2.685   5.047 -0.0195  0.1862  1.4742
  154MOL   H14249408   4.450   2.556   5.127  0.7515 -0.9160  0.0233
  154MOL   H14349409   4.830   2.436   4.998  0.7532  0.5468 -2.1249
  154MOL   H14449410   4.698   2.421   4.889 -1.6134  0.0981  0.3020
  154MOL   H14549411   4.786   2.584   4.934 -0.0977 -0.0262 -1.7296
  154MOL   C14649412   4.787   2.539   5.418  0.2237  0.4490  0.0848
  154MOL   C14749413   4.835   2.683   5.404 -0.3127  0.6225 -0.0225
  154MOL   O14849414   4.729   2.764   5.454 -0.4486  0.4150 -0.5906
  154MOL   C14949415   4.713   2.897   5.415  0.1653  0.7543  0.4169
  154MOL   C15049416   4.582   2.942   5.476  0.0147 -0.3627  0.9080
  154MOL   C15149417   4.722   2.918   5.257 -0.0568 -0.4623  0.6933
  154MOL   H15249418   4.874   2.474   5.413 -0.2702 -0.4131  2.2253
  154MOL   H15349419   4.744   2.533   5.518  2.0019  1.6056  0.9574
  154MOL   H15449420   4.860   2.689   5.298  0.6746  1.2624  0.2411
  154MOL   H15549421   4.796   2.945   5.467 -1.2942  1.4142  2.2093
  154MOL   H15649422   4.576   2.912   5.581  2.4380  0.5104  1.3267
  154MOL   H15749423   4.493   2.913   5.419  0.1179  0.6893  0.1980
  154MOL   H15849424   4.580   3.051   5.477 -0.1565 -0.3658  2.3364
  154MOL   H15949425   4.642   2.984   5.225  0.7125  0.1360 -0.0412
  154MOL   H16049426   4.712   2.824   5.203  1.7486  0.3015 -1.0364
  154MOL   H16149427   4.820   2.958   5.230 -1.6262  2.2643 -1.2001
  154MOL   C16249428   4.959   2.705   5.504 -0.0295  0.3299  0.2688
  154MOL   C16349429   5.095   2.644   5.449 -0.3384  0.6342 -0.3038
  154MOL   O16449430   5.108   2.715   5.332  0.3239 -0.1383 -0.6250
  154MOL   C16549431   5.173   2.659   5.216 -0.6584  0.1443  0.6311
  154MOL   C16649432   5.255   2.774   5.161  0.6301  0.2705 -0.0709
  154MOL   C16749433   5.063   2.612   5.121 -0.7222 -0.2168  0.5519
  154MOL   H16849434   4.976   2.812   5.519  3.9404 -0.0562 -0.8631
  154MOL   H16949435   4.931   2.642   5.588  0.7152  1.0525  1.0768
  154MOL   H17049436   5.089   2.535   5.438  0.9682  0.7553 -2.2827
  154MOL   H17149437   5.239   2.580   5.252 -1.6859 -1.3662 -0.7522
  154MOL   H17249438   5.305   2.739   5.071  1.9104  0.5744  0.5076
  154MOL   H17349439   5.326   2.809   5.236 -1.4510 -0.0525  2.1324
  154MOL   H17449440   5.186   2.851   5.126  0.5889  0.0839 -0.4079
  154MOL   H17549441   5.007   2.698   5.086 -0.4622 -1.7671 -4.2005
  154MOL   H17649442   4.998   2.536   5.164 -0.8322 -0.1259  0.5454
  154MOL   H17749443   5.103   2.560   5.033 -2.0385 -1.7482  0.8366
  154MOL   C17849444   5.209   2.683   5.544 -0.1867  0.6250 -0.8797
  154MOL   C17949445   5.224   2.587   5.668  0.6602 -0.1299 -0.9326
  154MOL   O18049446   5.273   2.455   5.617  0.9341 -0.5842  0.5595
  154MOL   C18149447   5.196   2.345   5.638  0.4904 -0.4794 -0.0834
  154MOL   C18249448   5.214   2.303   5.788  0.0485  0.5656  0.1770
  154MOL   C18349449   5.228   2.242   5.525 -0.2522 -0.8549  0.3721
  154MOL   H18449450   5.199   2.788   5.572  2.3043  0.5213  0.5522
  154MOL   H18549451   5.300   2.680   5.485  1.5255 -0.1434  1.7466
  154MOL   H18649452   5.126   2.574   5.714 -0.6701  2.6504 -2.8891
  154MOL   H18749453   5.091   2.372   5.630  0.3404 -1.2370 -0.7471
  154MOL   H18849454   5.184   2.386   5.851  0.3536 -0.8970  2.2955
  154MOL   H18949455   5.314   2.266   5.811 -0.1852 -2.0452 -2.6728
  154MOL   H19049456   5.148   2.221   5.816  0.7841  0.4398  1.5646
  154MOL   H19149457   5.235   2.286   5.425 -0.6546 -1.4698  0.0726
  154MOL   H19249458   5.145   2.172   5.522 -0.6214 -0.3540 -1.7818
  154MOL   H19349459   5.317   2.193   5.563  2.3806  3.9883  0.9534
  154MOL   C19449460   5.326   2.647   5.772  0.1255  0.6019 -0.4208
  154MOL   C19549461   5.269   2.755   5.866 -0.2854 -0.0451  0.1242
  154MOL   O19649462   5.378   2.821   5.937  0.1266  0.0730  0.3632
  154MOL   C19749463   5.442   2.921   5.863  0.0486  0.3136  0.1480
  154MOL   C19849464   5.401   3.054   5.913 -0.1449 -0.2061 -0.6139
  154MOL   C19949465   5.597   2.898   5.891  0.2607  0.1050  0.4112
  154MOL   H20049466   5.381   2.571   5.827  0.3583  0.0204 -1.4397
  154MOL   H20149467   5.413   2.689   5.721  2.8668 -1.3658  2.4261
  154MOL   H20249468   5.204   2.825   5.813 -1.3888  0.2974  1.8657
  154MOL   H20349469   5.418   2.915   5.757 -0.4435  0.8854  0.2231
  154MOL   H20449470   5.293   3.063   5.905 -0.1415 -0.1189 -0.5663
  154MOL   H20549471   5.423   3.072   6.018 -0.2073  1.2026 -0.8404
  154MOL   H20649472   5.442   3.137   5.856  0.4977 -0.3634 -0.3873
  154MOL   H20749473   5.651   2.968   5.827 -2.4210  1.1519 -0.7597
  154MOL   H20849474   5.622   2.903   5.997 -1.3511 -1.5913  0.8919
  154MOL   H20949475   5.627   2.799   5.857  1.1344  0.2352  0.7908
  154MOL   C21049476   5.177   2.689   5.971 -0.3331  0.1934  0.7185
  154MOL   C21149477   5.114   2.779   6.075 -0.6895  0.6293  0.0645
  154MOL   O21249478   4.973   2.785   6.056 -0.0500 -0.5323  0.0343
  154MOL   C21349479   4.921   2.880   5.961  0.3476 -0.4452  0.7054
  154MOL   C21449480   4.883   2.823   5.824 -0.3446  0.2218  0.1919
  154MOL   C21549481   4.792   2.937   6.017  0.2520  0.5101 -0.3243
  154MOL   H21649482   5.242   2.616   6.018 -1.3365 -1.4303 -0.3665
  154MOL   H21749483   5.101   2.623   5.930 -0.0599 -0.9583  2.0180
  154MOL   H21849484   5.170   2.872   6.083 -1.8722  1.4563 -0.9784
  154MOL   H21949485   5.000   2.953   5.944 -1.8518  1.5882 -1.1325
  154MOL   H22049486   4.971   2.799   5.766  0.5866  0.0395  1.6577
  154MOL   H22149487   4.827   2.905   5.779 -0.4799  0.3837  0.6456
  154MOL   H22249488   4.824   2.733   5.844 -2.0507  0.9374 -1.4963
  154MOL   H22349489   4.819   3.001   6.102  3.9580 -4.2112  2.2938
  154MOL   H22449490   4.727   2.864   6.064  0.6935  0.1907 -0.2045
  154MOL   H22549491   4.741   3.008   5.952 -0.8567 -0.8252 -0.9380
  154MOL   C22649492   5.125   2.701   6.208  0.0819  0.6480  0.5253
  154MOL   C22749493   5.051   2.757   6.332 -0.1438  0.1390  0.5129
  154MOL   O22849494   5.108   2.890   6.360  0.2296 -0.4297  0.3611
  154MOL   C22949495   5.055   2.972   6.466  0.1097 -0.2762 -0.3478
  154MOL   C23049496   5.020   3.111   6.410  0.2096  0.4830 -0.8233
  154MOL   C23149497   5.152   2.973   6.586  0.4499 -0.5918 -0.0804
  154MOL   H23249498   5.228   2.678   6.236 -0.3000  0.2215  1.6456
  154MOL   H23349499   5.085   2.600   6.193  0.7922  0.7406 -2.2646
  154MOL   H23449500   4.946   2.782   6.320  0.1830  1.1769 -0.2377
  154MOL   H23549501   4.963   2.928   6.502 -0.8986  0.6516 -1.7631
  154MOL   H23649502   5.108   3.174   6.400 -0.1964  0.9246 -1.6732
  154MOL   H23749503   4.960   3.108   6.319 -1.4029  0.4440  0.2173
  154MOL   H23849504   4.967   3.169   6.485  0.2297 -0.3577 -0.1452
  154MOL   H23949505   5.185   2.871   6.607  2.3392  0.1567  0.6778
  154MOL   H24049506   5.111   3.012   6.679 -1.0037 -1.3277 -0.4003
  154MOL   H24149507   5.241   3.031   6.564 -0.3146  0.8252  0.5089
  154MOL   C24249508   5.055   2.654   6.454  0.4630  0.4590 -0.2464
  154MOL   C24349509   4.977   2.528   6.454 -0.3251  0.9698 -0.2673
  154MOL   O24449510   4.839   2.549   6.451 -0.1162 -0.4085 -0.3033
  154MOL   C24549511   4.761   2.485   6.352  0.2186  0.3479 -0.3287
  154MOL   C24649512   4.621   2.484   6.410 -0.2207  0.0261  0.0120
  154MOL   C24749513   4.769   2.576   6.227  0.5305 -0.4531 -0.2507
  154MOL   H24849514   5.160   2.632   6.470  0.2529 -0.2893  0.1620
  154MOL   H24949515   5.027   2.709   6.544  1.9111  1.6174 -0.4918
  154MOL   H25049516   5.012   2.479   6.362  1.9683 -0.3907  1.2693
  154MOL   H25149517   4.800   2.387   6.323  0.1263  0.6068 -1.3662
  154MOL   H25249518   4.551   2.427   6.348 -0.2907  1.3733 -1.1584
  154MOL   H25349519   4.622   2.425   6.502 -0.7606  0.3304  0.2118
  154MOL   H25449520   4.585   2.585   6.427  2.8895  1.6250 -2.2612
  154MOL   H25549521   4.773   2.678   6.265  1.6258 -0.8827  0.7911
  154MOL   H25649522   4.860   2.553   6.173  2.2714  1.5384  1.7172
  154MOL   H25749523   4.686   2.573   6.156  0.8852  0.5131 -0.7166
  154MOL   C25849524   5.006   2.441   6.583 -0.4005 -0.0871  0.2390
  154MOL   C25949525   4.932   2.308   6.586 -0.6849 -0.2672  0.0639
  154MOL   O26049526   4.938   2.261   6.720 -0.1431 -0.3205 -0.5580
  154MOL   C26149527   4.834   2.308   6.813  0.3131  0.1574  0.5217
  154MOL   C26249528   4.756   2.183   6.859 -0.2058 -0.2826  0.1073
  154MOL   C26349529   4.907   2.380   6.923 -0.2102  1.1577 -0.0823
  154MOL   H26449530   5.113   2.425   6.595 -0.3711 -1.6145 -1.7548
  154MOL   H26549531   4.973   2.497   6.671 -0.4054  0.5971 -0.1935
  154MOL   H26649532   4.831   2.322   6.547 -1.0972 -2.5887  0.2814
  154MOL   H26749533   4.765   2.378   6.766  0.7472 -0.2502 -0.7396
  154MOL   H26849534   4.673   2.189   6.929 -0.4927 -2.5599 -0.0091
  154MOL   H26949535   4.823   2.110   6.904  0.0574  0.5473  1.0854
  154MOL   H27049536   4.707   2.140   6.772  0.4531 -0.3224 -0.2474
  154MOL   H27149537   4.932   2.484   6.904  0.3408  1.0458  0.0385
  154MOL   H27249538   4.858   2.383   7.020 -0.7919  2.4713 -0.3928
  154MOL   H27349539   4.999   2.326   6.945 -0.9117  0.8374  2.1734
  154MOL   C27449540   4.992   2.196   6.510  0.1083 -0.2368  0.6293
  154MOL   C27549541   4.910   2.070   6.499  0.1208  0.1893 -0.4018
  154MOL   O27649542   4.801   2.105   6.416 -0.3984 -0.0316 -0.5670
  154MOL   C27749543   4.683   2.037   6.433 -0.2088 -0.7898 -0.2648
  154MOL   C27849544   4.646   1.985   6.290 -0.3972 -0.1363 -0.4779
  154MOL   C27949545   4.584   2.140   6.489 -0.2941 -0.3726 -0.3337
  154MOL   H28049546   5.031   2.223   6.412 -1.6200  1.1787  0.2896
  154MOL   H28149547   5.083   2.164   6.560  1.1362 -0.0479 -1.0751
  154MOL   H28249548   4.876   2.049   6.600 -1.8909  2.6889 -0.5184
  154MOL   H28349549   4.680   1.949   6.497 -0.4759 -0.2516  0.4613
  154MOL   H28449550   4.626   2.069   6.224 -0.0531  0.3811  0.0633
  154MOL   H28549551   4.730   1.925   6.253 -0.2790 -1.5427  1.9418
  154MOL   H28649552   4.562   1.916   6.297  0.6374 -1.2954  1.0756
  154MOL   H28749553   4.630   2.202   6.566 -0.1151  0.0347 -0.7628
  154MOL   H28849554   4.494   2.103   6.538  0.8502 -1.0634  1.2664
  154MOL   H28949555   4.558   2.195   6.398 -2.2885  0.8344  0.9162
  154MOL   C29049556   4.995   1.952   6.438 -0.0552  0.0596  0.3971
  154MOL   C29149557   4.935   1.810   6.457 -0.4476  0.5261  0.2873
  154MOL   O29249558   5.024   1.722   6.393 -0.0432 -0.3246  0.2121
  154MOL   C29349559   4.977   1.667   6.272 -0.4387  0.5149  0.8974
  154MOL   C29449560   4.897   1.542   6.292  0.2285  0.2436 -0.0678
  154MOL   C29549561   5.093   1.642   6.176  0.1603  0.2103 -0.2892
  154MOL   H29649562   5.085   1.941   6.498 -0.6836 -2.5421  0.9259
  154MOL   H29749563   5.016   1.951   6.331 -0.1481 -2.5378  0.3653
  154MOL   H29849564   4.833   1.815   6.418 -0.2615  0.5711 -0.1949
  154MOL   H29949565   4.913   1.738   6.220  1.1062  0.0868 -1.6770
  154MOL   H30049566   4.958   1.468   6.343  0.4151 -0.4450 -1.2686
  154MOL   H30149567   4.804   1.572   6.340  0.7661  0.2657  0.9743
  154MOL   H30249568   4.866   1.498   6.197  0.2144 -1.4245  0.6886
  154MOL   H30349569   5.128   1.738   6.137  0.8030 -0.2273 -0.7869
  154MOL   H30449570   5.185   1.597   6.212  0.5666  1.6411  0.5165
  154MOL   H30549571   5.066   1.578   6.092 -2.9741 -2.0591  2.3093
  154MOL   C30649572   4.912   1.768   6.603  0.7147 -0.1035 -0.0041
  154MOL   C30749573   4.858   1.625   6.627 -0.0937  0.6645 -0.9331
  154MOL   O30849574   4.898   1.579   6.759 -0.1200 -0.6898  0.0996
  154MOL   C30949575   4.829   1.462   6.798 -0.1955  0.3639  0.1861
  154MOL   C31049576   4.894   1.338   6.734  0.5049 -0.2435 -0.2655
  154MOL   C31149577   4.826   1.451   6.954 -0.4240  0.2955  0.5690
  154MOL   H31249578   4.848   1.843   6.651  0.6583  1.1630 -1.9896
  154MOL   H31349579   5.010   1.778   6.648  1.3080 -0.9880 -1.1003
  154MOL   H31449580   4.750   1.638   6.624 -0.1325  0.0701 -2.2688
  154MOL   H31549581   4.725   1.470   6.769  0.9265 -0.0843 -4.3325
  154MOL   H31649582   4.860   1.246   6.781 -1.8661  0.4388 -0.5691
  154MOL   H31749583   5.001   1.323   6.747  0.5352  0.1786 -0.0096
  154MOL   H31849584   4.876   1.324   6.627 -1.8321 -2.2280  0.3513
  154MOL   H31949585   4.773   1.356   6.965  1.2067 -0.6924  0.1340
  154MOL   H32049586   4.786   1.537   7.008 -0.5223 -0.9061  2.4509
  154MOL   H32149587   4.925   1.438   6.996  0.3045  0.3699 -1.0853
  154MOL   H32249588   4.885   1.559   6.545  0.3397  1.0411 -1.1010
  155MOL     C149589   7.452   5.144   0.674  0.3348 -0.2066 -0.2634
  155MOL     C249590   7.322   5.183   0.737  0.2150 -0.0952 -0.5685
  155MOL     O349591   7.216   5.121   0.658  0.1472 -0.2253  0.0111
  155MOL     C449592   7.175   5.193   0.542 -0.1733 -0.5163 -0.2796
  155MOL     C549593   7.033   5.240   0.578 -0.1516  0.2785 -0.4856
  155MOL     C649594   7.181   5.090   0.434  0.7072  0.2093 -0.3645
  155MOL     H749595   7.447   5.039   0.644 -1.6945 -0.7031  1.6285
  155MOL     H849596   7.479   5.208   0.590 -2.8959 -0.0103 -1.2497
  155MOL     H949597   7.309   5.291   0.744  0.1697 -0.1714  0.5049
  155MOL    H1049598   7.232   5.281   0.511 -0.3809  1.2913  3.9884
  155MOL    H1149599   7.002   5.302   0.493  0.9736  2.3637  0.5692
  155MOL    H1249600   6.971   5.156   0.608  0.2182  0.0247 -0.4192
  155MOL    H1349601   7.034   5.305   0.666 -0.9936 -1.4609  0.8328
  155MOL    H1449602   7.158   5.139   0.340 -1.0575 -1.3784 -0.8127
  155MOL    H1549603   7.283   5.056   0.419  0.8236  0.8225 -0.9695
  155MOL    H1649604   7.102   5.015   0.447  1.6112 -0.5492  0.8121
  155MOL    H1749605   7.527   5.147   0.753 -0.5976  1.7890  0.5768
  155MOL    C1849606   7.318   5.124   0.880  0.2137  0.6666  0.1305
  155MOL    C1949607   7.194   5.173   0.952 -0.4401 -0.2523  0.6181
  155MOL    O2049608   7.228   5.308   0.982 -0.6992 -0.2936 -0.2742
  155MOL    C2149609   7.118   5.398   0.953  0.0565 -0.9510  0.8308
  155MOL    C2249610   7.173   5.543   0.954 -0.5440  0.3174  0.5273
  155MOL    C2349611   7.019   5.388   1.073  0.2771 -0.4189  0.1452
  155MOL    H2449612   7.321   5.015   0.876  0.0837  0.6668  0.0283
  155MOL    H2549613   7.409   5.150   0.934  1.4477 -1.9513 -0.6057
  155MOL    H2649614   7.104   5.169   0.890 -0.7884  1.2110  1.0240
  155MOL    H2749615   7.058   5.378   0.865  1.2148 -2.6490  0.3990
  155MOL    H2849616   7.094   5.614   0.927 -2.8768 -1.5802  2.1453
  155MOL    H2949617   7.215   5.568   1.051  0.1141  0.7211  0.1387
  155MOL    H3049618   7.245   5.535   0.872 -1.7209  1.2662 -0.6338
  155MOL    H3149619   6.933   5.455   1.077 -0.9704 -1.9454 -0.6253
  155MOL    H3249620   7.077   5.390   1.165  0.9840  1.4309 -0.3193
  155MOL    H3349621   6.971   5.290   1.076  2.0083 -1.2427  1.2555
  155MOL    C3449622   7.169   5.089   1.086  0.4449 -0.2558 -0.0043
  155MOL    C3549623   7.129   4.937   1.078 -0.1789  0.0955  0.0525
  155MOL    O3649624   7.102   4.878   1.205 -0.5266 -0.4301  0.6324
  155MOL    C3749625   7.219   4.865   1.298  0.1502  0.6730 -0.1402
  155MOL    C3849626   7.169   4.789   1.419  0.2921  0.4573  0.0733
  155MOL    C3949627   7.336   4.785   1.234 -0.1017  0.2228  0.6433
  155MOL    H4049628   7.087   5.136   1.140  0.5411  1.5955 -1.4059
  155MOL    H4149629   7.255   5.105   1.153 -0.6064  1.5840  0.9502
  155MOL    H4249630   7.205   4.874   1.030 -1.0928 -2.5529  1.9487
  155MOL    H4349631   7.244   4.966   1.332  3.3257 -1.5063  4.4254
  155MOL    H4449632   7.077   4.825   1.465  1.2916  0.5693  2.0394
  155MOL    H4549633   7.251   4.764   1.486  0.2538  1.3915  0.4743
  155MOL    H4649634   7.138   4.692   1.378 -0.2914  1.8597 -2.9884
  155MOL    H4749635   7.367   4.845   1.148  0.6259 -2.6723 -1.1886
  155MOL    H4849636   7.419   4.780   1.304  0.8633  1.4635 -0.3834
  155MOL    H4949637   7.305   4.687   1.196  0.2275  0.3967 -0.0768
  155MOL    C5049638   7.005   4.919   0.986  0.4542  0.8593  0.5187
  155MOL    C5149639   6.972   4.769   0.964 -0.6301  0.0404 -0.0923
  155MOL    O5249640   7.008   4.727   0.831 -0.3568  0.9086  0.0453
  155MOL    C5349641   7.139   4.683   0.816 -0.5432  0.5535 -0.6588
  155MOL    C5449642   7.198   4.779   0.709  0.2210 -0.1305  0.2131
  155MOL    C5549643   7.157   4.533   0.793 -0.3402  0.6913  0.1666
  155MOL    H5649644   6.921   4.979   1.021  2.2868  2.0118  3.1715
  155MOL    H5749645   7.016   4.958   0.885 -1.2448 -1.4292 -0.5926
  155MOL    H5849646   7.018   4.708   1.041 -1.0129 -0.7191 -0.4602
  155MOL    H5949647   7.194   4.706   0.908 -0.9192 -1.0557 -0.0127
  155MOL    H6049648   7.171   4.745   0.609 -1.2861 -3.2490  1.6109
  155MOL    H6149649   7.307   4.779   0.709  0.2242 -0.5858 -0.5819
  155MOL    H6249650   7.156   4.879   0.715  0.9170  0.2067 -0.4201
  155MOL    H6349651   7.106   4.506   0.700 -0.3357 -0.8719  0.6111
  155MOL    H6449652   7.094   4.477   0.862 -2.5279  2.9834  0.0929
  155MOL    H6549653   7.254   4.484   0.795 -1.4916 -1.6824  0.8517
  155MOL    C6649654   6.827   4.730   0.966 -0.0338  0.8871 -0.1037
  155MOL    C6749655   6.778   4.583   0.956  0.0232  0.2935 -0.0195
  155MOL    O6849656   6.841   4.487   1.040 -0.5090  0.0311  0.3983
  155MOL    C6949657   6.845   4.525   1.177 -0.1737 -0.8298  0.3638
  155MOL    C7049658   6.707   4.544   1.245 -1.0037  0.6286 -0.2547
  155MOL    C7149659   6.920   4.406   1.233  0.5129  0.2928  0.0430
  155MOL    H7249660   6.780   4.778   1.052 -2.1106 -1.3558  0.0653
  155MOL    H7349661   6.773   4.785   0.888 -1.4973 -2.0185 -1.2196
  155MOL    H7449662   6.673   4.586   0.986 -0.2124  1.5186 -0.9323
  155MOL    H7549663   6.897   4.618   1.197  0.4441 -0.8954 -0.9038
  155MOL    H7649664   6.639   4.460   1.231  1.2760 -1.3999  0.3869
  155MOL    H7749665   6.715   4.557   1.352 -2.6987 -1.7069  0.1972
  155MOL    H7849666   6.666   4.639   1.211  1.3683  2.0144  0.6495
  155MOL    H7949667   7.026   4.425   1.217  1.1400 -3.3973 -0.8536
  155MOL    H8049668   6.880   4.309   1.203 -0.6787  0.4760  0.9896
  155MOL    H8149669   6.912   4.393   1.341  0.7997 -1.0355 -0.0887
  155MOL    C8249670   6.768   4.526   0.811 -0.0190 -0.0125 -0.2675
  155MOL    C8349671   6.677   4.404   0.813  0.2822 -0.2342 -0.7319
  155MOL    O8449672   6.538   4.441   0.818 -0.1512  0.8570  0.0161
  155MOL    C8549673   6.446   4.348   0.877 -0.1785 -0.5782  0.1962
  155MOL    C8649674   6.313   4.413   0.833 -0.2694  0.0770 -0.0365
  155MOL    C8749675   6.463   4.332   1.028 -0.3488  0.3748 -0.1868
  155MOL    H8849676   6.724   4.593   0.737 -1.6695 -1.3813 -0.5593
  155MOL    H8949677   6.868   4.501   0.775  0.6167  0.4841  1.1293
  155MOL    H9049678   6.715   4.335   0.888  2.7143  0.4685 -1.2816
  155MOL    H9149679   6.457   4.255   0.822  2.5925  0.9449 -1.9463
  155MOL    H9249680   6.295   4.431   0.727 -2.6542  1.4190  0.5793
  155MOL    H9349681   6.234   4.343   0.862 -1.3049  0.7959 -1.0994
  155MOL    H9449682   6.291   4.506   0.885 -0.6725 -0.8344  1.4491
  155MOL    H9549683   6.391   4.262   1.072 -0.9077  1.9128  1.4016
  155MOL    H9649684   6.564   4.293   1.043 -1.0792 -0.8790  1.7275
  155MOL    H9749685   6.447   4.424   1.084 -0.0108  0.3742 -0.0843
  155MOL    C9849686   6.694   4.304   0.690 -0.0057 -0.1278 -0.3438
  155MOL    C9949687   6.649   4.363   0.550  0.5062 -0.0037 -0.2599
  155MOL   O10049688   6.574   4.278   0.467  0.0915  0.1525  0.5495
  155MOL   C10149689   6.437   4.283   0.473  0.0343 -0.3430  0.8857
  155MOL   C10249690   6.390   4.152   0.398 -0.7555 -0.0575  0.0359
  155MOL   C10349691   6.384   4.405   0.393 -0.1635 -0.8162 -0.0619
  155MOL   H10449692   6.799   4.272   0.690 -0.3041 -1.1607  0.6516
  155MOL   H10549693   6.638   4.215   0.719  1.1176 -0.1794  1.7906
  155MOL   H10649694   6.589   4.452   0.567  0.2035 -0.2566  0.0043
  155MOL   H10749695   6.398   4.286   0.575 -0.5248  0.9001  0.6430
  155MOL   H10849696   6.284   4.143   0.423 -0.4749 -1.0137  0.9348
  155MOL   H10949697   6.448   4.065   0.428  1.9236  0.7251 -2.6566
  155MOL   H11049698   6.411   4.166   0.292  0.0449 -1.1576  0.0384
  155MOL   H11149699   6.276   4.396   0.390 -0.1928 -0.1647 -1.0135
  155MOL   H11249700   6.410   4.403   0.288  1.7977  0.9605  0.3524
  155MOL   H11349701   6.414   4.503   0.432 -1.6894 -0.4889  0.3318
  155MOL   C11449702   6.777   4.412   0.475  0.0830 -1.1158  0.4150
  155MOL   C11549703   6.735   4.517   0.361 -0.1655 -0.7738 -0.0777
  155MOL   O11649704   6.822   4.636   0.374 -0.0925  0.2084  0.1099
  155MOL   C11749705   6.784   4.737   0.464  0.4026  0.1349 -0.3350
  155MOL   C11849706   6.733   4.859   0.386 -0.3723  0.0741 -0.7443
  155MOL   C11949707   6.912   4.776   0.541 -0.0495  0.4608 -0.3675
  155MOL   H12049708   6.830   4.326   0.433  0.8648 -0.2434 -0.4166
  155MOL   H12149709   6.842   4.463   0.546  1.0762  1.3671 -2.1862
  155MOL   H12249710   6.635   4.561   0.363  0.4977  0.7943 -0.5313
  155MOL   H12349711   6.714   4.695   0.536 -0.2897  2.8239  0.6179
  155MOL   H12449712   6.812   4.889   0.317 -0.0904  0.4556 -0.2659
  155MOL   H12549713   6.729   4.938   0.462 -0.2251  0.3819 -1.0552
  155MOL   H12649714   6.638   4.862   0.334 -0.4375 -1.6405 -0.7487
  155MOL   H12749715   6.888   4.860   0.606 -2.2411 -0.1220 -0.3565
  155MOL   H12849716   7.001   4.796   0.482  1.6864 -0.6114  1.8086
  155MOL   H12949717   6.925   4.688   0.604  1.5878 -0.3678 -1.7963
  155MOL   C13049718   6.763   4.451   0.226 -0.4863 -0.3477  0.1376
  155MOL   C13149719   6.722   4.524   0.100 -0.2068  0.0442 -0.0748
  155MOL   O13249720   6.584   4.488   0.079 -0.1300 -0.2764 -0.0586
  155MOL   C13349721   6.506   4.584   7.819 -0.5633  0.3976 -0.1454
  155MOL   C13449722   6.387   4.514   7.749  0.0372 -0.2268  0.0536
  155MOL   C13549723   6.455   4.713   0.080 -0.2780  0.1377 -0.1600
  155MOL   H13649724   6.709   4.356   0.227 -1.1730  0.0147 -1.0583
  155MOL   H13749725   6.862   4.406   0.226 -1.0806 -1.6833  0.7529
  155MOL   H13849726   6.734   4.632   0.104  0.4260 -0.0380  0.3838
  155MOL   H13949727   6.567   4.627   7.740  1.1287 -1.1919  0.2766
  155MOL   H14049728   6.344   4.582   7.675  2.4281  0.7456 -0.4760
  155MOL   H14149729   6.313   4.490   0.005 -0.1086  3.0422  1.0093
  155MOL   H14249730   6.420   4.419   7.704 -0.6207  0.0275 -0.9953
  155MOL   H14349731   6.438   4.799   0.015 -0.5288 -0.8205 -1.3920
  155MOL   H14449732   6.366   4.687   0.137 -1.2990  0.1405 -1.7285
  155MOL   H14549733   6.524   4.733   0.162 -0.3349 -0.2603 -0.0131
  155MOL   C14649734   6.797   4.468   7.796  0.9294 -0.2252 -0.1105
  155MOL   C14749735   6.949   4.473   7.787  0.3812 -0.1558 -0.7927
  155MOL   O14849736   6.990   4.403   7.665 -0.0633  0.4996 -0.2642
  155MOL   C14949737   6.979   4.264   7.661  0.4972 -0.1197  0.2827
  155MOL   C15049738   7.122   4.226   7.628  0.6700 -0.3522 -0.8585
  155MOL   C15149739   6.895   4.221   7.540 -0.8935  0.2927 -0.3199
  155MOL   H15249740   6.754   4.518   7.709  0.3964  2.0970  1.4277
  155MOL   H15349741   6.760   4.365   7.796  0.5287 -0.1102 -2.5656
  155MOL   H15449742   7.002   4.418   0.044  1.0218  0.6931 -0.6178
  155MOL   H15549743   6.944   4.217   7.752  2.1647  0.2875  1.1619
  155MOL   H15649744   7.187   4.262   7.708  0.4219 -0.4779 -0.5965
  155MOL   H15749745   7.159   4.280   7.541  0.3848  1.0713 -0.1153
  155MOL   H15849746   7.146   4.120   7.621  0.0873 -0.6665  1.4417
  155MOL   H15949747   6.794   4.258   7.555  0.1914  3.1615  0.1597
  155MOL   H16049748   6.897   4.112   7.544  0.2490  0.2681 -1.3707
  155MOL   H16149749   6.932   4.268   7.449  0.2969 -0.3761 -0.2058
  155MOL   C16249750   7.008   4.615   7.808  0.5301 -0.5540  0.2809
  155MOL   C16349751   7.164   4.620   0.013  0.1015 -0.4184 -0.0072
  155MOL   O16449752   7.194   4.536   0.132  0.0778 -0.2900 -0.0756
  155MOL   C16549753   7.168   4.603   0.263  0.2698  0.0989 -0.1189
  155MOL   C16649754   7.289   4.693   0.297  0.8453 -0.5267  0.2689
  155MOL   C16749755   7.137   4.498   0.367  0.0445 -0.2762 -0.6314
  155MOL   H16849756   6.984   4.685   7.728 -0.2858 -3.0460 -1.7125
  155MOL   H16949757   6.962   4.663   0.074  1.5788  0.7749  0.1198
  155MOL   H17049758   7.189   4.722   0.042  0.0927 -0.2722 -0.5069
  155MOL   H17149759   7.080   4.666   0.253 -0.3965 -0.2530  3.0209
  155MOL   H17249760   7.379   4.632   0.288  0.2886 -0.9678 -2.6839
  155MOL   H17349761   7.272   4.723   0.401  3.2130  1.1019  0.2383
  155MOL   H17449762   7.291   4.778   0.229 -0.4445  0.7156  1.7374
  155MOL   H17549763   7.223   4.433   0.384  0.0422 -0.0160  0.4217
  155MOL   H17649764   7.049   4.445   0.329 -0.5249  1.4333 -1.7756
  155MOL   H17749765   7.112   4.546   0.461 -1.6933 -1.8623 -0.2577
  155MOL   C17849766   7.255   4.589   7.709  0.3248 -0.4105  0.4620
  155MOL   C17949767   7.268   4.693   7.597 -0.0127 -0.3883  0.0314
  155MOL   O18049768   7.379   4.641   7.527 -0.3422 -0.0370 -0.1372
  155MOL   C18149769   7.495   4.721   7.535 -0.2192  0.1207  0.2602
  155MOL   C18249770   7.597   4.666   7.437 -0.0179 -0.4424 -0.2855
  155MOL   C18349771   7.559   4.735   7.673 -0.1929 -0.8638  0.2716
  155MOL   H18449772   7.213   4.507   7.651  0.4879  0.4430 -0.8863
  155MOL   H18549773   7.357   4.563   7.738 -0.2003 -1.9000  1.0162
  155MOL   H18649774   7.279   4.790   7.648 -3.6586 -0.8624  1.8806
  155MOL   H18749775   7.460   4.820   7.508  1.4688  1.2529  2.1262
  155MOL   H18849776   7.617   4.560   7.454 -2.5333 -0.7574  0.9333
  155MOL   H18949777   7.690   4.723   7.436  1.5542 -2.8737  1.7966
  155MOL   H19049778   7.565   4.672   7.333 -1.6631  1.4174  0.3046
  155MOL   H19149779   7.623   4.649   7.696  1.2906  0.1809  0.1385
  155MOL   H19249780   7.484   4.748   7.750 -1.3076 -2.5634 -0.5061
  155MOL   H19349781   7.626   4.821   7.667 -0.8671 -0.3276  0.4029
  155MOL   C19449782   7.148   4.703   7.496 -0.0353 -0.2898  0.8723
  155MOL   C19549783   7.094   4.843   7.464  0.0579 -0.5884 -0.6264
  155MOL   O19649784   6.985   4.823   7.377  0.2590  0.3396  0.0163
  155MOL   C19749785   6.862   4.771   7.429  0.4086 -0.0947 -0.7231
  155MOL   C19849786   6.753   4.878   7.394 -0.0797  0.4571 -0.3109
  155MOL   C19949787   6.836   4.630   7.377 -0.3419  0.4207  0.5238
  155MOL   H20049788   7.167   4.661   7.397  1.1539  1.0524  0.5066
  155MOL   H20149789   7.066   4.642   7.531 -0.7855 -0.5987 -1.3480
  155MOL   H20249790   7.043   4.890   7.548  1.2121 -0.2118 -0.1287
  155MOL   H20349791   6.855   4.769   7.537 -2.4461  0.8145 -0.8259
  155MOL   H20449792   6.665   4.875   7.458  0.8611  0.1929  1.0033
  155MOL   H20549793   6.808   4.971   7.407  1.3176 -0.2964 -0.6534
  155MOL   H20649794   6.713   4.874   7.293 -0.3547  0.2177 -0.1914
  155MOL   H20749795   6.902   4.550   7.409  1.0338  0.2635 -2.5350
  155MOL   H20849796   6.744   4.597   7.426  0.5140 -0.2809  1.6756
  155MOL   H20949797   6.813   4.624   7.270 -0.5871 -0.4902  0.6186
  155MOL   C21049798   7.199   4.936   7.393  0.7132 -0.2563  0.0933
  155MOL   C21149799   7.244   5.056   7.480  0.4766 -0.7675 -0.3608
  155MOL   O21249800   7.374   5.095   7.434  0.6783 -0.4512 -0.7123
  155MOL   C21349801   7.440   5.187   7.516  0.3315  0.2771  0.0617
  155MOL   C21449802   7.544   5.102   7.600  0.5204  0.0817 -0.0302
  155MOL   C21549803   7.517   5.291   7.437 -0.4907  0.2247 -0.3597
  155MOL   H21649804   7.164   4.974   7.297  0.8244 -0.0581  0.1309
  155MOL   H21749805   7.279   4.867   7.365 -0.5074 -1.4938 -0.4367
  155MOL   H21849806   7.264   5.014   7.579  0.3551  1.0673  0.4596
  155MOL   H21949807   7.376   5.227   7.594 -1.3960  1.2942 -1.8416
  155MOL   H22049808   7.631   5.068   7.544  0.7218  0.1257  0.2606
  155MOL   H22149809   7.485   5.013   7.624 -0.8784  0.8582 -0.4952
  155MOL   H22249810   7.582   5.149   7.690 -1.8806 -0.3394  1.2469
  155MOL   H22349811   7.609   5.256   7.389 -1.3037 -1.3486 -0.8136
  155MOL   H22449812   7.547   5.371   7.505 -3.4468 -1.5460  3.2064
  155MOL   H22549813   7.457   5.336   7.358 -1.7998  0.1390  0.5644
  155MOL   C22649814   7.146   5.177   7.477  0.1464  0.5977  0.0771
  155MOL   C22749815   7.076   5.225   7.608  0.0486 -0.2165 -0.4688
  155MOL   O22849816   6.989   5.119   7.655 -0.6528  0.6201  0.0241
  155MOL   C22949817   6.996   5.096   7.804  0.6893  0.6038 -0.4872
  155MOL   C23049818   7.119   5.018   0.027 -0.7152  0.1386 -0.3934
  155MOL   C23149819   6.867   5.031   0.017 -0.2660  0.6472 -0.3333
  155MOL   H23249820   7.067   5.161   7.403 -1.9437  1.7458  2.0098
  155MOL   H23349821   7.201   5.258   7.429  0.0013  0.6971  0.0778
  155MOL   H23449822   7.149   5.258   7.682 -0.0007  1.4588 -1.1426
  155MOL   H23549823   7.005   5.195   0.028 -1.4855  0.7146 -0.2504
  155MOL   H23649824   7.096   4.913   0.006  0.4428  0.1448 -1.7495
  155MOL   H23749825   7.210   5.050   7.797 -1.2350  1.3904 -0.5500
  155MOL   H23849826   7.129   5.040   0.133 -1.7491 -1.3486  0.0399
  155MOL   H23949827   6.846   5.008   0.122 -5.6571 -1.4703 -1.7010
  155MOL   H24049828   6.873   4.938   7.781  0.2562  0.4313  0.0646
  155MOL   H24149829   6.784   5.094   7.806  0.2894  1.1458 -0.8030
  155MOL   C24249830   6.981   5.344   7.577 -0.4160 -1.0746 -0.1210
  155MOL   C24349831   7.039   5.478   7.531  0.4952 -0.3358 -0.0778
  155MOL   O24449832   7.106   5.532   7.642 -0.5939 -0.0745  0.0794
  155MOL   C24549833   7.180   5.655   7.615  0.4741 -0.5475 -0.2670
  155MOL   C24649834   7.159   5.747   7.732  0.3625  0.4704 -0.2234
  155MOL   C24749835   7.327   5.605   7.619  0.4869 -0.3024  0.2087
  155MOL   H24849836   6.904   5.318   7.505 -1.6327  1.8049  0.0487
  155MOL   H24949837   6.926   5.371   7.667  0.1059 -1.2017  0.2405
  155MOL   H25049838   7.124   5.469   7.463 -0.0096 -1.1726 -0.6021
  155MOL   H25149839   7.164   5.711   7.523  3.4361 -0.1846 -0.6200
  155MOL   H25249840   7.053   5.771   7.734  0.1492 -0.5029  0.2992
  155MOL   H25349841   7.178   5.688   0.002  3.1057  1.7227  0.0503
  155MOL   H25449842   7.218   5.838   7.725  0.7473  0.0966 -2.1338
  155MOL   H25549843   7.335   5.537   7.534 -1.3844  0.4214 -0.5780
  155MOL   H25649844   7.390   5.691   7.599 -0.9276  0.6918 -0.0537
  155MOL   H25749845   7.344   5.559   7.716 -1.1664 -1.6194 -0.1017
  155MOL   C25849846   6.912   5.566   7.489  0.4891  0.8449  0.2139
  155MOL   C25949847   6.897   5.597   7.342 -0.5143 -0.0096 -0.0431
  155MOL   O26049848   7.007   5.673   7.287 -0.2156  0.0802  0.2567
  155MOL   C26149849   7.059   5.645   7.154 -0.0503  0.3933 -1.0387
  155MOL   C26249850   7.130   5.762   7.096 -0.7498  0.6209  0.2770
  155MOL   C26349851   7.152   5.527   7.166 -0.4864  0.9870 -0.7102
  155MOL   H26449852   6.825   5.518   7.534 -0.0410  0.2629 -1.4015
  155MOL   H26549853   6.930   5.658   7.545  2.0875 -0.3464  1.7117
  155MOL   H26649854   6.887   5.496   7.302  1.1957 -0.2972  0.2119
  155MOL   H26749855   6.981   5.617   7.084 -0.2629  0.6281 -0.8965
  155MOL   H26849856   7.222   5.795   7.145 -0.4953  2.0210 -1.1273
  155MOL   H26949857   7.068   5.850   7.077 -0.6776  0.2768 -1.5905
  155MOL   H27049858   7.166   5.731   6.999 -0.9132  0.7144  0.1866
  155MOL   H27149859   7.173   5.482   7.069 -1.5996 -1.5823  0.2121
  155MOL   H27249860   7.251   5.540   7.210 -1.8394 -2.1805  3.6154
  155MOL   H27349861   7.108   5.451   7.230 -0.5007  1.3750 -0.2506
  155MOL   C27449862   6.771   5.676   7.312 -0.3866 -0.1440  0.1034
  155MOL   C27549863   6.635   5.608   7.296 -0.4136 -0.1108  0.3166
  155MOL   O27649864   6.621   5.502   7.391  0.2300  0.2424 -0.6294
  155MOL   C27749865   6.514   5.410   7.364  0.5712  0.1897  0.7306
  155MOL   C27849866   6.447   5.372   7.495  0.5271 -1.1741 -0.1765
  155MOL   C27949867   6.574   5.285   7.289 -0.1869  0.2996 -0.2860
  155MOL   H28049868   6.768   5.764   7.376  1.1948  0.2571 -0.3561
  155MOL   H28149869   6.787   5.739   7.225  0.9570  1.1949  1.2781
  155MOL   H28249870   6.634   5.561   7.198 -3.4137  0.9482 -0.2362
  155MOL   H28349871   6.434   5.451   7.303  1.0746 -2.8917 -2.1643
  155MOL   H28449872   6.395   5.457   7.538  1.7978 -0.3319 -0.2632
  155MOL   H28549873   6.382   5.287   7.476 -3.0226  1.1630  1.0185
  155MOL   H28649874   6.520   5.341   7.571 -1.3989  1.8656  3.0892
  155MOL   H28749875   6.500   5.205   7.288  0.1947 -0.0519 -0.7198
  155MOL   H28849876   6.660   5.249   7.345 -0.1349  0.3742 -0.3189
  155MOL   H28949877   6.617   5.316   7.194 -0.9526  1.0515 -0.3871
  155MOL   C29049878   6.515   5.706   7.312 -0.3742  0.8859  0.4018
  155MOL   C29149879   6.467   5.754   7.452  0.1044 -0.2354 -0.0402
  155MOL   O29249880   6.576   5.831   7.497 -0.2513 -0.9842  0.5538
  155MOL   C29349881   6.589   5.846   7.640 -0.0431 -0.7869 -0.5070
  155MOL   C29449882   6.607   5.996   7.657  0.2514 -0.3820  0.4730
  155MOL   C29549883   6.699   5.761   7.691 -0.7186 -0.3475  0.0953
  155MOL   H29649884   6.426   5.663   7.267  0.5809  0.1445 -0.8327
  155MOL   H29749885   6.526   5.788   7.240 -3.0093 -0.0639 -1.1432
  155MOL   H29849886   6.448   5.664   7.511  0.7772 -0.1339  0.3497
  155MOL   H29949887   6.497   5.827   7.697 -0.1671  0.4074 -0.2995
  155MOL   H30049888   6.692   6.025   7.595 -0.6718  1.1379 -0.1055
  155MOL   H30149889   6.509   6.040   7.638  0.3633  0.7515  2.4338
  155MOL   H30249890   6.626   6.021   7.761  0.3660 -1.1816  0.6522
  155MOL   H30349891   6.663   5.659   7.682 -0.9626 -0.3342  0.8444
  155MOL   H30449892   6.776   5.770   7.614 -2.1877 -1.0611 -1.4797
  155MOL   H30549893   6.752   5.784   7.784 -2.1045  3.3290  0.0804
  155MOL   C30649894   6.353   5.856   7.441 -0.0146 -0.7132 -0.0101
  155MOL   C30749895   6.228   5.790   7.502  0.2252 -0.5581 -0.0047
  155MOL   O30849896   6.170   5.680   7.433  0.2464  0.5243  0.0082
  155MOL   C30949897   6.069   5.608   7.497 -0.4048  0.2983  0.0126
  155MOL   C31049898   5.923   5.674   7.495  0.3179  0.2111  0.2769
  155MOL   C31149899   6.065   5.463   7.452  0.1074  0.0093  0.5933
  155MOL   H31249900   6.333   5.864   7.334  0.2492 -2.0164 -0.1636
  155MOL   H31349901   6.374   5.953   7.485  0.9625 -1.4839  1.2452
  155MOL   H31449902   6.249   5.765   7.606  0.5468  2.2490  0.6590
  155MOL   H31549903   6.105   5.605   7.600  2.2811 -0.7476 -0.9166
  155MOL   H31649904   5.907   5.753   7.569 -0.3290 -0.0314  0.3983
  155MOL   H31749905   5.845   5.604   7.527  1.1366  0.2447  2.4016
  155MOL   H31849906   5.900   5.698   7.391  0.6597  0.8281  0.3430
  155MOL   H31949907   6.162   5.426   7.484  0.9642  2.4280  0.8593
  155MOL   H32049908   6.068   5.457   7.343 -2.3010  0.4695  0.4712
  155MOL   H32149909   5.982   5.410   7.499 -0.9079 -0.8541 -2.0324
  155MOL   H32249910   6.150   5.866   7.500 -0.2086 -0.9259  1.9401
   7.82037   7.82037   7.82037
